<event>
 7    1  0.5109948E-006  0.1347854E+03  0.7561462E-02  0.1220523E+00
          3   -1    0    0  501    0  0.00000000000E+00  0.00000000000E+00  0.69117309794E+02  0.69117309794E+02  0.00000000000E+00 0. -1.
         -3   -1    0    0    0  501 -0.00000000000E+00 -0.00000000000E+00 -0.39090299444E+03  0.39090299444E+03  0.00000000000E+00 0.  1.
         23    2    1    2    0    0 -0.15368086669E+01 -0.11530085154E+03 -0.22920901910E+03  0.28544891318E+03  0.12509060498E+03 0.  0.
          5    1    3    3  502    0  0.40983985056E+02 -0.85087514625E+02 -0.20893979334E+03  0.22933137993E+03  0.41800000000E+01 0.  1.
         -5    1    3    3    0  502 -0.42520793723E+02 -0.30213336914E+02 -0.20269225754E+02  0.56117533258E+02  0.41800000000E+01 0.  1.
        -11    1    1    2    0    0  0.21350480022E+02  0.71757367127E+02 -0.53128080934E+01  0.75054571239E+02  0.00000000000E+00 0. -1.
         11    1    1    2    0    0 -0.19813671355E+02  0.43543484413E+02 -0.87263857455E+02  0.99516819811E+02  0.00000000000E+00 0.  1.
</event>
<event>
 7    1  0.5109948E-006  0.1090911E+03  0.7561462E-02  0.1262262E+00
          1   -1    0    0  501    0  0.00000000000E+00  0.00000000000E+00  0.91589490613E+02  0.91589490613E+02  0.00000000000E+00 0. -1.
         -1   -1    0    0    0  501 -0.00000000000E+00 -0.00000000000E+00 -0.17613005940E+03  0.17613005940E+03  0.00000000000E+00 0.  1.
         23    2    1    2    0    0 -0.31713608139E+02 -0.56463029010E+02 -0.81407502215E+02  0.16269516315E+03  0.12509479649E+03 0.  0.
          5    1    3    3  502    0  0.35229858150E+02 -0.35385102131E+02 -0.77489137658E+02  0.92278313883E+02  0.41800000000E+01 0.  1.
         -5    1    3    3    0  502 -0.66943466289E+02 -0.21077926879E+02 -0.39183645572E+01  0.70416849270E+02  0.41800000000E+01 0.  1.
        -11    1    1    2    0    0  0.39127198323E+02 -0.16707033137E+01 -0.20091029926E+02  0.44015660641E+02  0.00000000000E+00 0. -1.
         11    1    1    2    0    0 -0.74135901840E+01  0.58133732323E+02  0.16957963357E+02  0.61008726216E+02  0.00000000000E+00 0.  1.
</event>
<event>
 7    1  0.5109948E-006  0.1033239E+03  0.7561462E-02  0.1273458E+00
         -1   -1    0    0    0  501 -0.00000000000E+00  0.00000000000E+00  0.17195474123E+03  0.17195474123E+03  0.00000000000E+00 0.  1.
          1   -1    0    0  501    0  0.00000000000E+00 -0.00000000000E+00 -0.73320971207E+02  0.73320971207E+02  0.00000000000E+00 0. -1.
         23    2    1    2    0    0  0.25748312140E+02 -0.24304883775E+02  0.75641055403E+02  0.14449106919E+03  0.11790842573E+03 0.  0.
          5    1    3    3  502    0  0.14918006595E+01 -0.68258204340E+02  0.24372534030E+02  0.72614741919E+02  0.41800000000E+01 0. -1.
         -5    1    3    3    0  502  0.24256511481E+02  0.43953320565E+02  0.51268521373E+02  0.71876327269E+02  0.41800000000E+01 0.  1.
        -11    1    1    2    0    0 -0.52451829650E+02  0.30197503577E+02  0.36087049977E+02  0.70465302327E+02  0.00000000000E+00 0.  1.
         11    1    1    2    0    0  0.26703517510E+02 -0.58926198025E+01 -0.13094335357E+02  0.30319340922E+02  0.00000000000E+00 0. -1.
</event>
<event>
 7    1  0.5109948E-006  0.1350943E+03  0.7561462E-02  0.1220087E+00
          1   -1    0    0  501    0  0.00000000000E+00  0.00000000000E+00  0.40979469471E+03  0.40979469471E+03  0.00000000000E+00 0. -1.
         -1   -1    0    0    0  501 -0.00000000000E+00 -0.00000000000E+00 -0.54409217732E+02  0.54409217732E+02  0.00000000000E+00 0.  1.
         23    2    1    2    0    0 -0.64822952992E+02 -0.77695524385E+02  0.17288673861E+03  0.23616794781E+03  0.12508743119E+03 0.  0.
          5    1    3    3  502    0  0.22880045291E+02 -0.40319729718E+02  0.10342861259E+02  0.47682536175E+02  0.41800000000E+01 0.  1.
         -5    1    3    3    0  502 -0.87702998284E+02 -0.37375794667E+02  0.16254387735E+03  0.18848541164E+03  0.41800000000E+01 0.  1.
        -11    1    1    2    0    0 -0.64548414743E+01 -0.12012545387E+02  0.54792383590E+02  0.56463895761E+02  0.00000000000E+00 0. -1.
         11    1    1    2    0    0  0.71277794467E+02  0.89708069772E+02  0.12770635478E+03  0.17157206887E+03  0.00000000000E+00 0.  1.
</event>
<event>
 7    1  0.5109948E-006  0.1089223E+03  0.7561462E-02  0.1262579E+00
         -2   -1    0    0    0  501 -0.00000000000E+00  0.00000000000E+00  0.47313618000E+03  0.47313618000E+03  0.00000000000E+00 0. -1.
          2   -1    0    0  501    0  0.00000000000E+00 -0.00000000000E+00 -0.52734631470E+02  0.52734631470E+02  0.00000000000E+00 0.  1.
         23    2    1    2    0    0  0.46888696808E+02  0.59332793225E+02  0.32830457645E+03  0.35937584085E+03  0.12509264500E+03 0.  0.
          5    1    3    3  502    0  0.35767398219E+02  0.72579480137E+02  0.33153429198E+03  0.34129100027E+03  0.41800000000E+01 0.  1.
         -5    1    3    3    0  502  0.11121298589E+02 -0.13246686912E+02 -0.32297155264E+01  0.18084840581E+02  0.41800000000E+01 0.  1.
        -11    1    1    2    0    0 -0.58401703908E+02 -0.77791100875E+02  0.31714776837E+02  0.10231344713E+03  0.00000000000E+00 0.  1.
         11    1    1    2    0    0  0.11513007100E+02  0.18458307650E+02  0.60382195241E+02  0.64181523477E+02  0.00000000000E+00 0. -1.
</event>
<event>
 6    1  0.5109948E-006  0.9250648E+02  0.7561462E-02  0.1296893E+00
          1   -1    0    0  501    0  0.00000000000E+00  0.00000000000E+00  0.12569239935E+03  0.12569239935E+03  0.00000000000E+00 0. -1.
         -1   -1    0    0    0  501 -0.00000000000E+00 -0.00000000000E+00 -0.12082751497E+03  0.12082751497E+03  0.00000000000E+00 0.  1.
          5    1    1    2  502    0  0.48595075013E+02  0.16982043844E+02  0.57446843146E+02  0.77249487481E+02  0.41800000000E+01 0. -1.
         -5    1    1    2    0  502 -0.35364661086E+02 -0.37661373929E+02 -0.58206373791E+02  0.77939031876E+02  0.41800000000E+01 0.  1.
        -11    1    1    2    0    0 -0.43794069776E+02 -0.14227557883E+01  0.23356234188E+02  0.49653383137E+02  0.00000000000E+00 0.  1.
         11    1    1    2    0    0  0.30563655848E+02  0.22102085874E+02 -0.17731819162E+02  0.41678011823E+02  0.00000000000E+00 0. -1.
</event>
<event>
 7    1  0.7272225E-006  0.2076388E+03  0.7561462E-02  0.1143450E+00
          1   -1    0    0  501    0  0.00000000000E+00  0.00000000000E+00  0.13266482960E+04  0.13266482960E+04  0.00000000000E+00 0. -1.
         -1   -1    0    0    0  501 -0.00000000000E+00 -0.00000000000E+00 -0.41311699484E+02  0.41311699484E+02  0.00000000000E+00 0.  1.
         23    2    1    2    0    0  0.10640872941E+03  0.16697443018E+03  0.48728700003E+03  0.54064688034E+03  0.12508857181E+03 0.  0.
          5    1    3    3  502    0  0.37875681450E+02  0.23575806158E+02  0.25657642976E+03  0.26045982913E+03  0.41800000000E+01 0.  1.
         -5    1    3    3    0  502  0.68533047956E+02  0.14339862402E+03  0.23071057027E+03  0.28018705121E+03  0.41800000000E+01 0.  1.
        -11    1    1    2    0    0 -0.11080921986E+03 -0.11638393190E+03  0.68133930247E+03  0.70003367626E+03  0.00000000000E+00 0.  1.
         11    1    1    2    0    0  0.44004904515E+01 -0.50590498279E+02  0.11671029399E+03  0.12727943885E+03  0.00000000000E+00 0. -1.
</event>
<event>
 7    1  0.5109948E-006  0.1449090E+03  0.7561462E-02  0.1206872E+00
          2   -1    0    0  501    0  0.00000000000E+00  0.00000000000E+00  0.14675506688E+03  0.14675506688E+03  0.00000000000E+00 0. -1.
         -2   -1    0    0    0  501 -0.00000000000E+00 -0.00000000000E+00 -0.22019194541E+03  0.22019194541E+03  0.00000000000E+00 0.  1.
         23    2    1    2    0    0  0.84611643051E+02 -0.76751555271E+02 -0.12677940486E+03  0.21158157100E+03  0.12507522662E+03 0.  0.
          5    1    3    3  502    0 -0.31074023792E+02 -0.66223749529E+01 -0.12343555795E+02  0.34340742192E+02  0.41800000000E+01 0. -1.
         -5    1    3    3    0  502  0.11568566684E+03 -0.70129180319E+02 -0.11443584907E+03  0.17724082881E+03  0.41800000000E+01 0. -1.
        -11    1    1    2    0    0 -0.64802911560E+02  0.79347771871E+02  0.44447356167E+01  0.10254385365E+03  0.00000000000E+00 0.  1.
         11    1    1    2    0    0 -0.19808731490E+02 -0.25962165990E+01  0.48897790715E+02  0.52821587639E+02  0.00000000000E+00 0. -1.
</event>
<event>
 7    1  0.5109948E-006  0.1951047E+03  0.7561462E-02  0.1153936E+00
         -1   -1    0    0    0  501 -0.00000000000E+00  0.00000000000E+00  0.12618963878E+03  0.12618963878E+03  0.00000000000E+00 0.  1.
          1   -1    0    0  501    0  0.00000000000E+00 -0.00000000000E+00 -0.37628740014E+03  0.37628740014E+03  0.00000000000E+00 0. -1.
         23    2    1    2    0    0  0.53216768624E+02  0.17776803680E+03 -0.91846614431E+02  0.24190088159E+03  0.12508691602E+03 0.  0.
          5    1    3    3  502    0  0.14976898059E+02  0.34021518340E+01 -0.58023284034E+02  0.60166901222E+02  0.41800000000E+01 0. -1.
         -5    1    3    3    0  502  0.38239870566E+02  0.17436588496E+03 -0.33823330397E+02  0.18173398036E+03  0.41800000000E+01 0. -1.
        -11    1    1    2    0    0 -0.66451109910E+02 -0.12781297429E+03 -0.15047885784E+03  0.20831656934E+03  0.00000000000E+00 0. -1.
         11    1    1    2    0    0  0.13234341285E+02 -0.49955062510E+02 -0.77722890982E+01  0.52259587995E+02  0.00000000000E+00 0.  1.
</event>
<event>
 7    1  0.5109948E-006  0.1626990E+03  0.7561462E-02  0.1185683E+00
          1   -1    0    0  501    0  0.00000000000E+00  0.00000000000E+00  0.20680250560E+03  0.20680250560E+03  0.00000000000E+00 0. -1.
         -1   -1    0    0    0  501 -0.00000000000E+00 -0.00000000000E+00 -0.18753920350E+03  0.18753920350E+03  0.00000000000E+00 0.  1.
         23    2    1    2    0    0 -0.10610898266E+03  0.93357336317E+02 -0.72995380341E+02  0.20236769780E+03  0.12509856561E+03 0.  0.
          5    1    3    3  502    0 -0.35028394808E+02  0.83969335176E+02  0.11128886942E+02  0.91755992814E+02  0.41800000000E+01 0. -1.
         -5    1    3    3    0  502 -0.71080587850E+02  0.93880011406E+01 -0.84124267283E+02  0.11061170499E+03  0.41800000000E+01 0. -1.
        -11    1    1    2    0    0  0.97410201035E+02 -0.35014589863E+02  0.82099862674E+02  0.13211796328E+03  0.00000000000E+00 0. -1.
         11    1    1    2    0    0  0.86987816226E+01 -0.58342746454E+02  0.10158819766E+02  0.59856048020E+02  0.00000000000E+00 0.  1.
</event>
<event>
 7    1  0.5109948E-006  0.1007995E+03  0.7561462E-02  0.1278624E+00
         -1   -1    0    0    0  501 -0.00000000000E+00  0.00000000000E+00  0.72637660164E+02  0.72637660164E+02  0.00000000000E+00 0.  1.
          1   -1    0    0  501    0  0.00000000000E+00 -0.00000000000E+00 -0.27775201938E+03  0.27775201938E+03  0.00000000000E+00 0. -1.
         23    2    1    2    0    0  0.90025054215E+01 -0.52299112885E+02 -0.25859224524E+02  0.13832027215E+03  0.12509019099E+03 0.  0.
          5    1    3    3  502    0  0.27239893133E+01  0.41440774055E+02 -0.10388568928E+02  0.43013400661E+02  0.41800000000E+01 0. -1.
         -5    1    3    3    0  502  0.62785161082E+01 -0.93739886939E+02 -0.15470655597E+02  0.95306871486E+02  0.41800000000E+01 0. -1.
        -11    1    1    2    0    0  0.13184927776E+02  0.60220150413E+01  0.89210647539E+01  0.17020351992E+02  0.00000000000E+00 0.  1.
         11    1    1    2    0    0 -0.22187433197E+02  0.46277097844E+02 -0.18817619944E+03  0.19504905540E+03  0.00000000000E+00 0. -1.
</event>
<event>
 7    1  0.5109948E-006  0.1573914E+03  0.7561462E-02  0.1191674E+00
         -1   -1    0    0    0  501 -0.00000000000E+00  0.00000000000E+00  0.62140423490E+02  0.62140423490E+02  0.00000000000E+00 0.  1.
          1   -1    0    0  501    0  0.00000000000E+00 -0.00000000000E+00 -0.41599423195E+03  0.41599423195E+03  0.00000000000E+00 0. -1.
         23    2    1    2    0    0  0.25103962289E+02  0.11532890059E+03 -0.17303324781E+03  0.24396361689E+03  0.12508707881E+03 0.  0.
          5    1    3    3  502    0  0.74471925941E+02  0.55619200179E+02 -0.10942532401E+03  0.14363473507E+03  0.41800000000E+01 0.  1.
         -5    1    3    3    0  502 -0.49367963652E+02  0.59709700411E+02 -0.63607923798E+02  0.10032888182E+03  0.41800000000E+01 0.  1.
        -11    1    1    2    0    0  0.25238054364E+02 -0.76556502060E+02 -0.12928795379E+03  0.15235889338E+03  0.00000000000E+00 0.  1.
         11    1    1    2    0    0 -0.50342016653E+02 -0.38772398530E+02 -0.51532606861E+02  0.81812145177E+02  0.00000000000E+00 0. -1.
</event>
<event>
 7    1  0.5109948E-006  0.1918231E+03  0.7561462E-02  0.1156827E+00
          2   -1    0    0  501    0  0.00000000000E+00  0.00000000000E+00  0.42909560556E+03  0.42909560556E+03  0.00000000000E+00 0. -1.
         -2   -1    0    0    0  501 -0.00000000000E+00 -0.00000000000E+00 -0.93675483896E+02  0.93675483896E+02  0.00000000000E+00 0.  1.
         23    2    1    2    0    0 -0.71711621757E+02 -0.15070943493E+03  0.12631216147E+03  0.24384189323E+03  0.12509283069E+03 0.  0.
          5    1    3    3  502    0 -0.15893331996E+01 -0.12831282901E+03  0.50149728565E+02  0.13783749759E+03  0.41800000000E+01 0.  1.
         -5    1    3    3    0  502 -0.70122288558E+02 -0.22396605925E+02  0.76162432903E+02  0.10600439564E+03  0.41800000000E+01 0.  1.
        -11    1    1    2    0    0 -0.81898766899E+01  0.60358612904E+02  0.47332478217E+02  0.77140130451E+02  0.00000000000E+00 0. -1.
         11    1    1    2    0    0  0.79901498447E+02  0.90350822027E+02  0.16177548198E+03  0.20178906577E+03  0.00000000000E+00 0.  1.
</event>
<event>
 7    1  0.5109948E-006  0.1194612E+03  0.7561462E-02  0.1243989E+00
          2   -1    0    0  501    0  0.00000000000E+00  0.00000000000E+00  0.11516269115E+03  0.11516269115E+03  0.00000000000E+00 0.  1.
         -2   -1    0    0    0  501 -0.00000000000E+00 -0.00000000000E+00 -0.17781240382E+03  0.17781240382E+03  0.00000000000E+00 0. -1.
         23    2    1    2    0    0 -0.76082666718E+02 -0.37591921028E+02 -0.71977439061E+02  0.16741357369E+03  0.12507928774E+03 0.  0.
          5    1    3    3  502    0 -0.31586965969E+02 -0.78178733998E+02 -0.17758755475E+02  0.86269905904E+02  0.41800000000E+01 0. -1.
         -5    1    3    3    0  502 -0.44495700749E+02  0.40586812970E+02 -0.54218683587E+02  0.81143667788E+02  0.41800000000E+01 0. -1.
        -11    1    1    2    0    0  0.51622893619E+02  0.45094133121E+02 -0.33021288314E+02  0.76084226154E+02  0.00000000000E+00 0. -1.
         11    1    1    2    0    0  0.24459773099E+02 -0.75022120931E+01  0.42349014701E+02  0.49477295121E+02  0.00000000000E+00 0.  1.
</event>
<event>
 7    1  0.5109948E-006  0.9454736E+02  0.7561462E-02  0.1292199E+00
          2   -1    0    0  501    0  0.00000000000E+00  0.00000000000E+00  0.31553668155E+03  0.31553668155E+03  0.00000000000E+00 0. -1.
         -2   -1    0    0    0  501 -0.00000000000E+00 -0.00000000000E+00 -0.56350204748E+02  0.56350204748E+02  0.00000000000E+00 0.  1.
         23    2    1    2    0    0  0.19241378211E+02  0.69366233663E+02  0.10389645215E+03  0.17783059705E+03  0.12508934195E+03 0.  0.
          5    1    3    3  502    0 -0.12430021219E+02  0.35111041468E+01  0.10375142503E+03  0.10463586324E+03  0.41800000000E+01 0. -1.
         -5    1    3    3    0  502  0.31671399430E+02  0.65855129516E+02  0.14502712753E+00  0.73194733815E+02  0.41800000000E+01 0. -1.
        -11    1    1    2    0    0  0.17723672998E+02 -0.62193588369E+02  0.13844744699E+03  0.15280663139E+03  0.00000000000E+00 0. -1.
         11    1    1    2    0    0 -0.36965051209E+02 -0.71726452944E+01  0.16842577660E+02  0.41249657861E+02  0.00000000000E+00 0.  1.
</event>
<event>
 7    1  0.5109948E-006  0.9452637E+02  0.7561462E-02  0.1292246E+00
         -4   -1    0    0    0  501 -0.00000000000E+00  0.00000000000E+00  0.51850578664E+03  0.51850578664E+03  0.00000000000E+00 0.  1.
          4   -1    0    0  501    0  0.00000000000E+00 -0.00000000000E+00 -0.31585762791E+02  0.31585762791E+02  0.00000000000E+00 0. -1.
         23    2    1    2    0    0  0.45911637697E+02  0.24127095888E+02  0.34773502672E+03  0.37317198095E+03  0.12509070040E+03 0.  0.
          5    1    3    3  502    0  0.20583370304E+02 -0.51416074122E+02  0.14946272999E+03  0.15944863709E+03  0.41800000000E+01 0. -1.
         -5    1    3    3    0  502  0.25328267393E+02  0.75543170011E+02  0.19827229673E+03  0.21372334387E+03  0.41800000000E+01 0. -1.
        -11    1    1    2    0    0 -0.21436310700E+02 -0.35039074318E+01 -0.10305319430E+02  0.24041472340E+02  0.00000000000E+00 0. -1.
         11    1    1    2    0    0 -0.24475326996E+02 -0.20623188457E+02  0.14949031656E+03  0.15287809613E+03  0.00000000000E+00 0.  1.
</event>
<event>
 7    1  0.5109948E-006  0.1152580E+03  0.7561462E-02  0.1251131E+00
         -1   -1    0    0    0  501 -0.00000000000E+00  0.00000000000E+00  0.95500861683E+02  0.95500861683E+02  0.00000000000E+00 0.  1.
          1   -1    0    0  501    0  0.00000000000E+00 -0.00000000000E+00 -0.14477073909E+03  0.14477073909E+03  0.00000000000E+00 0. -1.
         23    2    1    2    0    0  0.44025684124E+02  0.31496895073E+01 -0.19076577480E+02  0.13402107240E+03  0.12509816399E+03 0.  0.
          5    1    3    3  502    0 -0.43831878959E+02  0.44807156982E+00 -0.26203890157E+00  0.44033798901E+02  0.41800000000E+01 0. -1.
         -5    1    3    3    0  502  0.87857563084E+02  0.27016179375E+01 -0.18814538579E+02  0.89987273502E+02  0.41800000000E+01 0. -1.
        -11    1    1    2    0    0 -0.22490529756E+02 -0.45622056127E+02 -0.29137075692E+02  0.58618811945E+02  0.00000000000E+00 0.  1.
         11    1    1    2    0    0 -0.21535154369E+02  0.42472366620E+02 -0.10562242353E+01  0.47631716425E+02  0.00000000000E+00 0. -1.
</event>
<event>
 7    1  0.5109948E-006  0.1128867E+03  0.7561462E-02  0.1255316E+00
          1   -1    0    0  501    0  0.00000000000E+00  0.00000000000E+00  0.26064558284E+03  0.26064558284E+03  0.00000000000E+00 0. -1.
         -1   -1    0    0    0  501 -0.00000000000E+00 -0.00000000000E+00 -0.83758994170E+02  0.83758994170E+02  0.00000000000E+00 0.  1.
         23    2    1    2    0    0  0.84471999323E+02  0.88901388583E-01  0.15889710231E+03  0.21916071332E+03  0.12509037760E+03 0.  0.
          5    1    3    3  502    0  0.28187865115E+02 -0.27452342954E+02 -0.84127865386E+01  0.40452864555E+02  0.41800000000E+01 0. -1.
         -5    1    3    3    0  502  0.56284134208E+02  0.27541244342E+02  0.16730988885E+03  0.17870784877E+03  0.41800000000E+01 0. -1.
        -11    1    1    2    0    0 -0.10053122312E+03  0.14666879905E+02  0.10288321848E+02  0.10211510052E+03  0.00000000000E+00 0. -1.
         11    1    1    2    0    0  0.16059223800E+02 -0.14755781293E+02  0.77011645078E+01  0.23128763162E+02  0.00000000000E+00 0.  1.
</event>
<event>
 7    1  0.5109948E-006  0.8518142E+02  0.7561462E-02  0.1314959E+00
         -1   -1    0    0    0  501 -0.00000000000E+00  0.00000000000E+00  0.35681977140E+03  0.35681977140E+03  0.00000000000E+00 0.  1.
          1   -1    0    0  501    0  0.00000000000E+00 -0.00000000000E+00 -0.40463756065E+02  0.40463756065E+02  0.00000000000E+00 0. -1.
         23    2    1    2    0    0  0.43978186036E+02  0.17172742800E+02  0.21230753167E+03  0.25089998531E+03  0.12508929083E+03 0.  0.
          5    1    3    3  502    0 -0.32142678707E+02 -0.95264980076E+01  0.13474191644E+03  0.13891278704E+03  0.41800000000E+01 0. -1.
         -5    1    3    3    0  502  0.76120864742E+02  0.26699240808E+02  0.77565615232E+02  0.11198719826E+03  0.41800000000E+01 0. -1.
        -11    1    1    2    0    0 -0.24440537790E+02  0.63230295976E+01  0.11199864780E+03  0.11480861335E+03  0.00000000000E+00 0.  1.
         11    1    1    2    0    0 -0.19537648245E+02 -0.23495772398E+02 -0.79501641310E+01  0.31574928808E+02  0.00000000000E+00 0. -1.
</event>
<event>
 7    1  0.5109948E-006  0.1891360E+03  0.7561462E-02  0.1159243E+00
          2   -1    0    0  501    0  0.00000000000E+00  0.00000000000E+00  0.61145550505E+03  0.61145550505E+03  0.00000000000E+00 0. -1.
         -2   -1    0    0    0  501 -0.00000000000E+00 -0.00000000000E+00 -0.64381431373E+02  0.64381431373E+02  0.00000000000E+00 0.  1.
         23    2    1    2    0    0  0.20472865318E+02 -0.15681235580E+03  0.20192565177E+03  0.28536196723E+03  0.12509288689E+03 0.  0.
          5    1    3    3  502    0 -0.42313724199E+02 -0.12918667958E+02  0.49137304097E+02  0.66251719158E+02  0.41800000000E+01 0.  1.
         -5    1    3    3    0  502  0.62786589517E+02 -0.14389368785E+03  0.15278834768E+03  0.21911024807E+03  0.41800000000E+01 0.  1.
        -11    1    1    2    0    0  0.26744044806E+02  0.24397292781E+02  0.36948998238E+02  0.51727171761E+02  0.00000000000E+00 0. -1.
         11    1    1    2    0    0 -0.47216910124E+02  0.13241506302E+03  0.30819942366E+03  0.33874779743E+03  0.00000000000E+00 0.  1.
</event>
<event>
 7    1  0.5109948E-006  0.1826015E+03  0.7561462E-02  0.1165309E+00
          2   -1    0    0  501    0  0.00000000000E+00  0.00000000000E+00  0.72892497380E+03  0.72892497380E+03  0.00000000000E+00 0.  1.
         -2   -1    0    0    0  501 -0.00000000000E+00 -0.00000000000E+00 -0.65008377960E+02  0.65008377960E+02  0.00000000000E+00 0. -1.
         23    2    1    2    0    0  0.60721543888E+02  0.14882416375E+03  0.17244292214E+03  0.26687048527E+03  0.12509019507E+03 0.  0.
          5    1    3    3  502    0  0.58915795573E+02  0.16992717018E+03  0.14025144301E+03  0.22811017908E+03  0.41800000000E+01 0. -1.
         -5    1    3    3    0  502  0.18057483154E+01 -0.21103006429E+02  0.32191479126E+02  0.38760306186E+02  0.41800000000E+01 0. -1.
        -11    1    1    2    0    0 -0.14130072159E+02 -0.75711601734E+02  0.10064141978E+03  0.12673042631E+03  0.00000000000E+00 0. -1.
         11    1    1    2    0    0 -0.46591471729E+02 -0.73112562015E+02  0.39083225392E+03  0.40033244019E+03  0.00000000000E+00 0.  1.
</event>
<event>
 7    1  0.5109948E-006  0.9027258E+02  0.7561462E-02  0.1302193E+00
         -2   -1    0    0    0  501 -0.00000000000E+00  0.00000000000E+00  0.21901909990E+03  0.21901909990E+03  0.00000000000E+00 0.  1.
          2   -1    0    0  501    0  0.00000000000E+00 -0.00000000000E+00 -0.66117384467E+02  0.66117384467E+02  0.00000000000E+00 0. -1.
         23    2    1    2    0    0  0.42926610590E+02  0.30745772027E+02  0.75935970249E+02  0.15557006617E+03  0.12509107689E+03 0.  0.
          5    1    3    3  502    0 -0.24983709817E+02 -0.10101672531E+02  0.71000937174E+02  0.76058102946E+02  0.41800000000E+01 0. -1.
         -5    1    3    3    0  502  0.67910320407E+02  0.40847444558E+02  0.49350330751E+01  0.79511963226E+02  0.41800000000E+01 0. -1.
        -11    1    1    2    0    0 -0.54967716689E+02 -0.22919719562E+02  0.91474087590E+02  0.10915251771E+03  0.00000000000E+00 0.  1.
         11    1    1    2    0    0  0.12041106099E+02 -0.78260524647E+01 -0.14508342409E+02  0.20413900478E+02  0.00000000000E+00 0. -1.
</event>
<event>
 7    1  0.5109948E-006  0.1125095E+03  0.7561462E-02  0.1255992E+00
         -2   -1    0    0    0  501 -0.00000000000E+00  0.00000000000E+00  0.23127004184E+02  0.23127004184E+02  0.00000000000E+00 0.  1.
          2   -1    0    0  501    0  0.00000000000E+00 -0.00000000000E+00 -0.65231420899E+03  0.65231420899E+03  0.00000000000E+00 0. -1.
         23    2    1    2    0    0  0.50516921196E+02  0.20703419728E+02 -0.31000507448E+03  0.33872137960E+03  0.12509370841E+03 0.  0.
          5    1    3    3  502    0  0.91553799679E+02  0.11866808976E+02 -0.18514796831E+03  0.20693033117E+03  0.41800000000E+01 0.  1.
         -5    1    3    3    0  502 -0.41036878483E+02  0.88366107518E+01 -0.12485710617E+03  0.13179104843E+03  0.41800000000E+01 0.  1.
        -11    1    1    2    0    0 -0.42433136229E+02 -0.46756896084E+02 -0.28991507408E+03  0.29671118711E+03  0.00000000000E+00 0. -1.
         11    1    1    2    0    0 -0.80837849670E+01  0.26053476357E+02 -0.29267056252E+02  0.40008646457E+02  0.00000000000E+00 0.  1.
</event>
<event>
 7    1  0.5109948E-006  0.1096808E+03  0.7561462E-02  0.1261162E+00
         -1   -1    0    0    0  501 -0.00000000000E+00  0.00000000000E+00  0.80653657747E+03  0.80653657747E+03  0.00000000000E+00 0.  1.
          1   -1    0    0  501    0  0.00000000000E+00 -0.00000000000E+00 -0.20877652647E+02  0.20877652647E+02  0.00000000000E+00 0. -1.
         23    2    1    2    0    0 -0.37570953869E+02 -0.26390533540E+02  0.60572040593E+03  0.62020485469E+03  0.12509522288E+03 0.  0.
          5    1    3    3  502    0 -0.75879388612E+02 -0.31804622129E+02  0.27140999654E+03  0.28363722292E+03  0.41800000000E+01 0.  1.
         -5    1    3    3    0  502  0.38308434744E+02  0.54140885891E+01  0.33431040939E+03  0.33656763177E+03  0.41800000000E+01 0.  1.
        -11    1    1    2    0    0 -0.76249626098E+01 -0.27033800933E+02  0.26721409987E+02  0.38768546522E+02  0.00000000000E+00 0. -1.
         11    1    1    2    0    0  0.45195916479E+02  0.53424334474E+02  0.15321710890E+03  0.16844082890E+03  0.00000000000E+00 0.  1.
</event>
<event>
 7    1  0.5109948E-006  0.8444254E+02  0.7561462E-02  0.1316897E+00
          2   -1    0    0  501    0  0.00000000000E+00  0.00000000000E+00  0.82433507445E+02  0.82433507445E+02  0.00000000000E+00 0. -1.
         -2   -1    0    0    0  501 -0.00000000000E+00 -0.00000000000E+00 -0.14580030223E+03  0.14580030223E+03  0.00000000000E+00 0.  1.
         23    2    1    2    0    0 -0.59563416085E+01 -0.17025117977E+02 -0.46072708330E+02  0.13452536009E+03  0.12509614465E+03 0.  0.
          5    1    3    3  502    0  0.66261929571E+01  0.31263025445E+02  0.29616413815E+02  0.43770852863E+02  0.41800000000E+01 0.  1.
         -5    1    3    3    0  502 -0.12582534566E+02 -0.48288143422E+02 -0.75689122145E+02  0.90754507228E+02  0.41800000000E+01 0.  1.
        -11    1    1    2    0    0 -0.30719046003E+02 -0.18218807476E+02 -0.23067724647E+02  0.42517110127E+02  0.00000000000E+00 0.  1.
         11    1    1    2    0    0  0.36675387611E+02  0.35243925452E+02  0.57736381897E+01  0.51191339460E+02  0.00000000000E+00 0. -1.
</event>
<event>
 7    1  0.5109948E-006  0.1188920E+03  0.7561462E-02  0.1244936E+00
          1   -1    0    0  501    0  0.00000000000E+00  0.00000000000E+00  0.21380880668E+02  0.21380880668E+02  0.00000000000E+00 0. -1.
         -1   -1    0    0    0  501 -0.00000000000E+00 -0.00000000000E+00 -0.78174425235E+03  0.78174425235E+03  0.00000000000E+00 0.  1.
         23    2    1    2    0    0 -0.52354937048E+02  0.45383303119E+02 -0.47917839218E+03  0.50006017840E+03  0.12509023485E+03 0.  0.
          5    1    3    3  502    0  0.30266716010E+02 -0.18989899006E+02 -0.87713701540E+02  0.94804304756E+02  0.41800000000E+01 0.  1.
         -5    1    3    3    0  502 -0.82621653058E+02  0.64373202125E+02 -0.39146469064E+03  0.40525587365E+03  0.41800000000E+01 0.  1.
        -11    1    1    2    0    0  0.23484293730E+02  0.16499531934E+02 -0.25414999886E+02  0.38336259928E+02  0.00000000000E+00 0. -1.
         11    1    1    2    0    0  0.28870643317E+02 -0.61882835053E+02 -0.25576997961E+03  0.26472869469E+03  0.00000000000E+00 0.  1.
</event>
<event>
 7    1  0.5109948E-006  0.1082947E+03  0.7561462E-02  0.1263761E+00
         -2   -1    0    0    0  501 -0.00000000000E+00  0.00000000000E+00  0.33824402955E+02  0.33824402955E+02  0.00000000000E+00 0.  1.
          2   -1    0    0  501    0  0.00000000000E+00 -0.00000000000E+00 -0.37403029171E+03  0.37403029171E+03  0.00000000000E+00 0. -1.
         23    2    1    2    0    0 -0.11270817400E+02 -0.16011435817E+02 -0.20691381228E+03  0.24257562414E+03  0.12508481249E+03 0.  0.
          5    1    3    3  502    0 -0.95999981346E+01  0.54658880566E+02 -0.96780144911E+02  0.11164059315E+03  0.41800000000E+01 0.  1.
         -5    1    3    3    0  502 -0.16708192650E+01 -0.70670316382E+02 -0.11013366737E+03  0.13093503100E+03  0.41800000000E+01 0.  1.
        -11    1    1    2    0    0  0.41110656809E+02  0.35638103650E+02 -0.47033895574E+02  0.71919036895E+02  0.00000000000E+00 0.  1.
         11    1    1    2    0    0 -0.29839839410E+02 -0.19626667833E+02 -0.86258180905E+02  0.93360033629E+02  0.00000000000E+00 0. -1.
</event>
<event>
 7    1  0.5109948E-006  0.9697047E+02  0.7561462E-02  0.1286799E+00
          4   -1    0    0  501    0  0.00000000000E+00  0.00000000000E+00  0.32802397583E+03  0.32802397583E+03  0.00000000000E+00 0. -1.
         -4   -1    0    0    0  501 -0.00000000000E+00 -0.00000000000E+00 -0.48881017867E+02  0.48881017867E+02  0.00000000000E+00 0.  1.
         23    2    1    2    0    0  0.11440856222E+02  0.58282962951E+02  0.11252317948E+03  0.17843082603E+03  0.12509315248E+03 0.  0.
          5    1    3    3  502    0 -0.52023789571E+01  0.81006484215E+02  0.22976887786E+02  0.84466117491E+02  0.41800000000E+01 0. -1.
         -5    1    3    3    0  502  0.16643235179E+02 -0.22723521264E+02  0.89546291692E+02  0.93964708544E+02  0.41800000000E+01 0. -1.
        -11    1    1    2    0    0  0.21782646264E+02 -0.66291438216E+01  0.21011253889E+01  0.22865781290E+02  0.00000000000E+00 0.  1.
         11    1    1    2    0    0 -0.33223502486E+02 -0.51653819129E+02  0.16451865309E+03  0.17560838637E+03  0.00000000000E+00 0. -1.
</event>
<event>
 7    1  0.5109948E-006  0.1217655E+03  0.7561462E-02  0.1240213E+00
         -1   -1    0    0    0  501 -0.00000000000E+00  0.00000000000E+00  0.14557524611E+02  0.14557524611E+02  0.00000000000E+00 0.  1.
          1   -1    0    0  501    0  0.00000000000E+00 -0.00000000000E+00 -0.12620302002E+04  0.12620302002E+04  0.00000000000E+00 0. -1.
         23    2    1    2    0    0 -0.35943741384E+02  0.69915557594E+02 -0.76186378479E+03  0.77605693756E+03  0.12509119081E+03 0.  0.
          5    1    3    3  502    0  0.86958354793E+01 -0.30005813522E+02 -0.90798387763E+02  0.96113401876E+02  0.41800000000E+01 0. -1.
         -5    1    3    3    0  502 -0.44639576864E+02  0.99921371116E+02 -0.67106539703E+03  0.67994353568E+03  0.41800000000E+01 0. -1.
        -11    1    1    2    0    0 -0.18885199205E+02 -0.10353149050E+02 -0.25608497771E+02  0.33460926501E+02  0.00000000000E+00 0.  1.
         11    1    1    2    0    0  0.54828940589E+02 -0.59562408544E+02 -0.46000039307E+03  0.46706986079E+03  0.00000000000E+00 0. -1.
</event>
<event>
 7    1  0.5109948E-006  0.7565760E+02  0.7561462E-02  0.1341847E+00
          1   -1    0    0  501    0  0.00000000000E+00  0.00000000000E+00  0.32137449731E+03  0.32137449731E+03  0.00000000000E+00 0. -1.
         -1   -1    0    0    0  501 -0.00000000000E+00 -0.00000000000E+00 -0.15444607075E+03  0.15444607075E+03  0.00000000000E+00 0.  1.
         23    2    1    2    0    0  0.25382421131E+02 -0.35221534365E+02 -0.11578403307E+03  0.17589325057E+03  0.12509064512E+03 0.  0.
          5    1    3    3  502    0  0.29965525661E+02 -0.24258197216E+02  0.17122178812E+02  0.42391440970E+02  0.41800000000E+01 0.  1.
         -5    1    3    3    0  502 -0.45831045301E+01 -0.10963337149E+02 -0.13290621189E+03  0.13350180960E+03  0.41800000000E+01 0.  1.
        -11    1    1    2    0    0  0.31881352871E+02 -0.14928825677E+01  0.81422113324E+02  0.87454044489E+02  0.00000000000E+00 0.  1.
         11    1    1    2    0    0 -0.57263774001E+02  0.36714416933E+02  0.20129034631E+03  0.21247327300E+03  0.00000000000E+00 0. -1.
</event>
<event>
 7    1  0.5109948E-006  0.1168420E+03  0.7561462E-02  0.1248400E+00
         -2   -1    0    0    0  501 -0.00000000000E+00  0.00000000000E+00  0.61869351719E+02  0.61869351719E+02  0.00000000000E+00 0.  1.
          2   -1    0    0  501    0  0.00000000000E+00 -0.00000000000E+00 -0.28895699771E+03  0.28895699771E+03  0.00000000000E+00 0. -1.
         23    2    1    2    0    0 -0.31661101737E+02 -0.67740624015E+02 -0.98818956386E+02  0.17607953429E+03  0.12509036233E+03 0.  0.
          5    1    3    3  502    0  0.40935700595E+02 -0.52781544563E+02 -0.68853658213E+02  0.96020423239E+02  0.41800000000E+01 0. -1.
         -5    1    3    3    0  502 -0.72596802333E+02 -0.14959079452E+02 -0.29965298173E+02  0.80059111047E+02  0.41800000000E+01 0. -1.
        -11    1    1    2    0    0  0.47326761667E+02  0.51941790434E+02 -0.13440629428E+03  0.15166681873E+03  0.00000000000E+00 0. -1.
         11    1    1    2    0    0 -0.15665659930E+02  0.15798833581E+02  0.61376046660E+01  0.23079996416E+02  0.00000000000E+00 0.  1.
</event>
<event>
 7    1  0.5109948E-006  0.1020773E+03  0.7561462E-02  0.1275987E+00
          2   -1    0    0  501    0  0.00000000000E+00  0.00000000000E+00  0.25282433335E+02  0.25282433335E+02  0.00000000000E+00 0. -1.
         -2   -1    0    0    0  501 -0.00000000000E+00 -0.00000000000E+00 -0.49175228587E+03  0.49175228587E+03  0.00000000000E+00 0.  1.
         23    2    1    2    0    0 -0.34164918113E+02 -0.12306324741E+02 -0.27460846004E+03  0.30393308184E+03  0.12508726815E+03 0.  0.
          5    1    3    3  502    0  0.28573498718E+02  0.39308781936E+02 -0.96517952295E+02  0.10814255722E+03  0.41800000000E+01 0. -1.
         -5    1    3    3    0  502 -0.62738416831E+02 -0.51615106677E+02 -0.17809050775E+03  0.19579052463E+03  0.41800000000E+01 0. -1.
        -11    1    1    2    0    0 -0.88992551673E+01  0.27077364990E+02 -0.14496820453E+03  0.14774356420E+03  0.00000000000E+00 0.  1.
         11    1    1    2    0    0  0.43064173281E+02 -0.14771040249E+02 -0.46893187963E+02  0.65358073164E+02  0.00000000000E+00 0. -1.
</event>
<event>
 7    1  0.5109948E-006  0.7973574E+02  0.7561462E-02  0.1329803E+00
          2   -1    0    0  501    0  0.00000000000E+00  0.00000000000E+00  0.68272504103E+03  0.68272504103E+03  0.00000000000E+00 0. -1.
         -2   -1    0    0    0  501 -0.00000000000E+00 -0.00000000000E+00 -0.20504872562E+02  0.20504872562E+02  0.00000000000E+00 0.  1.
         23    2    1    2    0    0 -0.23575840803E+02  0.27010931513E+02  0.28125475338E+03  0.30989906470E+03  0.12509110005E+03 0.  0.
          5    1    3    3  502    0  0.17061722332E+02  0.20188225131E+02  0.26346796038E+03  0.26482353625E+03  0.41800000000E+01 0. -1.
         -5    1    3    3    0  502 -0.40637563136E+02  0.68227063818E+01  0.17786793001E+02  0.45075528452E+02  0.41800000000E+01 0. -1.
        -11    1    1    2    0    0 -0.11104692443E+02  0.25813918836E+02  0.60678745503E+02  0.66869894240E+02  0.00000000000E+00 0.  1.
         11    1    1    2    0    0  0.34680533246E+02 -0.52824850349E+02  0.32028666958E+03  0.32646095465E+03  0.00000000000E+00 0. -1.
</event>
<event>
 7    1  0.5109948E-006  0.1432625E+03  0.7561462E-02  0.1209005E+00
          1   -1    0    0  501    0  0.00000000000E+00  0.00000000000E+00  0.11541467024E+03  0.11541467024E+03  0.00000000000E+00 0. -1.
         -1   -1    0    0    0  501 -0.00000000000E+00 -0.00000000000E+00 -0.22221676263E+03  0.22221676263E+03  0.00000000000E+00 0.  1.
         23    2    1    2    0    0 -0.10079595967E+03 -0.15890529131E+02 -0.11820228195E+03  0.20009389479E+03  0.12511375973E+03 0.  0.
          5    1    3    3  502    0 -0.67227792863E+01  0.45562535558E+02 -0.18482783435E+02  0.49801868351E+02  0.41800000000E+01 0. -1.
         -5    1    3    3    0  502 -0.94073180388E+02 -0.61453064689E+02 -0.99719498514E+02  0.15029202644E+03  0.41800000000E+01 0. -1.
        -11    1    1    2    0    0 -0.13022140931E+02  0.19324798316E+01  0.18432881230E+02  0.22651307759E+02  0.00000000000E+00 0. -1.
         11    1    1    2    0    0  0.11381810061E+03  0.13958049299E+02 -0.70326916714E+01  0.11488623032E+03  0.00000000000E+00 0.  1.
</event>
<event>
 7    1  0.5109948E-006  0.7425543E+02  0.7561462E-02  0.1346192E+00
          3   -1    0    0  501    0  0.00000000000E+00  0.00000000000E+00  0.54242100783E+02  0.54242100783E+02  0.00000000000E+00 0. -1.
         -3   -1    0    0    0  501 -0.00000000000E+00 -0.00000000000E+00 -0.33540460275E+03  0.33540460275E+03  0.00000000000E+00 0.  1.
         23    2    1    2    0    0 -0.59342134364E+02  0.57613989261E+01 -0.24005563617E+03  0.27717998598E+03  0.12508938221E+03 0.  0.
          5    1    3    3  502    0 -0.19387313316E+02 -0.85575589930E+01 -0.23294317656E+03  0.23394250499E+03  0.41800000000E+01 0.  1.
         -5    1    3    3    0  502 -0.39954821047E+02  0.14318957919E+02 -0.71124596075E+01  0.43237480991E+02  0.41800000000E+01 0.  1.
        -11    1    1    2    0    0  0.66559887992E+02  0.96390073791E+01 -0.57767768398E+02  0.88658018354E+02  0.00000000000E+00 0.  1.
         11    1    1    2    0    0 -0.72177536286E+01 -0.15400406305E+02  0.16660902604E+02  0.23808699196E+02  0.00000000000E+00 0. -1.
</event>
<event>
 7    1  0.5109948E-006  0.1514874E+03  0.7561462E-02  0.1198657E+00
          2   -1    0    0  501    0  0.00000000000E+00  0.00000000000E+00  0.35442129845E+03  0.35442129845E+03  0.00000000000E+00 0. -1.
         -2   -1    0    0    0  501 -0.00000000000E+00 -0.00000000000E+00 -0.10101924378E+03  0.10101924378E+03  0.00000000000E+00 0.  1.
         23    2    1    2    0    0 -0.67614558404E+02 -0.10643525876E+03  0.24299728360E+02  0.17925706496E+03  0.12506968347E+03 0.  0.
          5    1    3    3  502    0  0.22287958269E+02 -0.79567297236E+02  0.20590457347E+02  0.85259293963E+02  0.41800000000E+01 0.  1.
         -5    1    3    3    0  502 -0.89902516673E+02 -0.26867961520E+02  0.37092710137E+01  0.93997770994E+02  0.41800000000E+01 0.  1.
        -11    1    1    2    0    0  0.15726074727E+02  0.19252091038E+02 -0.81953317620E+00  0.24872154516E+02  0.00000000000E+00 0.  1.
         11    1    1    2    0    0  0.51888483677E+02  0.87183167719E+02  0.22992185949E+03  0.25131132275E+03  0.00000000000E+00 0. -1.
</event>
<event>
 7    1  0.5109948E-006  0.1334515E+03  0.7561462E-02  0.1222422E+00
         -3   -1    0    0    0  501 -0.00000000000E+00  0.00000000000E+00  0.39970758436E+02  0.39970758436E+02  0.00000000000E+00 0.  1.
          3   -1    0    0  501    0  0.00000000000E+00 -0.00000000000E+00 -0.65162721049E+03  0.65162721049E+03  0.00000000000E+00 0. -1.
         23    2    1    2    0    0  0.25080590178E+02  0.93279191771E+02 -0.17466815456E+03  0.23555387849E+03  0.12508645743E+03 0.  0.
          5    1    3    3  502    0 -0.17176157779E+02  0.92571417353E+02 -0.56258807221E+02  0.10975888801E+03  0.41800000000E+01 0. -1.
         -5    1    3    3    0  502  0.42256747957E+02  0.70777441828E+00 -0.11840934734E+03  0.12579499048E+03  0.41800000000E+01 0. -1.
        -11    1    1    2    0    0  0.19902466607E+02  0.63380553621E+01 -0.81301700200E+02  0.83941917885E+02  0.00000000000E+00 0.  1.
         11    1    1    2    0    0 -0.44983056786E+02 -0.99617247133E+02 -0.35568659729E+03  0.37210217255E+03  0.00000000000E+00 0. -1.
</event>
<event>
 7    1  0.5109948E-006  0.1121066E+03  0.7561462E-02  0.1256718E+00
         -1   -1    0    0    0  501 -0.00000000000E+00  0.00000000000E+00  0.54570362816E+02  0.54570362816E+02  0.00000000000E+00 0.  1.
          1   -1    0    0  501    0  0.00000000000E+00 -0.00000000000E+00 -0.37218504581E+03  0.37218504581E+03  0.00000000000E+00 0. -1.
         23    2    1    2    0    0 -0.30530766540E+02 -0.82303215210E+02 -0.12899046021E+03  0.19995819490E+03  0.12505516360E+03 0.  0.
          5    1    3    3  502    0  0.99441484154E+01 -0.79467537093E+02 -0.13666131100E+03  0.15845428951E+03  0.41800000000E+01 0.  1.
         -5    1    3    3    0  502 -0.40474914956E+02 -0.28356781165E+01  0.76708507862E+01  0.41503905392E+02  0.41800000000E+01 0.  1.
        -11    1    1    2    0    0  0.45755773044E+02  0.51652291130E+02 -0.53243051607E+02  0.87157171193E+02  0.00000000000E+00 0.  1.
         11    1    1    2    0    0 -0.15225006504E+02  0.30650924079E+02 -0.13538117118E+03  0.13964004254E+03  0.00000000000E+00 0. -1.
</event>
<event>
 7    1  0.5109948E-006  0.8374053E+02  0.7561462E-02  0.1318759E+00
         -1   -1    0    0    0  501 -0.00000000000E+00  0.00000000000E+00  0.38936427062E+02  0.38936427062E+02  0.00000000000E+00 0. -1.
          1   -1    0    0  501    0  0.00000000000E+00 -0.00000000000E+00 -0.30310059954E+03  0.30310059954E+03  0.00000000000E+00 0.  1.
         23    2    1    2    0    0  0.63644228347E+01  0.86687325343E+01 -0.14283346500E+03  0.19017053296E+03  0.12509108714E+03 0.  0.
          5    1    3    3  502    0  0.19446810618E+02 -0.38774789028E+02 -0.13280368111E+03  0.13977107291E+03  0.41800000000E+01 0. -1.
         -5    1    3    3    0  502 -0.13082387784E+02  0.47443521562E+02 -0.10029783895E+02  0.50399460050E+02  0.41800000000E+01 0. -1.
        -11    1    1    2    0    0 -0.14227029817E+02 -0.39870828632E+02 -0.10981224301E+03  0.11768950704E+03  0.00000000000E+00 0.  1.
         11    1    1    2    0    0  0.78626069825E+01  0.31202096097E+02 -0.11518464471E+02  0.34176986602E+02  0.00000000000E+00 0. -1.
</event>
<event>
 7    1  0.5109948E-006  0.1445169E+03  0.7561462E-02  0.1207377E+00
         -3   -1    0    0    0  501 -0.00000000000E+00  0.00000000000E+00  0.24505762716E+03  0.24505762716E+03  0.00000000000E+00 0.  1.
          3   -1    0    0  501    0  0.00000000000E+00 -0.00000000000E+00 -0.87427978319E+02  0.87427978319E+02  0.00000000000E+00 0. -1.
         23    2    1    2    0    0 -0.66758228583E+02  0.70713573805E+02  0.74657851389E+02  0.17515580602E+03  0.12509472813E+03 0.  0.
          5    1    3    3  502    0 -0.97806568787E+02  0.26869196260E+02  0.32038267490E+02  0.10645187452E+03  0.41800000000E+01 0. -1.
         -5    1    3    3    0  502  0.31048340204E+02  0.43844377544E+02  0.42619583898E+02  0.68703931498E+02  0.41800000000E+01 0. -1.
        -11    1    1    2    0    0  0.83397506141E+02 -0.28297308877E+02  0.52806988178E+02  0.10268621972E+03  0.00000000000E+00 0.  1.
         11    1    1    2    0    0 -0.16639277558E+02 -0.42416264928E+02  0.30164809276E+02  0.54643579740E+02  0.00000000000E+00 0. -1.
</event>
<event>
 7    1  0.5109948E-006  0.8709849E+02  0.7561462E-02  0.1310034E+00
          2   -1    0    0  501    0  0.00000000000E+00  0.00000000000E+00  0.47374888700E+03  0.47374888700E+03  0.00000000000E+00 0. -1.
         -2   -1    0    0    0  501 -0.00000000000E+00 -0.00000000000E+00 -0.32902927162E+02  0.32902927162E+02  0.00000000000E+00 0.  1.
         23    2    1    2    0    0 -0.48020685155E+02 -0.32191755616E+01  0.16609216082E+03  0.21342573365E+03  0.12509032178E+03 0.  0.
          5    1    3    3  502    0 -0.59717354442E+02 -0.73930746470E+01  0.15517931950E+02  0.62282409927E+02  0.41800000000E+01 0. -1.
         -5    1    3    3    0  502  0.11696669287E+02  0.41738990854E+01  0.15057422887E+03  0.15114332372E+03  0.41800000000E+01 0. -1.
        -11    1    1    2    0    0  0.36769105862E+01 -0.39222068892E+02  0.82728965332E+02  0.91629537075E+02  0.00000000000E+00 0.  1.
         11    1    1    2    0    0  0.44343774569E+02  0.42441244453E+02  0.19202483368E+03  0.20159654343E+03  0.00000000000E+00 0. -1.
</event>
<event>
 7    1  0.5109948E-006  0.9902698E+02  0.7561462E-02  0.1282355E+00
         -2   -1    0    0    0  501 -0.00000000000E+00  0.00000000000E+00  0.25980249121E+02  0.25980249121E+02  0.00000000000E+00 0.  1.
          2   -1    0    0  501    0  0.00000000000E+00 -0.00000000000E+00 -0.56523479385E+03  0.56523479385E+03  0.00000000000E+00 0. -1.
         23    2    1    2    0    0 -0.38663301372E+01  0.47240762676E+02 -0.23005964441E+03  0.26612238686E+03  0.12508815546E+03 0.  0.
          5    1    3    3  502    0 -0.49706778880E+01 -0.27514577217E+02 -0.16353185915E+03  0.16595752756E+03  0.41800000000E+01 0. -1.
         -5    1    3    3    0  502  0.11043477508E+01  0.74755339893E+02 -0.66527785262E+02  0.10016485930E+03  0.41800000000E+01 0. -1.
        -11    1    1    2    0    0  0.42640182677E+02 -0.31691421071E+02 -0.11832899857E+03  0.12970845481E+03  0.00000000000E+00 0.  1.
         11    1    1    2    0    0 -0.38773852539E+02 -0.15549341605E+02 -0.19086590176E+03  0.19538420130E+03  0.00000000000E+00 0. -1.
</event>
<event>
 7    1  0.5109948E-006  0.1083690E+03  0.7561462E-02  0.1263620E+00
          1   -1    0    0  501    0  0.00000000000E+00  0.00000000000E+00  0.16490245415E+03  0.16490245415E+03  0.00000000000E+00 0. -1.
         -1   -1    0    0    0  501 -0.00000000000E+00 -0.00000000000E+00 -0.80579277262E+02  0.80579277262E+02  0.00000000000E+00 0.  1.
         23    2    1    2    0    0  0.31151229508E+01 -0.43175631501E+02  0.42844597347E+02  0.13911997591E+03  0.12507945087E+03 0.  0.
          5    1    3    3  502    0 -0.16710686898E+02  0.39802620085E+02 -0.41879095642E+00  0.43372150144E+02  0.41800000000E+01 0. -1.
         -5    1    3    3    0  502  0.19825809849E+02 -0.82978251585E+02  0.43263388303E+02  0.95747825771E+02  0.41800000000E+01 0. -1.
        -11    1    1    2    0    0 -0.32151941016E+01  0.65524147089E+02  0.79717706666E+01  0.66085554037E+02  0.00000000000E+00 0. -1.
         11    1    1    2    0    0  0.10007115078E+00 -0.22348515588E+02  0.33506808879E+02  0.40276201465E+02  0.00000000000E+00 0.  1.
</event>
<event>
 7    1  0.5109948E-006  0.3501056E+03  0.7561462E-02  0.1062572E+00
          1   -1    0    0  501    0  0.00000000000E+00  0.00000000000E+00  0.21861482619E+03  0.21861482619E+03  0.00000000000E+00 0. -1.
         -1   -1    0    0    0  501 -0.00000000000E+00 -0.00000000000E+00 -0.64373060015E+03  0.64373060015E+03  0.00000000000E+00 0.  1.
         23    2    1    2    0    0  0.48987983736E+01  0.34408630465E+03 -0.33228912623E+03  0.49445157686E+03  0.12508763000E+03 0.  0.
          5    1    3    3  502    0  0.38684546223E+01  0.25863408031E+03 -0.16581205990E+03  0.30727457436E+03  0.41800000000E+01 0.  1.
         -5    1    3    3    0  502  0.10303437513E+01  0.85452224346E+02 -0.16647706633E+03  0.18717700251E+03  0.41800000000E+01 0.  1.
        -11    1    1    2    0    0  0.35038680353E+02 -0.63377858446E+02 -0.21009265978E+02  0.75404584204E+02  0.00000000000E+00 0. -1.
         11    1    1    2    0    0 -0.39937478726E+02 -0.28070844621E+03 -0.71817381748E+02  0.29248926527E+03  0.00000000000E+00 0.  1.
</event>
<event>
 6    1  0.5109948E-006  0.1548297E+03  0.7561462E-02  0.1194661E+00
          3   -1    0    0  501    0  0.00000000000E+00  0.00000000000E+00  0.10565215617E+03  0.10565215617E+03  0.00000000000E+00 0. -1.
         -3   -1    0    0    0  501 -0.00000000000E+00 -0.00000000000E+00 -0.30511483631E+03  0.30511483631E+03  0.00000000000E+00 0.  1.
          5    1    1    2  502    0  0.12599100968E+00 -0.12728998156E+03 -0.91476484000E+02  0.15680616953E+03  0.41800000000E+01 0. -1.
         -5    1    1    2    0  502  0.18576883480E+02  0.83785639661E+02 -0.12496397591E+03  0.15165289871E+03  0.41800000000E+01 0.  1.
        -11    1    1    2    0    0  0.33614537181E+02  0.18913704329E+02 -0.79045584904E+01  0.39371910879E+02  0.00000000000E+00 0.  1.
         11    1    1    2    0    0 -0.52317411670E+02  0.24590637566E+02  0.24882338263E+02  0.62936013357E+02  0.00000000000E+00 0. -1.
</event>
<event>
 7    1  0.5109948E-006  0.7052513E+02  0.7561462E-02  0.1358316E+00
         -1   -1    0    0    0  501 -0.00000000000E+00  0.00000000000E+00  0.29846498814E+03  0.29846498814E+03  0.00000000000E+00 0.  1.
          1   -1    0    0  501    0  0.00000000000E+00 -0.00000000000E+00 -0.44393260285E+02  0.44393260285E+02  0.00000000000E+00 0. -1.
         23    2    1    2    0    0 -0.20414654010E+02  0.13240175130E+02  0.18893289000E+03  0.22789357538E+03  0.12509110455E+03 0.  0.
          5    1    3    3  502    0  0.14619867954E+02 -0.40541132889E+02  0.21118844060E+02  0.48174702587E+02  0.41800000000E+01 0. -1.
         -5    1    3    3    0  502 -0.35034521964E+02  0.53781308019E+02  0.16781404594E+03  0.17971887279E+03  0.41800000000E+01 0. -1.
        -11    1    1    2    0    0  0.17077840909E+02  0.25706530988E+01  0.86484729845E+02  0.88192229838E+02  0.00000000000E+00 0.  1.
         11    1    1    2    0    0  0.33368131011E+01 -0.15810828229E+02 -0.21345891987E+02  0.26772443215E+02  0.00000000000E+00 0. -1.
</event>
<event>
 6    1  0.5109948E-006  0.1518403E+03  0.7561462E-02  0.1198230E+00
         -1   -1    0    0    0  501 -0.00000000000E+00  0.00000000000E+00  0.56759606502E+02  0.56759606502E+02  0.00000000000E+00 0.  1.
          1   -1    0    0  501    0  0.00000000000E+00 -0.00000000000E+00 -0.48745735340E+03  0.48745735340E+03  0.00000000000E+00 0. -1.
          5    1    1    2  502    0  0.11771664587E+03 -0.31857651320E+02 -0.10013753584E+03  0.15785156682E+03  0.41800000000E+01 0. -1.
         -5    1    1    2    0  502 -0.79315835048E+02  0.12680341277E+01 -0.68146826763E+02  0.10466170263E+03  0.41800000000E+01 0.  1.
        -11    1    1    2    0    0 -0.53382896255E+01  0.58628265626E+02 -0.16034687476E+03  0.17081244425E+03  0.00000000000E+00 0. -1.
         11    1    1    2    0    0 -0.33062521201E+02 -0.28038648433E+02 -0.10206650954E+03  0.11089124620E+03  0.00000000000E+00 0.  1.
</event>
<event>
 7    1  0.5109948E-006  0.9511592E+02  0.7561462E-02  0.1290915E+00
         -1   -1    0    0    0  501 -0.00000000000E+00  0.00000000000E+00  0.21008917818E+03  0.21008917818E+03  0.00000000000E+00 0.  1.
          1   -1    0    0  501    0  0.00000000000E+00 -0.00000000000E+00 -0.58874166842E+02  0.58874166842E+02  0.00000000000E+00 0. -1.
         23    2    1    2    0    0  0.21273785638E+02 -0.50828310729E+01  0.10239974639E+03  0.16313451149E+03  0.12509497054E+03 0.  0.
          5    1    3    3  502    0  0.12693854154E+02  0.44178985544E+02  0.10309097077E+03  0.11295192496E+03  0.41800000000E+01 0.  1.
         -5    1    3    3    0  502  0.85799314836E+01 -0.49261816617E+02 -0.69122438318E+00  0.50182586539E+02  0.41800000000E+01 0.  1.
        -11    1    1    2    0    0 -0.14497412617E+02  0.48158068904E+02  0.26148857889E+02  0.56684542356E+02  0.00000000000E+00 0.  1.
         11    1    1    2    0    0 -0.67763730214E+01 -0.43075237832E+02  0.22666407061E+02  0.49144291170E+02  0.00000000000E+00 0. -1.
</event>
<event>
 7    1  0.5109948E-006  0.1639497E+03  0.7561462E-02  0.1184308E+00
         -1   -1    0    0    0  501 -0.00000000000E+00  0.00000000000E+00  0.51542784398E+02  0.51542784398E+02  0.00000000000E+00 0.  1.
          1   -1    0    0  501    0  0.00000000000E+00 -0.00000000000E+00 -0.66377605012E+03  0.66377605012E+03  0.00000000000E+00 0. -1.
         23    2    1    2    0    0 -0.19331603100E+02  0.15615609511E+03 -0.30141858892E+03  0.36229626068E+03  0.12508788045E+03 0.  0.
          5    1    3    3  502    0 -0.39090094804E+02  0.88208796700E+02 -0.67372543558E+02  0.11775126051E+03  0.41800000000E+01 0. -1.
         -5    1    3    3    0  502  0.19758491704E+02  0.67947298406E+02 -0.23404604536E+03  0.24454500016E+03  0.41800000000E+01 0. -1.
        -11    1    1    2    0    0  0.27744920676E+02 -0.13132658741E+03 -0.28997010658E+03  0.31952952273E+03  0.00000000000E+00 0. -1.
         11    1    1    2    0    0 -0.84133175763E+01 -0.24829507699E+02 -0.20844570216E+02  0.33493051110E+02  0.00000000000E+00 0.  1.
</event>
<event>
 7    1  0.5109948E-006  0.9845524E+02  0.7561462E-02  0.1283578E+00
          1   -1    0    0  501    0  0.00000000000E+00  0.00000000000E+00  0.11806331680E+03  0.11806331680E+03  0.00000000000E+00 0. -1.
         -1   -1    0    0    0  501 -0.00000000000E+00 -0.00000000000E+00 -0.18800892793E+03  0.18800892793E+03  0.00000000000E+00 0.  1.
         23    2    1    2    0    0  0.29987227549E+02 -0.88394998715E+02 -0.83065534188E+02  0.17680957684E+03  0.12509529919E+03 0.  0.
          5    1    3    3  502    0  0.22539372837E+02 -0.37115659965E+02 -0.10994678450E+03  0.11828509358E+03  0.41800000000E+01 0. -1.
         -5    1    3    3    0  502  0.74478547123E+01 -0.51279338750E+02  0.26881250309E+02  0.58524483258E+02  0.41800000000E+01 0. -1.
        -11    1    1    2    0    0 -0.31009849239E+02  0.30833529620E+02  0.45585230014E+02  0.63169062793E+02  0.00000000000E+00 0. -1.
         11    1    1    2    0    0  0.10226216901E+01  0.57561469095E+02 -0.32465306957E+02  0.66093605101E+02  0.00000000000E+00 0.  1.
</event>
<event>
 7    1  0.5109948E-006  0.9320343E+02  0.7561462E-02  0.1295274E+00
         -1   -1    0    0    0  501 -0.00000000000E+00  0.00000000000E+00  0.11986606139E+03  0.11986606139E+03  0.00000000000E+00 0. -1.
          1   -1    0    0  501    0  0.00000000000E+00 -0.00000000000E+00 -0.13589198495E+03  0.13589198495E+03  0.00000000000E+00 0.  1.
         23    2    1    2    0    0 -0.68096491513E+02 -0.13888745427E+02 -0.20615745833E+02  0.14457931474E+03  0.12509252523E+03 0.  0.
          5    1    3    3  502    0 -0.41337414485E+02  0.14293215472E+02 -0.69356040854E+02  0.82102439962E+02  0.41800000000E+01 0. -1.
         -5    1    3    3    0  502 -0.26759077029E+02 -0.28181960899E+02  0.48740295020E+02  0.62476874780E+02  0.41800000000E+01 0. -1.
        -11    1    1    2    0    0  0.43604495959E+01  0.35739784317E+02  0.21201679480E+02  0.41783452663E+02  0.00000000000E+00 0.  1.
         11    1    1    2    0    0  0.63736041918E+02 -0.21851038889E+02 -0.16611857207E+02  0.69395278944E+02  0.00000000000E+00 0. -1.
</event>
<event>
 7    1  0.5109948E-006  0.1445951E+03  0.7561462E-02  0.1207276E+00
         -3   -1    0    0    0  501 -0.00000000000E+00  0.00000000000E+00  0.85714106680E+03  0.85714106680E+03  0.00000000000E+00 0.  1.
          3   -1    0    0  501    0  0.00000000000E+00 -0.00000000000E+00 -0.28756418679E+02  0.28756418679E+02  0.00000000000E+00 0. -1.
         23    2    1    2    0    0  0.11031727339E+03 -0.12688458415E+02  0.48948955050E+03  0.51728044023E+03  0.12509250983E+03 0.  0.
          5    1    3    3  502    0  0.33600953430E+01 -0.52461079802E+02  0.17046792224E+03  0.17843833682E+03  0.41800000000E+01 0.  1.
         -5    1    3    3    0  502  0.10695717804E+03  0.39772621387E+02  0.31902162826E+03  0.33884210341E+03  0.41800000000E+01 0.  1.
        -11    1    1    2    0    0 -0.10151301784E+03 -0.59146186360E+01  0.33150397990E+03  0.34674884887E+03  0.00000000000E+00 0.  1.
         11    1    1    2    0    0 -0.88042555497E+01  0.18603077051E+02  0.73911177242E+01  0.21868196377E+02  0.00000000000E+00 0. -1.
</event>
<event>
 7    1  0.5109948E-006  0.1236545E+03  0.7561462E-02  0.1237187E+00
         -2   -1    0    0    0  501 -0.00000000000E+00  0.00000000000E+00  0.38686070727E+03  0.38686070727E+03  0.00000000000E+00 0.  1.
          2   -1    0    0  501    0  0.00000000000E+00 -0.00000000000E+00 -0.60131275428E+02  0.60131275428E+02  0.00000000000E+00 0. -1.
         23    2    1    2    0    0 -0.80221364307E+02 -0.64063451016E+02  0.20852546981E+03  0.26394964978E+03  0.12508778122E+03 0.  0.
          5    1    3    3  502    0 -0.68447173929E+02 -0.32475869154E+02  0.28984612279E+02  0.81223628613E+02  0.41800000000E+01 0.  1.
         -5    1    3    3    0  502 -0.11774190378E+02 -0.31587581862E+02  0.17954085753E+03  0.18272602116E+03  0.41800000000E+01 0.  1.
        -11    1    1    2    0    0 -0.89348678721E+01  0.45534627590E+02  0.56174390029E+02  0.72861486869E+02  0.00000000000E+00 0.  1.
         11    1    1    2    0    0  0.89156232179E+02  0.18528823426E+02  0.62029572001E+02  0.11018084605E+03  0.00000000000E+00 0. -1.
</event>
<event>
 7    1  0.5109948E-006  0.1310622E+03  0.7561462E-02  0.1225888E+00
          1   -1    0    0  501    0  0.00000000000E+00  0.00000000000E+00  0.18139428360E+02  0.18139428360E+02  0.00000000000E+00 0.  1.
         -1   -1    0    0    0  501 -0.00000000000E+00 -0.00000000000E+00 -0.13909986904E+04  0.13909986904E+04  0.00000000000E+00 0. -1.
         23    2    1    2    0    0 -0.10269403971E+03  0.45606279069E+02 -0.86196614412E+03  0.87821373902E+03  0.12509092422E+03 0.  0.
          5    1    3    3  502    0 -0.45285650934E+02  0.46160453333E+02 -0.74537895609E+03  0.74819037565E+03  0.41800000000E+01 0.  1.
         -5    1    3    3    0  502 -0.57408388776E+02 -0.55417426457E+00 -0.11658718803E+03  0.13002336337E+03  0.41800000000E+01 0.  1.
        -11    1    1    2    0    0  0.22694473159E+02 -0.54724662657E+02 -0.15262558382E+03  0.16372048329E+03  0.00000000000E+00 0.  1.
         11    1    1    2    0    0  0.79999566551E+02  0.91183835879E+01 -0.35826753412E+03  0.36720389645E+03  0.00000000000E+00 0. -1.
</event>
<event>
 7    1  0.5109948E-006  0.1131931E+03  0.7561462E-02  0.1254768E+00
         -2   -1    0    0    0  501 -0.00000000000E+00  0.00000000000E+00  0.13432895337E+03  0.13432895337E+03  0.00000000000E+00 0.  1.
          2   -1    0    0  501    0  0.00000000000E+00 -0.00000000000E+00 -0.19664079134E+03  0.19664079134E+03  0.00000000000E+00 0. -1.
         23    2    1    2    0    0  0.61685603190E+02  0.79516325948E+02  0.33979714925E+02  0.16410242586E+03  0.12508807062E+03 0.  0.
          5    1    3    3  502    0  0.71482686305E+02  0.47114105264E+02 -0.30645867350E+02  0.91028319450E+02  0.41800000000E+01 0. -1.
         -5    1    3    3    0  502 -0.97970831150E+01  0.32402220684E+02  0.64625582275E+02  0.73074106407E+02  0.41800000000E+01 0. -1.
        -11    1    1    2    0    0 -0.54632263340E+02 -0.43421773114E+02 -0.10772462748E+03  0.12835392454E+03  0.00000000000E+00 0. -1.
         11    1    1    2    0    0 -0.70533398495E+01 -0.36094552834E+02  0.11433074591E+02  0.38513394318E+02  0.00000000000E+00 0.  1.
</event>
<event>
 7    1  0.5109948E-006  0.7826091E+02  0.7561462E-02  0.1334060E+00
          1   -1    0    0  501    0  0.00000000000E+00  0.00000000000E+00  0.11951506060E+02  0.11951506060E+02  0.00000000000E+00 0. -1.
         -1   -1    0    0    0  501 -0.00000000000E+00 -0.00000000000E+00 -0.10442568424E+04  0.10442568424E+04  0.00000000000E+00 0.  1.
         23    2    1    2    0    0 -0.22916128227E+02 -0.16085578845E+02 -0.58330517164E+03  0.59722306954E+03  0.12508627721E+03 0.  0.
          5    1    3    3  502    0 -0.27597884924E+02  0.14124119033E+02 -0.30946588735E+02  0.44003383336E+02  0.41800000000E+01 0.  1.
         -5    1    3    3    0  502  0.46817566968E+01 -0.30209697878E+02 -0.55235858291E+03  0.55321968620E+03  0.41800000000E+01 0.  1.
        -11    1    1    2    0    0 -0.17444353891E+02  0.42640977180E+02 -0.18897964749E+03  0.19451443541E+03  0.00000000000E+00 0.  1.
         11    1    1    2    0    0  0.40360482118E+02 -0.26555398335E+02 -0.26002051717E+03  0.26447084347E+03  0.00000000000E+00 0. -1.
</event>
<event>
 7    1  0.5109948E-006  0.3950779E+03  0.7561462E-02  0.1045497E+00
         -2   -1    0    0    0  501 -0.00000000000E+00  0.00000000000E+00  0.86693224899E+03  0.86693224899E+03  0.00000000000E+00 0.  1.
          2   -1    0    0  501    0  0.00000000000E+00 -0.00000000000E+00 -0.25268158563E+03  0.25268158563E+03  0.00000000000E+00 0. -1.
         23    2    1    2    0    0 -0.12658385389E+03  0.36810415395E+03  0.59185641554E+03  0.71935038690E+03  0.12508725869E+03 0.  0.
          5    1    3    3  502    0 -0.85100763364E+02  0.18303783507E+03  0.20101496648E+03  0.28490257658E+03  0.41800000000E+01 0. -1.
         -5    1    3    3    0  502 -0.41483090527E+02  0.18506631888E+03  0.39084144906E+03  0.43444781032E+03  0.41800000000E+01 0. -1.
        -11    1    1    2    0    0  0.13292646402E+03 -0.27714554102E+03  0.48578506664E+01  0.30741290548E+03  0.00000000000E+00 0. -1.
         11    1    1    2    0    0 -0.63426101262E+01 -0.90958612936E+02  0.17536397160E+02  0.92850542248E+02  0.00000000000E+00 0.  1.
</event>
<event>
 7    1  0.5109948E-006  0.1791493E+03  0.7561462E-02  0.1168629E+00
          2   -1    0    0  501    0  0.00000000000E+00  0.00000000000E+00  0.14859810446E+03  0.14859810446E+03  0.00000000000E+00 0. -1.
         -2   -1    0    0    0  501 -0.00000000000E+00 -0.00000000000E+00 -0.28839822106E+03  0.28839822106E+03  0.00000000000E+00 0.  1.
         23    2    1    2    0    0  0.15445770993E+03  0.55205470114E+02 -0.12612242171E+02  0.20666775314E+03  0.12509062094E+03 0.  0.
          5    1    3    3  502    0  0.17688119249E+02  0.52668784544E+02  0.30065290404E+02  0.63310856217E+02  0.41800000000E+01 0. -1.
         -5    1    3    3    0  502  0.13676959068E+03  0.25366855702E+01 -0.42677532575E+02  0.14335689692E+03  0.41800000000E+01 0. -1.
        -11    1    1    2    0    0 -0.12298982101E+03 -0.33412285420E+02 -0.37556472008E+02  0.13286596810E+03  0.00000000000E+00 0. -1.
         11    1    1    2    0    0 -0.31467888914E+02 -0.21793184695E+02 -0.89631402419E+02  0.97462604272E+02  0.00000000000E+00 0.  1.
</event>
<event>
 7    1  0.5109948E-006  0.1135653E+03  0.7561462E-02  0.1254106E+00
         -1   -1    0    0    0  501 -0.00000000000E+00  0.00000000000E+00  0.22334921723E+03  0.22334921723E+03  0.00000000000E+00 0.  1.
          1   -1    0    0  501    0  0.00000000000E+00 -0.00000000000E+00 -0.96580939849E+02  0.96580939849E+02  0.00000000000E+00 0. -1.
         23    2    1    2    0    0  0.15652140295E+02 -0.97241896951E+02  0.10580423713E+03  0.19116082808E+03  0.12508776750E+03 0.  0.
          5    1    3    3  502    0 -0.15305294033E+02 -0.43654341764E+02  0.11900108011E+03  0.12774460085E+03  0.41800000000E+01 0.  1.
         -5    1    3    3    0  502  0.30957434329E+02 -0.53587555187E+02 -0.13196842974E+02  0.63416227226E+02  0.41800000000E+01 0.  1.
        -11    1    1    2    0    0  0.22958024675E+02  0.13988922858E+02  0.25272361895E+02  0.36897874403E+02  0.00000000000E+00 0.  1.
         11    1    1    2    0    0 -0.38610164970E+02  0.83252974093E+02 -0.43083216478E+01  0.91871454597E+02  0.00000000000E+00 0. -1.
</event>
<event>
 7    1  0.5109948E-006  0.1117134E+03  0.7561462E-02  0.1257429E+00
         -2   -1    0    0    0  501 -0.00000000000E+00  0.00000000000E+00  0.18236358765E+03  0.18236358765E+03  0.00000000000E+00 0.  1.
          2   -1    0    0  501    0  0.00000000000E+00 -0.00000000000E+00 -0.10520315776E+03  0.10520315776E+03  0.00000000000E+00 0. -1.
         23    2    1    2    0    0 -0.21100804404E+02 -0.83099436510E+02  0.40666469645E+02  0.15700927503E+03  0.12508952953E+03 0.  0.
          5    1    3    3  502    0 -0.33789619728E+02 -0.78496320011E+02  0.78813626553E+02  0.11632914848E+03  0.41800000000E+01 0. -1.
         -5    1    3    3    0  502  0.12688815324E+02 -0.46031164988E+01 -0.38147156908E+02  0.40680126548E+02  0.41800000000E+01 0. -1.
        -11    1    1    2    0    0  0.48696185007E+02  0.82892922883E+02  0.36851077457E+02  0.10295900644E+03  0.00000000000E+00 0.  1.
         11    1    1    2    0    0 -0.27595380603E+02  0.20651362699E+00 -0.35711721582E+00  0.27598463928E+02  0.00000000000E+00 0. -1.
</event>
<event>
 7    1  0.5109948E-006  0.1135640E+03  0.7561462E-02  0.1254109E+00
          2   -1    0    0  501    0  0.00000000000E+00  0.00000000000E+00  0.17808181793E+03  0.17808181793E+03  0.00000000000E+00 0. -1.
         -2   -1    0    0    0  501 -0.00000000000E+00 -0.00000000000E+00 -0.92363937934E+02  0.92363937934E+02  0.00000000000E+00 0.  1.
         23    2    1    2    0    0  0.13115964476E+02  0.56732729433E+02 -0.10846558289E+01  0.13176438545E+03  0.11819494778E+03 0.  0.
          5    1    3    3  502    0  0.51454809900E+02  0.62113049431E+02  0.25407053048E+02  0.84667698185E+02  0.41800000000E+01 0. -1.
         -5    1    3    3    0  502 -0.38338845424E+02 -0.53803199981E+01 -0.26491708877E+02  0.47096687261E+02  0.41800000000E+01 0.  1.
        -11    1    1    2    0    0 -0.47900060504E+02 -0.96135195389E+01  0.47561367269E+02  0.68182983293E+02  0.00000000000E+00 0. -1.
         11    1    1    2    0    0  0.34784096029E+02 -0.47119209894E+02  0.39241168556E+02  0.70498387125E+02  0.00000000000E+00 0.  1.
</event>
<event>
 7    1  0.5109948E-006  0.1531835E+03  0.7561462E-02  0.1196615E+00
         -1   -1    0    0    0  501 -0.00000000000E+00  0.00000000000E+00  0.22716324478E+02  0.22716324478E+02  0.00000000000E+00 0.  1.
          1   -1    0    0  501    0  0.00000000000E+00 -0.00000000000E+00 -0.12794384863E+04  0.12794384863E+04  0.00000000000E+00 0. -1.
         23    2    1    2    0    0  0.80457476330E+02  0.10234555110E+03 -0.60615196200E+03  0.63246780440E+03  0.12508918913E+03 0.  0.
          5    1    3    3  502    0 -0.39934607408E+01  0.84531879131E+02 -0.40111653920E+03  0.40996772645E+03  0.41800000000E+01 0. -1.
         -5    1    3    3    0  502  0.84450937071E+02  0.17813671973E+02 -0.20503542281E+03  0.22250007795E+03  0.41800000000E+01 0. -1.
        -11    1    1    2    0    0 -0.32730985883E+02 -0.15688540085E+02 -0.54615336441E+02  0.65576540785E+02  0.00000000000E+00 0.  1.
         11    1    1    2    0    0 -0.47726490448E+02 -0.86657011019E+02 -0.59595486336E+03  0.60411046557E+03  0.00000000000E+00 0. -1.
</event>
<event>
 7    1  0.5109948E-006  0.2850536E+03  0.7561462E-02  0.1092960E+00
         -1   -1    0    0    0  501 -0.00000000000E+00  0.00000000000E+00  0.13347767694E+04  0.13347767694E+04  0.00000000000E+00 0.  1.
          1   -1    0    0  501    0  0.00000000000E+00 -0.00000000000E+00 -0.62428150527E+02  0.62428150527E+02  0.00000000000E+00 0. -1.
         23    2    1    2    0    0 -0.22424896778E+03  0.14210018822E+03  0.72115047027E+03  0.77857898022E+03  0.12508862709E+03 0.  0.
          5    1    3    3  502    0 -0.23910297808E+03  0.12399083739E+03  0.65219231975E+03  0.70563181350E+03  0.41800000000E+01 0. -1.
         -5    1    3    3    0  502  0.14854010297E+02  0.18109350831E+02  0.68958150523E+02  0.72947166724E+02  0.41800000000E+01 0. -1.
        -11    1    1    2    0    0  0.70460643723E+02 -0.45361472128E+01  0.18929420893E+03  0.20203360235E+03  0.00000000000E+00 0. -1.
         11    1    1    2    0    0  0.15378832406E+03 -0.13756404101E+03  0.36190393972E+03  0.41659233740E+03  0.00000000000E+00 0.  1.
</event>
<event>
 6    1  0.5109948E-006  0.1070110E+03  0.7561462E-02  0.1266207E+00
          2   -1    0    0  501    0  0.00000000000E+00  0.00000000000E+00  0.30110744819E+02  0.30110744819E+02  0.00000000000E+00 0. -1.
         -2   -1    0    0    0  501 -0.00000000000E+00 -0.00000000000E+00 -0.46988909716E+03  0.46988909716E+03  0.00000000000E+00 0.  1.
          5    1    1    2  502    0 -0.33466870335E+02  0.64943276451E+02 -0.13494829478E+03  0.15351278523E+03  0.41800000000E+01 0. -1.
         -5    1    1    2    0  502  0.22987413228E+02 -0.46399323964E+02 -0.20023656278E+03  0.20686583069E+03  0.41800000000E+01 0.  1.
        -11    1    1    2    0    0  0.28673366177E+02  0.27287666105E+02 -0.66179982730E+02  0.77113998493E+02  0.00000000000E+00 0. -1.
         11    1    1    2    0    0 -0.18193909070E+02 -0.45831618592E+02 -0.38413512050E+02  0.62507227566E+02  0.00000000000E+00 0.  1.
</event>
<event>
 7    1  0.5109948E-006  0.9306879E+02  0.7561462E-02  0.1295586E+00
         -1   -1    0    0    0  501 -0.00000000000E+00  0.00000000000E+00  0.12796559727E+04  0.12796559727E+04  0.00000000000E+00 0.  1.
          1   -1    0    0  501    0  0.00000000000E+00 -0.00000000000E+00 -0.11857318577E+02  0.11857318577E+02  0.00000000000E+00 0. -1.
         23    2    1    2    0    0  0.48749236701E+02 -0.22842989470E+02  0.83158341553E+03  0.84266018825E+03  0.12508767175E+03 0.  0.
          5    1    3    3  502    0  0.50165032280E+02 -0.39086710767E+02  0.81941538349E+03  0.82189010490E+03  0.41800000000E+01 0. -1.
         -5    1    3    3    0  502 -0.14157955784E+01  0.16243721297E+02  0.12168032038E+02  0.20770083350E+02  0.41800000000E+01 0. -1.
        -11    1    1    2    0    0 -0.75145687781E+02  0.24726891934E+02  0.33808387332E+03  0.34721606958E+03  0.00000000000E+00 0.  1.
         11    1    1    2    0    0  0.26396451080E+02 -0.18839024642E+01  0.98131365317E+02  0.10163703349E+03  0.00000000000E+00 0. -1.
</event>
<event>
 7    1  0.5109948E-006  0.1015849E+03  0.7561462E-02  0.1276998E+00
          3   -1    0    0  501    0  0.00000000000E+00  0.00000000000E+00  0.26694681153E+02  0.26694681153E+02  0.00000000000E+00 0. -1.
         -3   -1    0    0    0  501 -0.00000000000E+00 -0.00000000000E+00 -0.44338396704E+03  0.44338396704E+03  0.00000000000E+00 0.  1.
         23    2    1    2    0    0 -0.84670512449E+01 -0.65686283486E+01 -0.28263770773E+03  0.30926694411E+03  0.12508849288E+03 0.  0.
          5    1    3    3  502    0  0.50925805647E+01  0.54357875588E+02 -0.18808543568E+03  0.19589363575E+03  0.41800000000E+01 0. -1.
         -5    1    3    3    0  502 -0.13559631810E+02 -0.60926503936E+02 -0.94552272056E+02  0.11337330836E+03  0.41800000000E+01 0. -1.
        -11    1    1    2    0    0  0.45363712133E+02  0.15421333508E+02 -0.53802892863E+02  0.72044674932E+02  0.00000000000E+00 0. -1.
         11    1    1    2    0    0 -0.36896660888E+02 -0.88527051598E+01 -0.80248685288E+02  0.88767029148E+02  0.00000000000E+00 0.  1.
</event>
<event>
 7    1  0.5109948E-006  0.2479781E+03  0.7561462E-02  0.1114589E+00
          1   -1    0    0  501    0  0.00000000000E+00  0.00000000000E+00  0.19196755005E+03  0.19196755005E+03  0.00000000000E+00 0. -1.
         -1   -1    0    0    0  501 -0.00000000000E+00 -0.00000000000E+00 -0.36341156279E+03  0.36341156279E+03  0.00000000000E+00 0.  1.
         23    2    1    2    0    0 -0.15301859241E+03 -0.17676004609E+03 -0.14457091216E+03  0.30200209640E+03  0.12508282885E+03 0.  0.
          5    1    3    3  502    0 -0.12160955540E+03 -0.60555687618E+02 -0.11484764695E+03  0.17794192782E+03  0.41800000000E+01 0. -1.
         -5    1    3    3    0  502 -0.31409037014E+02 -0.11620435847E+03 -0.29723265206E+02  0.12406016858E+03  0.41800000000E+01 0. -1.
        -11    1    1    2    0    0  0.51956493024E+02  0.99973575602E+02  0.26409917619E+02  0.11572241241E+03  0.00000000000E+00 0. -1.
         11    1    1    2    0    0  0.10106209939E+03  0.76786470483E+02 -0.53283018208E+02  0.13765460403E+03  0.00000000000E+00 0.  1.
</event>
<event>
 7    1  0.5109948E-006  0.1293020E+03  0.7561462E-02  0.1228495E+00
         -1   -1    0    0    0  501 -0.00000000000E+00  0.00000000000E+00  0.11552623309E+03  0.11552623309E+03  0.00000000000E+00 0.  1.
          1   -1    0    0  501    0  0.00000000000E+00 -0.00000000000E+00 -0.21929703963E+03  0.21929703963E+03  0.00000000000E+00 0. -1.
         23    2    1    2    0    0 -0.10831333374E+03 -0.40598224874E+02 -0.49683548285E+02  0.17746752316E+03  0.12508506176E+03 0.  0.
          5    1    3    3  502    0 -0.31202482774E+02  0.18971433672E+02  0.33159142416E+02  0.49502639855E+02  0.41800000000E+01 0. -1.
         -5    1    3    3    0  502 -0.77110850967E+02 -0.59569658546E+02 -0.82842690701E+02  0.12796488330E+03  0.41800000000E+01 0. -1.
        -11    1    1    2    0    0  0.84000629002E+02  0.90471691209E+01  0.66223816564E+01  0.84745577352E+02  0.00000000000E+00 0.  1.
         11    1    1    2    0    0  0.24312704739E+02  0.31551055753E+02 -0.60709639914E+02  0.72610172217E+02  0.00000000000E+00 0. -1.
</event>
<event>
 7    1  0.9691747E-006  0.3396344E+03  0.7561462E-02  0.1066952E+00
          2   -1    0    0  501    0  0.00000000000E+00  0.00000000000E+00  0.10629065835E+04  0.10629065835E+04  0.00000000000E+00 0. -1.
         -2   -1    0    0    0  501 -0.00000000000E+00 -0.00000000000E+00 -0.11026092889E+03  0.11026092889E+03  0.00000000000E+00 0.  1.
         23    2    1    2    0    0  0.57458208033E+02 -0.31956548825E+03  0.46714063636E+03  0.58248712888E+03  0.12508930498E+03 0.  0.
          5    1    3    3  502    0  0.93791079547E+02 -0.19910347991E+03  0.32598654512E+03  0.39334928793E+03  0.41800000000E+01 0.  1.
         -5    1    3    3    0  502 -0.36332871514E+02 -0.12046200834E+03  0.14115409124E+03  0.18913784095E+03  0.41800000000E+01 0.  1.
        -11    1    1    2    0    0  0.36301701089E+01  0.18968365211E+03  0.31592448721E+03  0.36851234394E+03  0.00000000000E+00 0. -1.
         11    1    1    2    0    0 -0.61088378142E+02  0.12988183614E+03  0.16958053108E+03  0.22216803961E+03  0.00000000000E+00 0.  1.
</event>
<event>
 7    1  0.5109948E-006  0.1220161E+03  0.7561462E-02  0.1239808E+00
          2   -1    0    0  501    0  0.00000000000E+00  0.00000000000E+00  0.97601628186E+02  0.97601628186E+02  0.00000000000E+00 0. -1.
         -2   -1    0    0    0  501 -0.00000000000E+00 -0.00000000000E+00 -0.24583301362E+03  0.24583301362E+03  0.00000000000E+00 0.  1.
         23    2    1    2    0    0 -0.10533491571E+03  0.31330988051E+02 -0.92591713430E+02  0.19051725353E+03  0.12508606324E+03 0.  0.
          5    1    3    3  502    0 -0.55269030898E+02 -0.75501869118E+01 -0.11106597630E+03  0.12435752728E+03  0.41800000000E+01 0. -1.
         -5    1    3    3    0  502 -0.50065884812E+02  0.38881174963E+02  0.18474262874E+02  0.66159726248E+02  0.41800000000E+01 0. -1.
        -11    1    1    2    0    0  0.83423387261E+00  0.11570952211E+02 -0.36555605767E+02  0.38352251489E+02  0.00000000000E+00 0.  1.
         11    1    1    2    0    0  0.10450068184E+03 -0.42901940262E+02 -0.19084066231E+02  0.11456513679E+03  0.00000000000E+00 0. -1.
</event>
<event>
 7    1  0.5109948E-006  0.1740403E+03  0.7561462E-02  0.1173699E+00
          2   -1    0    0  501    0  0.00000000000E+00  0.00000000000E+00  0.64044496197E+02  0.64044496197E+02  0.00000000000E+00 0.  1.
         -2   -1    0    0    0  501 -0.00000000000E+00 -0.00000000000E+00 -0.52142232687E+03  0.52142232687E+03  0.00000000000E+00 0. -1.
         23    2    1    2    0    0  0.89344043478E+01 -0.13876329655E+03 -0.32076251527E+03  0.37130970870E+03  0.12508889848E+03 0.  0.
          5    1    3    3  502    0  0.63613615926E+02 -0.55443285157E+02 -0.17939476604E+03  0.19829423714E+03  0.41800000000E+01 0. -1.
         -5    1    3    3    0  502 -0.54679211578E+02 -0.83320011389E+02 -0.14136774923E+03  0.17301547156E+03  0.41800000000E+01 0. -1.
        -11    1    1    2    0    0  0.38591985005E+02  0.50015369872E+02 -0.40981050196E+02  0.75301560443E+02  0.00000000000E+00 0. -1.
         11    1    1    2    0    0 -0.47526389353E+02  0.88747926675E+02 -0.95634265204E+02  0.13885555392E+03  0.00000000000E+00 0.  1.
</event>
<event>
 7    1  0.5109948E-006  0.1310961E+03  0.7561462E-02  0.1225838E+00
          2   -1    0    0  501    0  0.00000000000E+00  0.00000000000E+00  0.10132469615E+03  0.10132469615E+03  0.00000000000E+00 0. -1.
         -2   -1    0    0    0  501 -0.00000000000E+00 -0.00000000000E+00 -0.20291730892E+03  0.20291730892E+03  0.00000000000E+00 0.  1.
         23    2    1    2    0    0  0.14846929560E+02  0.88677217910E+02 -0.65701895810E+02  0.16746789031E+03  0.12507867475E+03 0.  0.
          5    1    3    3  502    0  0.32773060942E+02 -0.18313614405E+02  0.47147652449E+01  0.38067878945E+02  0.41800000000E+01 0. -1.
         -5    1    3    3    0  502 -0.17926131382E+02  0.10699083231E+03 -0.70416661055E+02  0.12940001136E+03  0.41800000000E+01 0. -1.
        -11    1    1    2    0    0  0.29387025337E+02 -0.44584554075E+02  0.15816171851E+02  0.55691390827E+02  0.00000000000E+00 0. -1.
         11    1    1    2    0    0 -0.44233954897E+02 -0.44092663835E+02 -0.51706888815E+02  0.81082723935E+02  0.00000000000E+00 0.  1.
</event>
<event>
 7    1  0.5109948E-006  0.3287283E+03  0.7561462E-02  0.1071701E+00
         -1   -1    0    0    0  501 -0.00000000000E+00  0.00000000000E+00  0.54237501054E+03  0.54237501054E+03  0.00000000000E+00 0.  1.
          1   -1    0    0  501    0  0.00000000000E+00 -0.00000000000E+00 -0.24382649631E+03  0.24382649631E+03  0.00000000000E+00 0. -1.
         23    2    1    2    0    0 -0.20107788312E+03  0.23908809090E+03  0.31398758229E+03  0.46025438330E+03  0.12510181945E+03 0.  0.
          5    1    3    3  502    0 -0.68977239401E+02  0.12919012316E+02  0.38698722504E+02  0.80248513744E+02  0.41800000000E+01 0.  1.
         -5    1    3    3    0  502 -0.13210064372E+03  0.22616907858E+03  0.27528885978E+03  0.38000586956E+03  0.41800000000E+01 0.  1.
        -11    1    1    2    0    0  0.18426189365E+03 -0.15904105792E+03 -0.18388737641E+02  0.24409967068E+03  0.00000000000E+00 0.  1.
         11    1    1    2    0    0  0.16815989471E+02 -0.80047032980E+02  0.29496695891E+01  0.81847452872E+02  0.00000000000E+00 0. -1.
</event>
<event>
 7    1  0.5109948E-006  0.7123090E+02  0.7561462E-02  0.1355957E+00
         -1   -1    0    0    0  501 -0.00000000000E+00  0.00000000000E+00  0.34040947292E+02  0.34040947292E+02  0.00000000000E+00 0.  1.
          1   -1    0    0  501    0  0.00000000000E+00 -0.00000000000E+00 -0.34423167654E+03  0.34423167654E+03  0.00000000000E+00 0. -1.
         23    2    1    2    0    0 -0.17497932039E+01 -0.32530274836E+01 -0.16735603201E+03  0.20897381518E+03  0.12509344513E+03 0.  0.
          5    1    3    3  502    0  0.37829879114E+02  0.97838686500E+01 -0.16206374740E+03  0.16676017049E+03  0.41800000000E+01 0.  1.
         -5    1    3    3    0  502 -0.39579672318E+02 -0.13036896134E+02 -0.52922846138E+01  0.42213644690E+02  0.41800000000E+01 0.  1.
        -11    1    1    2    0    0 -0.23151561058E+02  0.20556438427E+02 -0.13426451689E+03  0.13778796186E+03  0.00000000000E+00 0. -1.
         11    1    1    2    0    0  0.24901354262E+02 -0.17303410944E+02 -0.85701803523E+01  0.31510846793E+02  0.00000000000E+00 0.  1.
</event>
<event>
 7    1  0.5109948E-006  0.9247131E+02  0.7561462E-02  0.1296975E+00
          1   -1    0    0  501    0  0.00000000000E+00  0.00000000000E+00  0.10012849318E+03  0.10012849318E+03  0.00000000000E+00 0. -1.
         -1   -1    0    0    0  501 -0.00000000000E+00 -0.00000000000E+00 -0.18200071694E+03  0.18200071694E+03  0.00000000000E+00 0.  1.
         23    2    1    2    0    0  0.77468839066E+02  0.18869928387E+02 -0.55277379605E+02  0.15833928537E+03  0.12513291083E+03 0.  0.
          5    1    3    3  502    0  0.15979752855E+02  0.11104998248E+02 -0.86538901649E+02  0.88798239769E+02  0.41800000000E+01 0. -1.
         -5    1    3    3    0  502  0.61489086211E+02  0.77649301389E+01  0.31261522044E+02  0.69541045604E+02  0.41800000000E+01 0. -1.
        -11    1    1    2    0    0 -0.87653017471E+01 -0.31822092662E+02 -0.40767190144E+02  0.52454169408E+02  0.00000000000E+00 0.  1.
         11    1    1    2    0    0 -0.68703537319E+02  0.12952164275E+02  0.14172345990E+02  0.71335755344E+02  0.00000000000E+00 0. -1.
</event>
<event>
 7    1  0.5109948E-006  0.1466564E+03  0.7561462E-02  0.1204643E+00
         -2   -1    0    0    0  501 -0.00000000000E+00  0.00000000000E+00  0.28013979363E+02  0.28013979363E+02  0.00000000000E+00 0.  1.
          2   -1    0    0  501    0  0.00000000000E+00 -0.00000000000E+00 -0.11094657420E+04  0.11094657420E+04  0.00000000000E+00 0. -1.
         23    2    1    2    0    0 -0.98786287648E+02  0.94318765010E+02 -0.64520164103E+03  0.67125790494E+03  0.12508899749E+03 0.  0.
          5    1    3    3  502    0 -0.19204161499E+02  0.56167130161E+01 -0.63954589298E+01  0.21417786509E+02  0.41800000000E+01 0.  1.
         -5    1    3    3    0  502 -0.79582126149E+02  0.88702051994E+02 -0.63880618210E+03  0.64984011843E+03  0.41800000000E+01 0.  1.
        -11    1    1    2    0    0  0.15753644182E+00 -0.41967537002E+02 -0.56410155511E+02  0.70309349482E+02  0.00000000000E+00 0.  1.
         11    1    1    2    0    0  0.98628751206E+02 -0.52351228007E+02 -0.37983996613E+03  0.39591246698E+03  0.00000000000E+00 0. -1.
</event>
<event>
 7    1  0.5109948E-006  0.8273350E+02  0.7561462E-02  0.1321468E+00
         -1   -1    0    0    0  501 -0.00000000000E+00  0.00000000000E+00  0.23967429146E+02  0.23967429146E+02  0.00000000000E+00 0.  1.
          1   -1    0    0  501    0  0.00000000000E+00 -0.00000000000E+00 -0.60387920280E+03  0.60387920280E+03  0.00000000000E+00 0. -1.
         23    2    1    2    0    0  0.23213430190E+02  0.68609718465E+01 -0.16524172473E+03  0.20255898459E+03  0.11462712755E+03 0.  0.
          5    1    3    3  502    0 -0.15225860449E+02  0.25293406508E+02 -0.15588929114E+03  0.15871523787E+03  0.41800000000E+01 0. -1.
         -5    1    3    3    0  502  0.38439290639E+02 -0.18432434662E+02 -0.93524335915E+01  0.43843746720E+02  0.41800000000E+01 0.  1.
        -11    1    1    2    0    0 -0.48964273488E+02  0.22393323911E+02 -0.20067071881E+03  0.20776837685E+03  0.00000000000E+00 0. -1.
         11    1    1    2    0    0  0.25750843298E+02 -0.29254295758E+02 -0.21399933011E+03  0.21751927050E+03  0.00000000000E+00 0.  1.
</event>
<event>
 6    1  0.5109948E-006  0.1191784E+03  0.7561462E-02  0.1244459E+00
         -2   -1    0    0    0  501 -0.00000000000E+00  0.00000000000E+00  0.84333638220E+02  0.84333638220E+02  0.00000000000E+00 0. -1.
          2   -1    0    0  501    0  0.00000000000E+00 -0.00000000000E+00 -0.24215814424E+03  0.24215814424E+03  0.00000000000E+00 0.  1.
          5    1    1    2  502    0  0.65420845368E+02 -0.51834262566E+02 -0.11956946437E+03  0.14588011171E+03  0.41800000000E+01 0.  1.
         -5    1    1    2    0  502 -0.36694092809E+02  0.82079824643E+02  0.15524515393E+02  0.91334752634E+02  0.41800000000E+01 0. -1.
        -11    1    1    2    0    0 -0.16201608420E+02 -0.43574756992E+02 -0.53644501917E+02  0.70985802441E+02  0.00000000000E+00 0.  1.
         11    1    1    2    0    0 -0.12525144138E+02  0.13329194915E+02 -0.13505513177E+00  0.18291115676E+02  0.00000000000E+00 0. -1.
</event>
<event>
 7    1  0.5109948E-006  0.1735582E+03  0.7561462E-02  0.1174187E+00
         -1   -1    0    0    0  501 -0.00000000000E+00  0.00000000000E+00  0.47289258843E+02  0.47289258843E+02  0.00000000000E+00 0.  1.
          1   -1    0    0  501    0  0.00000000000E+00 -0.00000000000E+00 -0.99816587135E+03  0.99816587135E+03  0.00000000000E+00 0. -1.
         23    2    1    2    0    0 -0.54037362008E+01 -0.17134058920E+03 -0.30882412398E+03  0.37471098680E+03  0.12509670741E+03 0.  0.
          5    1    3    3  502    0 -0.16117041637E+02 -0.42707854105E+02 -0.69380890030E+01  0.46360859702E+02  0.41800000000E+01 0. -1.
         -5    1    3    3    0  502  0.10713305436E+02 -0.12863273510E+03 -0.30188603498E+03  0.32835012710E+03  0.41800000000E+01 0. -1.
        -11    1    1    2    0    0 -0.49248239705E+01  0.90547318513E+02 -0.17982762597E+03  0.20139773048E+03  0.00000000000E+00 0.  1.
         11    1    1    2    0    0  0.10328560171E+02  0.80793270691E+02 -0.46222486256E+03  0.46934641291E+03  0.00000000000E+00 0. -1.
</event>
<event>
 7    1  0.5109948E-006  0.1295135E+03  0.7561462E-02  0.1228179E+00
          1   -1    0    0  501    0  0.00000000000E+00  0.00000000000E+00  0.78390568214E+03  0.78390568214E+03  0.00000000000E+00 0. -1.
         -1   -1    0    0    0  501 -0.00000000000E+00 -0.00000000000E+00 -0.21751446260E+02  0.21751446260E+02  0.00000000000E+00 0.  1.
         23    2    1    2    0    0 -0.19671263966E+02 -0.69336934234E+02  0.43094286640E+03  0.45448215825E+03  0.12509080297E+03 0.  0.
          5    1    3    3  502    0 -0.71705644156E+02 -0.27738761651E+02  0.20968522076E+03  0.22337525044E+03  0.41800000000E+01 0.  1.
         -5    1    3    3    0  502  0.52034380191E+02 -0.41598172583E+02  0.22125764564E+03  0.23110690781E+03  0.41800000000E+01 0.  1.
        -11    1    1    2    0    0  0.55578021780E+02  0.35540074423E+02  0.21613757382E+03  0.22598111472E+03  0.00000000000E+00 0. -1.
         11    1    1    2    0    0 -0.35906757814E+02  0.33796859811E+02  0.11507379566E+03  0.12519385543E+03  0.00000000000E+00 0.  1.
</event>
<event>
 7    1  0.5109948E-006  0.1393354E+03  0.7561462E-02  0.1214226E+00
         -1   -1    0    0    0  501 -0.00000000000E+00  0.00000000000E+00  0.58632656180E+02  0.58632656180E+02  0.00000000000E+00 0.  1.
          1   -1    0    0  501    0  0.00000000000E+00 -0.00000000000E+00 -0.41429745355E+03  0.41429745355E+03  0.00000000000E+00 0. -1.
         23    2    1    2    0    0 -0.72016282564E+02 -0.74022459972E+02 -0.25395471968E+03  0.30134048932E+03  0.12508965315E+03 0.  0.
          5    1    3    3  502    0 -0.93937530107E+02 -0.72120904042E+02 -0.13218246593E+03  0.17752566311E+03  0.41800000000E+01 0.  1.
         -5    1    3    3    0  502  0.21921247544E+02 -0.19015559308E+01 -0.12177225374E+03  0.12381482621E+03  0.41800000000E+01 0.  1.
        -11    1    1    2    0    0 -0.34944932590E+01  0.61053473767E+02 -0.38493825065E+02  0.72260035360E+02  0.00000000000E+00 0.  1.
         11    1    1    2    0    0  0.75510775823E+02  0.12968986205E+02 -0.63216252627E+02  0.99329585043E+02  0.00000000000E+00 0. -1.
</event>
<event>
 7    1  0.5109948E-006  0.7784523E+02  0.7561462E-02  0.1335280E+00
         -1   -1    0    0    0  501 -0.00000000000E+00  0.00000000000E+00  0.40450078074E+02  0.40450078074E+02  0.00000000000E+00 0.  1.
          1   -1    0    0  501    0  0.00000000000E+00 -0.00000000000E+00 -0.30930816163E+03  0.30930816163E+03  0.00000000000E+00 0. -1.
         23    2    1    2    0    0  0.34986722082E+02  0.13832930193E+02 -0.12161715733E+03  0.17847714209E+03  0.12509171280E+03 0.  0.
          5    1    3    3  502    0  0.10588995073E+02 -0.29157689471E+02 -0.12489858497E+03  0.12876112224E+03  0.41800000000E+01 0. -1.
         -5    1    3    3    0  502  0.24397727009E+02  0.42990619664E+02  0.32814276430E+01  0.49716019849E+02  0.41800000000E+01 0. -1.
        -11    1    1    2    0    0  0.16586453118E+02  0.84330118301E+01 -0.86777335286E+02  0.88749828365E+02  0.00000000000E+00 0. -1.
         11    1    1    2    0    0 -0.51573175201E+02 -0.22265942023E+02 -0.60463590937E+02  0.82531269246E+02  0.00000000000E+00 0.  1.
</event>
<event>
 7    1  0.5109948E-006  0.1001895E+03  0.7561462E-02  0.1279898E+00
         -2   -1    0    0    0  501 -0.00000000000E+00  0.00000000000E+00  0.42314338403E+02  0.42314338403E+02  0.00000000000E+00 0.  1.
          2   -1    0    0  501    0  0.00000000000E+00 -0.00000000000E+00 -0.33639448454E+03  0.33639448454E+03  0.00000000000E+00 0. -1.
         23    2    1    2    0    0  0.21453060029E+02  0.43453826421E+02 -0.16773435377E+03  0.21478352514E+03  0.12509468582E+03 0.  0.
          5    1    3    3  502    0  0.20409569823E+02  0.86232253270E+02 -0.92737599166E+02  0.12833661498E+03  0.41800000000E+01 0. -1.
         -5    1    3    3    0  502  0.10434902063E+01 -0.42778426848E+02 -0.74996754601E+02  0.86446910160E+02  0.41800000000E+01 0. -1.
        -11    1    1    2    0    0 -0.14379402340E+02 -0.54050404428E+02 -0.13657672618E+03  0.14758528235E+03  0.00000000000E+00 0.  1.
         11    1    1    2    0    0 -0.70736576891E+01  0.10596578007E+02  0.10230933813E+02  0.16340015460E+02  0.00000000000E+00 0. -1.
</event>
<event>
 7    1  0.5109948E-006  0.1065891E+03  0.7561462E-02  0.1267020E+00
          1   -1    0    0  501    0  0.00000000000E+00  0.00000000000E+00  0.48288231369E+02  0.48288231369E+02  0.00000000000E+00 0. -1.
         -1   -1    0    0    0  501 -0.00000000000E+00 -0.00000000000E+00 -0.26803501574E+03  0.26803501574E+03  0.00000000000E+00 0.  1.
         23    2    1    2    0    0  0.24055733164E+02  0.14879561778E+02 -0.17449115229E+03  0.21654942551E+03  0.12508561788E+03 0.  0.
          5    1    3    3  502    0 -0.42682999527E+02  0.37027818710E+02 -0.63620790380E+02  0.85193750801E+02  0.41800000000E+01 0.  1.
         -5    1    3    3    0  502  0.66738732690E+02 -0.22148256933E+02 -0.11087036192E+03  0.13135567471E+03  0.41800000000E+01 0.  1.
        -11    1    1    2    0    0 -0.20214567654E+01 -0.47044371958E+02 -0.37086639227E+02  0.59938952523E+02  0.00000000000E+00 0.  1.
         11    1    1    2    0    0 -0.22034276398E+02  0.32164810181E+02 -0.81689928507E+01  0.39834869079E+02  0.00000000000E+00 0. -1.
</event>
<event>
 7    1  0.5109948E-006  0.1474953E+03  0.7561462E-02  0.1203585E+00
          1   -1    0    0  501    0  0.00000000000E+00  0.00000000000E+00  0.49951674992E+03  0.49951674992E+03  0.00000000000E+00 0. -1.
         -1   -1    0    0    0  501 -0.00000000000E+00 -0.00000000000E+00 -0.49879129917E+02  0.49879129917E+02  0.00000000000E+00 0.  1.
         23    2    1    2    0    0 -0.69833890337E+02  0.71376917684E+02  0.19020355782E+03  0.24858684832E+03  0.12508633472E+03 0.  0.
          5    1    3    3  502    0 -0.10391005743E+03  0.61768708553E+02  0.16641462362E+03  0.20572790950E+03  0.41800000000E+01 0.  1.
         -5    1    3    3    0  502  0.34076167096E+02  0.96082091311E+01  0.23788934199E+02  0.42858938822E+02  0.41800000000E+01 0.  1.
        -11    1    1    2    0    0  0.41404972587E+02  0.17589625966E+02  0.32770330774E+02  0.55656637300E+02  0.00000000000E+00 0.  1.
         11    1    1    2    0    0  0.28428917750E+02 -0.88966543650E+02  0.22666373141E+03  0.24515239422E+03  0.00000000000E+00 0. -1.
</event>
<event>
 7    1  0.5109948E-006  0.3519443E+03  0.7561462E-02  0.1061820E+00
         -3   -1    0    0    0  501 -0.00000000000E+00  0.00000000000E+00  0.12135225997E+03  0.12135225997E+03  0.00000000000E+00 0.  1.
          3   -1    0    0  501    0  0.00000000000E+00 -0.00000000000E+00 -0.12553056652E+04  0.12553056652E+04  0.00000000000E+00 0. -1.
         23    2    1    2    0    0  0.28973238435E+03 -0.19414446631E+03 -0.33260903257E+03  0.49790937106E+03  0.12509214564E+03 0.  0.
          5    1    3    3  502    0  0.12555962068E+03 -0.99311066631E+02 -0.71946692775E+02  0.17556111557E+03  0.41800000000E+01 0.  1.
         -5    1    3    3    0  502  0.16417276367E+03 -0.94833399679E+02 -0.26066233980E+03  0.32234825549E+03  0.41800000000E+01 0.  1.
        -11    1    1    2    0    0 -0.22077343317E+03  0.11430570773E+03 -0.63310939174E+03  0.68017218814E+03  0.00000000000E+00 0.  1.
         11    1    1    2    0    0 -0.68958951187E+02  0.79838758584E+02 -0.16823498093E+03  0.19857636599E+03  0.00000000000E+00 0. -1.
</event>
<event>
 6    1  0.5109948E-006  0.1011645E+03  0.7561462E-02  0.1277866E+00
          2   -1    0    0  501    0  0.00000000000E+00  0.00000000000E+00  0.26193981705E+02  0.26193981705E+02  0.00000000000E+00 0. -1.
         -2   -1    0    0    0  501 -0.00000000000E+00 -0.00000000000E+00 -0.66855135989E+03  0.66855135989E+03  0.00000000000E+00 0.  1.
          5    1    1    2  502    0 -0.51891860765E+02 -0.71797651058E+02 -0.11013094914E+03  0.14140002217E+03  0.41800000000E+01 0. -1.
         -5    1    1    2    0  502  0.63794876359E+02  0.40443097178E+02 -0.49286366025E+03  0.49863562885E+03  0.41800000000E+01 0.  1.
        -11    1    1    2    0    0  0.17774463972E+01  0.20373773356E+02 -0.20852062535E+02  0.29207164676E+02  0.00000000000E+00 0. -1.
         11    1    1    2    0    0 -0.13680461991E+02  0.10980780524E+02 -0.18510706255E+02  0.25502525900E+02  0.00000000000E+00 0.  1.
</event>
<event>
 7    1  0.5109948E-006  0.1013360E+03  0.7561462E-02  0.1277511E+00
         -1   -1    0    0    0  501 -0.00000000000E+00  0.00000000000E+00  0.84165256505E+02  0.84165256505E+02  0.00000000000E+00 0.  1.
          1   -1    0    0  501    0  0.00000000000E+00 -0.00000000000E+00 -0.17888271046E+03  0.17888271046E+03  0.00000000000E+00 0. -1.
         23    2    1    2    0    0 -0.10972823946E+02 -0.30614762727E+02 -0.34821589900E+01  0.12929693422E+03  0.12509158726E+03 0.  0.
          5    1    3    3  502    0  0.51711454229E+02 -0.27713137789E+02 -0.23438553243E+02  0.63316117085E+02  0.41800000000E+01 0. -1.
         -5    1    3    3    0  502 -0.62684278175E+02 -0.29016249381E+01  0.19956394253E+02  0.65980817130E+02  0.41800000000E+01 0. -1.
        -11    1    1    2    0    0 -0.43352681446E+01 -0.23925810618E+02 -0.68540728437E+02  0.72725995478E+02  0.00000000000E+00 0. -1.
         11    1    1    2    0    0  0.15308092091E+02  0.54540573345E+02 -0.22694566532E+02  0.61025037275E+02  0.00000000000E+00 0.  1.
</event>
<event>
 7    1  0.5109948E-006  0.9383318E+02  0.7561462E-02  0.1293826E+00
         -2   -1    0    0    0  501 -0.00000000000E+00  0.00000000000E+00  0.24050620230E+03  0.24050620230E+03  0.00000000000E+00 0.  1.
          2   -1    0    0  501    0  0.00000000000E+00 -0.00000000000E+00 -0.73670768731E+02  0.73670768731E+02  0.00000000000E+00 0. -1.
         23    2    1    2    0    0  0.49537610719E+02 -0.34407840821E+01  0.16156626716E+03  0.21027800751E+03  0.12508943955E+03 0.  0.
          5    1    3    3  502    0  0.44362571269E+02 -0.33664167580E+02  0.16938917570E+03  0.17835772804E+03  0.41800000000E+01 0. -1.
         -5    1    3    3    0  502  0.51750394505E+01  0.30223383497E+02 -0.78229085379E+01  0.31920279468E+02  0.41800000000E+01 0. -1.
        -11    1    1    2    0    0 -0.31386671683E+01  0.41035619241E+02  0.14158922574E+02  0.43522963669E+02  0.00000000000E+00 0.  1.
         11    1    1    2    0    0 -0.46398943551E+02 -0.37594835159E+02 -0.88897561669E+01  0.60375999851E+02  0.00000000000E+00 0. -1.
</event>
<event>
 7    1  0.5109948E-006  0.9165874E+02  0.7561462E-02  0.1298884E+00
         -1   -1    0    0    0  501 -0.00000000000E+00  0.00000000000E+00  0.74775025208E+02  0.74775025208E+02  0.00000000000E+00 0.  1.
          1   -1    0    0  501    0  0.00000000000E+00 -0.00000000000E+00 -0.19239403273E+03  0.19239403273E+03  0.00000000000E+00 0. -1.
         23    2    1    2    0    0 -0.12378762148E+02  0.18245346163E+02 -0.34642053758E+02  0.13165823378E+03  0.12509073597E+03 0.  0.
          5    1    3    3  502    0  0.46639508435E+02 -0.17695599063E+02  0.74936939488E+01  0.50616260453E+02  0.41800000000E+01 0.  1.
         -5    1    3    3    0  502 -0.59018270583E+02  0.35940945226E+02 -0.42135747707E+02  0.81041973330E+02  0.41800000000E+01 0.  1.
        -11    1    1    2    0    0  0.29222654587E+02 -0.31225659838E+02  0.67518761674E+01  0.43296572673E+02  0.00000000000E+00 0.  1.
         11    1    1    2    0    0 -0.16843892439E+02  0.12980313675E+02 -0.89728829930E+02  0.92214251481E+02  0.00000000000E+00 0. -1.
</event>
<event>
 7    1  0.5109948E-006  0.1743904E+03  0.7561462E-02  0.1173345E+00
          1   -1    0    0  501    0  0.00000000000E+00  0.00000000000E+00  0.39576433803E+03  0.39576433803E+03  0.00000000000E+00 0. -1.
         -1   -1    0    0    0  501 -0.00000000000E+00 -0.00000000000E+00 -0.85438033327E+02  0.85438033327E+02  0.00000000000E+00 0.  1.
         23    2    1    2    0    0 -0.53086938563E+02 -0.13813248103E+03  0.15354311370E+03  0.24722534925E+03  0.12508429232E+03 0.  0.
          5    1    3    3  502    0 -0.69431674456E+02 -0.18120867924E+02  0.67414699151E+02  0.98546117802E+02  0.41800000000E+01 0. -1.
         -5    1    3    3    0  502  0.16344735893E+02 -0.12001161310E+03  0.86128414552E+02  0.14867923145E+03  0.41800000000E+01 0. -1.
        -11    1    1    2    0    0  0.62465011228E+02  0.11866875457E+03  0.84435916825E+02  0.15847263167E+03  0.00000000000E+00 0. -1.
         11    1    1    2    0    0 -0.93780726652E+01  0.19463726454E+02  0.72347274179E+02  0.75504390439E+02  0.00000000000E+00 0.  1.
</event>
<event>
 7    1  0.5109948E-006  0.7079625E+02  0.7561462E-02  0.1357406E+00
          1   -1    0    0  501    0  0.00000000000E+00  0.00000000000E+00  0.22441515250E+02  0.22441515250E+02  0.00000000000E+00 0. -1.
         -1   -1    0    0    0  501 -0.00000000000E+00 -0.00000000000E+00 -0.61017150290E+03  0.61017150290E+03  0.00000000000E+00 0.  1.
         23    2    1    2    0    0  0.13452319454E+02 -0.41865997133E+02 -0.37246708489E+03  0.39536445537E+03  0.12509035384E+03 0.  0.
          5    1    3    3  502    0  0.57288873456E+01 -0.19494202473E+02 -0.37068472767E+03  0.37126470854E+03  0.41800000000E+01 0. -1.
         -5    1    3    3    0  502  0.77234321085E+01 -0.22371794660E+02 -0.17823572251E+01  0.24099746827E+02  0.41800000000E+01 0. -1.
        -11    1    1    2    0    0 -0.49006675962E+02  0.12182624705E+02 -0.14052142334E+03  0.14931959366E+03  0.00000000000E+00 0.  1.
         11    1    1    2    0    0  0.35554356508E+02  0.29683372428E+02 -0.74741479418E+02  0.87928969122E+02  0.00000000000E+00 0. -1.
</event>
<event>
 6    1  0.5109948E-006  0.1820719E+03  0.7561462E-02  0.1165813E+00
         -2   -1    0    0    0  501 -0.00000000000E+00  0.00000000000E+00  0.94296774659E+02  0.94296774659E+02  0.00000000000E+00 0.  1.
          2   -1    0    0  501    0  0.00000000000E+00 -0.00000000000E+00 -0.74447643664E+03  0.74447643664E+03  0.00000000000E+00 0. -1.
          5    1    1    2  502    0 -0.66977864835E+01  0.10575785078E+03 -0.39433793256E+03  0.40834967957E+03  0.41800000000E+01 0. -1.
         -5    1    1    2    0  502 -0.94668089222E+02 -0.73697216610E+02  0.20230925490E+02  0.12173779035E+03  0.41800000000E+01 0.  1.
        -11    1    1    2    0    0  0.10368962380E+03 -0.53364799030E+02 -0.23616199073E+03  0.26338531797E+03  0.00000000000E+00 0. -1.
         11    1    1    2    0    0 -0.23237480981E+01  0.21304164860E+02 -0.39910664178E+02  0.45300423405E+02  0.00000000000E+00 0.  1.
</event>
<event>
 7    1  0.5109948E-006  0.3125053E+03  0.7561462E-02  0.1079151E+00
         -2   -1    0    0    0  501 -0.00000000000E+00  0.00000000000E+00  0.43353767254E+02  0.43353767254E+02  0.00000000000E+00 0.  1.
          2   -1    0    0  501    0  0.00000000000E+00 -0.00000000000E+00 -0.23630755344E+04  0.23630755344E+04  0.00000000000E+00 0. -1.
         23    2    1    2    0    0  0.23681179150E+03  0.18174377271E+03 -0.10397705664E+04  0.10889794593E+04  0.12507121352E+03 0.  0.
          5    1    3    3  502    0  0.37147446673E+02 -0.77605445514E+01 -0.24311008391E+03  0.24608970752E+03  0.41800000000E+01 0.  1.
         -5    1    3    3    0  502  0.19966434483E+03  0.18950431726E+03 -0.79666048250E+03  0.84288975177E+03  0.41800000000E+01 0.  1.
        -11    1    1    2    0    0 -0.13712888175E+03 -0.49222620515E+02 -0.55920555984E+03  0.57787373598E+03  0.00000000000E+00 0. -1.
         11    1    1    2    0    0 -0.99682909751E+02 -0.13252115219E+03 -0.72074564089E+03  0.73957610638E+03  0.00000000000E+00 0.  1.
</event>
<event>
 7    1  0.5109948E-006  0.9972963E+02  0.7561462E-02  0.1280866E+00
          1   -1    0    0  501    0  0.00000000000E+00  0.00000000000E+00  0.38694592076E+03  0.38694592076E+03  0.00000000000E+00 0. -1.
         -1   -1    0    0    0  501 -0.00000000000E+00 -0.00000000000E+00 -0.38185585848E+02  0.38185585848E+02  0.00000000000E+00 0.  1.
         23    2    1    2    0    0  0.26766146353E+02  0.34280776430E+02  0.13718783764E+03  0.19068566381E+03  0.12509564886E+03 0.  0.
          5    1    3    3  502    0  0.77005158017E+02  0.17037109193E+02  0.86792678046E+02  0.11734776868E+03  0.41800000000E+01 0. -1.
         -5    1    3    3    0  502 -0.50239011664E+02  0.17243667237E+02  0.50395159593E+02  0.73337895137E+02  0.41800000000E+01 0. -1.
        -11    1    1    2    0    0 -0.16555826536E+02  0.11588829165E+02  0.27427031358E+01  0.20394086745E+02  0.00000000000E+00 0.  1.
         11    1    1    2    0    0 -0.10210319817E+02 -0.45869605595E+02  0.20882979414E+03  0.21405175605E+03  0.00000000000E+00 0. -1.
</event>
<event>
 7    1  0.5109948E-006  0.8957498E+02  0.7561462E-02  0.1303884E+00
          3   -1    0    0  501    0  0.00000000000E+00  0.00000000000E+00  0.73218231050E+02  0.73218231050E+02  0.00000000000E+00 0. -1.
         -3   -1    0    0    0  501 -0.00000000000E+00 -0.00000000000E+00 -0.26300044855E+03  0.26300044855E+03  0.00000000000E+00 0.  1.
         23    2    1    2    0    0  0.74729416072E+02  0.21379652668E+01 -0.15660740136E+03  0.21392790556E+03  0.12510081572E+03 0.  0.
          5    1    3    3  502    0  0.68057309727E+02  0.25044954986E+02 -0.17097439180E+03  0.18576534184E+03  0.41800000000E+01 0. -1.
         -5    1    3    3    0  502  0.66721063447E+01 -0.22906989719E+02  0.14366990438E+02  0.28162563720E+02  0.41800000000E+01 0. -1.
        -11    1    1    2    0    0 -0.16724179864E+02 -0.15457124177E+02  0.28567994020E+02  0.36534246431E+02  0.00000000000E+00 0.  1.
         11    1    1    2    0    0 -0.58005236208E+02  0.13319158910E+02 -0.61742810161E+02  0.85756527612E+02  0.00000000000E+00 0. -1.
</event>
<event>
 7    1  0.5109948E-006  0.1148123E+03  0.7561462E-02  0.1251909E+00
          2   -1    0    0  501    0  0.00000000000E+00  0.00000000000E+00  0.81086416770E+03  0.81086416770E+03  0.00000000000E+00 0.  1.
         -2   -1    0    0    0  501 -0.00000000000E+00 -0.00000000000E+00 -0.18016763754E+02  0.18016763754E+02  0.00000000000E+00 0. -1.
         23    2    1    2    0    0 -0.13338604550E+02  0.52689010415E+02  0.44664269397E+03  0.46700248074E+03  0.12509025044E+03 0.  0.
          5    1    3    3  502    0  0.44962771100E+02 -0.35397674976E+01  0.84350349310E+02  0.95742543144E+02  0.41800000000E+01 0.  1.
         -5    1    3    3    0  502 -0.58301375650E+02  0.56228777912E+02  0.36229234466E+03  0.37125993760E+03  0.41800000000E+01 0.  1.
        -11    1    1    2    0    0 -0.32196677911E+02 -0.47513567176E+02  0.22766625766E+03  0.23478945891E+03  0.00000000000E+00 0. -1.
         11    1    1    2    0    0  0.45535282461E+02 -0.51754432387E+01  0.11853845231E+03  0.12708899181E+03  0.00000000000E+00 0.  1.
</event>
<event>
 7    1  0.5109948E-006  0.2116492E+03  0.7561462E-02  0.1140267E+00
          1   -1    0    0  501    0  0.00000000000E+00  0.00000000000E+00  0.17294925362E+03  0.17294925362E+03  0.00000000000E+00 0. -1.
         -1   -1    0    0    0  501 -0.00000000000E+00 -0.00000000000E+00 -0.32016430222E+03  0.32016430222E+03  0.00000000000E+00 0.  1.
         23    2    1    2    0    0  0.98010828261E+02 -0.15915210692E+03 -0.17034172346E+03  0.28213331076E+03  0.12508951473E+03 0.  0.
          5    1    3    3  502    0  0.55168908165E+02  0.40019012957E+01 -0.52005032912E+02  0.76036961343E+02  0.41800000000E+01 0. -1.
         -5    1    3    3    0  502  0.42841920097E+02 -0.16315400821E+03 -0.11833669055E+03  0.20609634942E+03  0.41800000000E+01 0. -1.
        -11    1    1    2    0    0 -0.10857292250E+03  0.14961898353E+03  0.12288053945E+01  0.18486597766E+03  0.00000000000E+00 0.  1.
         11    1    1    2    0    0  0.10562094235E+02  0.95331233866E+01  0.21897869465E+02  0.26114267427E+02  0.00000000000E+00 0. -1.
</event>
<event>
 6    1  0.5109948E-006  0.3578429E+03  0.7561462E-02  0.1059441E+00
          2   -1    0    0  501    0  0.00000000000E+00  0.00000000000E+00  0.25380804160E+04  0.25380804160E+04  0.00000000000E+00 0. -1.
         -2   -1    0    0    0  501 -0.00000000000E+00 -0.00000000000E+00 -0.60347342432E+02  0.60347342432E+02  0.00000000000E+00 0.  1.
          5    1    1    2  502    0  0.27326738380E+03  0.13164711241E+03  0.15794710616E+04  0.16083383761E+04  0.41800000000E+01 0. -1.
         -5    1    1    2    0  502 -0.28882160862E+03 -0.13992777281E+03  0.64447315986E+03  0.71997279768E+03  0.41800000000E+01 0.  1.
        -11    1    1    2    0    0 -0.31697769895E+02  0.25908823312E+02  0.13483782622E+03  0.14091577315E+03  0.00000000000E+00 0. -1.
         11    1    1    2    0    0  0.47251994718E+02 -0.17628162912E+02  0.11895102592E+03  0.12920081153E+03  0.00000000000E+00 0.  1.
</event>
<event>
 7    1  0.5109948E-006  0.4221187E+03  0.7561462E-02  0.1036379E+00
          1   -1    0    0  501    0  0.00000000000E+00  0.00000000000E+00  0.91336474300E+03  0.91336474300E+03  0.00000000000E+00 0. -1.
         -1   -1    0    0    0  501 -0.00000000000E+00 -0.00000000000E+00 -0.20248205020E+03  0.20248205020E+03  0.00000000000E+00 0.  1.
         23    2    1    2    0    0  0.26176931991E+03  0.32062042810E+03  0.41331561297E+03  0.59816215882E+03  0.12509011375E+03 0.  0.
          5    1    3    3  502    0  0.25866404277E+03  0.25270415997E+03  0.32184650253E+03  0.48411684858E+03  0.41800000000E+01 0. -1.
         -5    1    3    3    0  502  0.31052771406E+01  0.67916268126E+02  0.91469110447E+02  0.11404531024E+03  0.41800000000E+01 0. -1.
        -11    1    1    2    0    0 -0.10444746284E+02 -0.20657460663E+02  0.48699191556E+02  0.53920633010E+02  0.00000000000E+00 0. -1.
         11    1    1    2    0    0 -0.25132457363E+03 -0.29996296744E+03  0.24886788827E+03  0.46376400136E+03  0.00000000000E+00 0.  1.
</event>
<event>
 7    1  0.5109948E-006  0.1230737E+03  0.7561462E-02  0.1238111E+00
          1   -1    0    0  501    0  0.00000000000E+00  0.00000000000E+00  0.46287844220E+03  0.46287844220E+03  0.00000000000E+00 0. -1.
         -1   -1    0    0    0  501 -0.00000000000E+00 -0.00000000000E+00 -0.72211237851E+02  0.72211237851E+02  0.00000000000E+00 0.  1.
         23    2    1    2    0    0 -0.73995808491E+02 -0.33676753237E+02  0.35194873070E+02  0.15328272965E+03  0.12508961882E+03 0.  0.
          5    1    3    3  502    0 -0.16133811667E+01  0.27655887012E+02 -0.27684447692E+02  0.39387207685E+02  0.41800000000E+01 0. -1.
         -5    1    3    3    0  502 -0.72382427325E+02 -0.61332640248E+02  0.62879320762E+02  0.11389552197E+03  0.41800000000E+01 0. -1.
        -11    1    1    2    0    0  0.75461696907E+02 -0.12908136451E+02  0.12431459320E+03  0.14599728001E+03  0.00000000000E+00 0.  1.
         11    1    1    2    0    0 -0.14658884158E+01  0.46584889687E+02  0.23115773807E+03  0.23580967039E+03  0.00000000000E+00 0. -1.
</event>
<event>
 7    1  0.5109948E-006  0.1104199E+03  0.7561462E-02  0.1259794E+00
          2   -1    0    0  501    0  0.00000000000E+00  0.00000000000E+00  0.53573013842E+03  0.53573013842E+03  0.00000000000E+00 0. -1.
         -2   -1    0    0    0  501 -0.00000000000E+00 -0.00000000000E+00 -0.24340486299E+02  0.24340486299E+02  0.00000000000E+00 0.  1.
         23    2    1    2    0    0 -0.17395992641E+02  0.22976312026E+02  0.30066890413E+03  0.32692598943E+03  0.12509309005E+03 0.  0.
          5    1    3    3  502    0  0.51031906220E+02  0.28181226274E+02  0.16033437167E+03  0.17065468088E+03  0.41800000000E+01 0.  1.
         -5    1    3    3    0  502 -0.68427898862E+02 -0.52049142478E+01  0.14033453246E+03  0.15627130855E+03  0.41800000000E+01 0.  1.
        -11    1    1    2    0    0 -0.35355537599E+02 -0.20417890303E+02  0.13340261402E+03  0.13951043585E+03  0.00000000000E+00 0. -1.
         11    1    1    2    0    0  0.52751530240E+02 -0.25584217225E+01  0.77318133969E+02  0.93634199441E+02  0.00000000000E+00 0.  1.
</event>
<event>
 7    1  0.5109948E-006  0.7283852E+02  0.7561462E-02  0.1350698E+00
         -1   -1    0    0    0  501 -0.00000000000E+00  0.00000000000E+00  0.35080883005E+03  0.35080883005E+03  0.00000000000E+00 0.  1.
          1   -1    0    0  501    0  0.00000000000E+00 -0.00000000000E+00 -0.54227481300E+02  0.54227481300E+02  0.00000000000E+00 0. -1.
         23    2    1    2    0    0 -0.13232743740E+02 -0.38851551750E+02  0.27872111649E+03  0.30630779978E+03  0.12022669774E+03 0.  0.
          5    1    3    3  502    0  0.34162876606E+02 -0.22174293328E+01  0.21870954884E+03  0.22141219092E+03  0.41800000000E+01 0. -1.
         -5    1    3    3    0  502 -0.47395620346E+02 -0.36634122417E+02  0.60011567650E+02  0.84895608868E+02  0.41800000000E+01 0.  1.
        -11    1    1    2    0    0  0.11567432648E+02 -0.66587821418E+00 -0.32609516273E+02  0.34606783200E+02  0.00000000000E+00 0. -1.
         11    1    1    2    0    0  0.16653110915E+01  0.39517429964E+02  0.50469748528E+02  0.64121728365E+02  0.00000000000E+00 0.  1.
</event>
<event>
 7    1  0.5109948E-006  0.1590988E+03  0.7561462E-02  0.1189718E+00
         -2   -1    0    0    0  501 -0.00000000000E+00  0.00000000000E+00  0.27253275696E+03  0.27253275696E+03  0.00000000000E+00 0.  1.
          2   -1    0    0  501    0  0.00000000000E+00 -0.00000000000E+00 -0.10160708263E+03  0.10160708263E+03  0.00000000000E+00 0. -1.
         23    2    1    2    0    0 -0.10838096519E+03  0.46724281559E+02  0.13925123539E+03  0.22128718103E+03  0.12509003889E+03 0.  0.
          5    1    3    3  502    0 -0.13231772090E+03  0.58781457677E+02  0.11656360218E+03  0.18592413718E+03  0.41800000000E+01 0. -1.
         -5    1    3    3    0  502  0.23936755714E+02 -0.12057176117E+02  0.22687633213E+02  0.35363043858E+02  0.41800000000E+01 0. -1.
        -11    1    1    2    0    0  0.34635115779E+01 -0.41005306995E+02  0.23674388372E+02  0.47475338640E+02  0.00000000000E+00 0.  1.
         11    1    1    2    0    0  0.10491745361E+03 -0.57189745646E+01  0.80000505667E+01  0.10537731991E+03  0.00000000000E+00 0. -1.
</event>
<event>
 6    1  0.5109948E-006  0.9717939E+02  0.7561462E-02  0.1286342E+00
          1   -1    0    0  501    0  0.00000000000E+00  0.00000000000E+00  0.28988541181E+03  0.28988541181E+03  0.00000000000E+00 0. -1.
         -1   -1    0    0    0  501 -0.00000000000E+00 -0.00000000000E+00 -0.51070454473E+02  0.51070454473E+02  0.00000000000E+00 0.  1.
          5    1    1    2  502    0 -0.26442649933E+02  0.60542394860E+02  0.15868667573E+02  0.68072625346E+02  0.41800000000E+01 0. -1.
         -5    1    1    2    0  502 -0.60492270482E+01 -0.49764487500E+02  0.93660103340E+02  0.10631455555E+03  0.41800000000E+01 0.  1.
        -11    1    1    2    0    0  0.52340785336E+02  0.48907229377E+01  0.23112961162E+02  0.57425481749E+02  0.00000000000E+00 0.  1.
         11    1    1    2    0    0 -0.19848908354E+02 -0.15668630298E+02  0.10617322526E+03  0.10914320364E+03  0.00000000000E+00 0. -1.
</event>
<event>
 7    1  0.5109948E-006  0.1506044E+03  0.7561462E-02  0.1199732E+00
          1   -1    0    0  501    0  0.00000000000E+00  0.00000000000E+00  0.61915186262E+03  0.61915186262E+03  0.00000000000E+00 0. -1.
         -1   -1    0    0    0  501 -0.00000000000E+00 -0.00000000000E+00 -0.28161298452E+03  0.28161298452E+03  0.00000000000E+00 0.  1.
         23    2    1    2    0    0  0.74791380338E+02 -0.82911691507E+02 -0.24944744784E+03  0.29631631843E+03  0.11450428889E+03 0.  0.
          5    1    3    3  502    0 -0.28994685371E+02 -0.26539777498E+02 -0.42795698857E+02  0.58258010695E+02  0.41800000000E+01 0. -1.
         -5    1    3    3    0  502  0.10378606571E+03 -0.56371914009E+02 -0.20665174898E+03  0.23805830774E+03  0.41800000000E+01 0.  1.
        -11    1    1    2    0    0  0.96586212170E+01 -0.12684410974E+02  0.86934939314E+02  0.88384766329E+02  0.00000000000E+00 0.  1.
         11    1    1    2    0    0 -0.84450001555E+02  0.95596102481E+02  0.50005138662E+03  0.51606376238E+03  0.00000000000E+00 0. -1.
</event>
<event>
 7    1  0.5109948E-006  0.1143642E+03  0.7561462E-02  0.1252695E+00
         -1   -1    0    0    0  501 -0.00000000000E+00  0.00000000000E+00  0.35916965549E+02  0.35916965549E+02  0.00000000000E+00 0.  1.
          1   -1    0    0  501    0  0.00000000000E+00 -0.00000000000E+00 -0.54617374860E+03  0.54617374860E+03  0.00000000000E+00 0. -1.
         23    2    1    2    0    0 -0.66169846444E+02 -0.11649970899E+02 -0.16769413906E+03  0.21973724122E+03  0.12509580529E+03 0.  0.
          5    1    3    3  502    0 -0.91439754554E+02 -0.14135309897E+02 -0.63217695554E+02  0.11213824116E+03  0.41800000000E+01 0.  1.
         -5    1    3    3    0  502  0.25269908110E+02  0.24853389980E+01 -0.10447644351E+03  0.10759900006E+03  0.41800000000E+01 0.  1.
        -11    1    1    2    0    0  0.32590892975E+02  0.49822183515E+02 -0.11873627230E+03  0.13282589595E+03  0.00000000000E+00 0.  1.
         11    1    1    2    0    0  0.33578953469E+02 -0.38172212616E+02 -0.22382637169E+03  0.22952757698E+03  0.00000000000E+00 0. -1.
</event>
<event>
 7    1  0.5109948E-006  0.1100731E+03  0.7561462E-02  0.1260435E+00
         -1   -1    0    0    0  501 -0.00000000000E+00  0.00000000000E+00  0.38534907151E+02  0.38534907151E+02  0.00000000000E+00 0.  1.
          1   -1    0    0  501    0  0.00000000000E+00 -0.00000000000E+00 -0.34887082422E+03  0.34887082422E+03  0.00000000000E+00 0. -1.
         23    2    1    2    0    0  0.35555090088E+02 -0.11202089361E+02 -0.15078490721E+03  0.19943368096E+03  0.12509218050E+03 0.  0.
          5    1    3    3  502    0  0.68408782787E+02 -0.41781811310E+02 -0.68120005763E+02  0.10527720030E+03  0.41800000000E+01 0. -1.
         -5    1    3    3    0  502 -0.32853692698E+02  0.30579721949E+02 -0.82664901445E+02  0.94156480654E+02  0.41800000000E+01 0. -1.
        -11    1    1    2    0    0 -0.36063519416E+02 -0.34019074932E+02 -0.54926909169E+02  0.73992163388E+02  0.00000000000E+00 0.  1.
         11    1    1    2    0    0  0.50842932804E+00  0.45221164293E+02 -0.10462410069E+03  0.11397988702E+03  0.00000000000E+00 0. -1.
</event>
<event>
 7    1  0.5109948E-006  0.1222816E+03  0.7561462E-02  0.1239380E+00
         -2   -1    0    0    0  501 -0.00000000000E+00  0.00000000000E+00  0.13545124484E+03  0.13545124484E+03  0.00000000000E+00 0. -1.
          2   -1    0    0  501    0  0.00000000000E+00 -0.00000000000E+00 -0.20476065060E+03  0.20476065060E+03  0.00000000000E+00 0.  1.
         23    2    1    2    0    0 -0.94785526700E+02  0.15155724304E+02  0.45685473354E+02  0.16415985362E+03  0.12508918024E+03 0.  0.
          5    1    3    3  502    0  0.25570502769E+02  0.10350495783E+02  0.32627251725E+02  0.42930098182E+02  0.41800000000E+01 0. -1.
         -5    1    3    3    0  502 -0.12035602947E+03  0.48052285204E+01  0.13058221628E+02  0.12122975543E+03  0.41800000000E+01 0. -1.
        -11    1    1    2    0    0  0.74255572955E+02 -0.14088617863E+02 -0.19069932387E+02  0.77948967853E+02  0.00000000000E+00 0. -1.
         11    1    1    2    0    0  0.20529953745E+02 -0.10671064409E+01 -0.95924946726E+02  0.98103073965E+02  0.00000000000E+00 0.  1.
</event>
<event>
 7    1  0.5109948E-006  0.1174930E+03  0.7561462E-02  0.1247291E+00
         -3   -1    0    0    0  501 -0.00000000000E+00  0.00000000000E+00  0.18952167335E+03  0.18952167335E+03  0.00000000000E+00 0.  1.
          3   -1    0    0  501    0  0.00000000000E+00 -0.00000000000E+00 -0.80558212424E+02  0.80558212424E+02  0.00000000000E+00 0. -1.
         23    2    1    2    0    0  0.33531273300E+01  0.51500457452E+02  0.90431828614E+02  0.16275337909E+03  0.12508879326E+03 0.  0.
          5    1    3    3  502    0 -0.21872209111E+02 -0.36761608884E+02  0.35081822664E+02  0.55479871130E+02  0.41800000000E+01 0. -1.
         -5    1    3    3    0  502  0.25225336441E+02  0.88262066336E+02  0.55350005950E+02  0.10727350796E+03  0.41800000000E+01 0. -1.
        -11    1    1    2    0    0 -0.11062675918E+02  0.22838757603E+02 -0.10071032794E+02  0.27302332297E+02  0.00000000000E+00 0. -1.
         11    1    1    2    0    0  0.77095485876E+01 -0.74339215055E+02  0.28602665108E+02  0.80024174383E+02  0.00000000000E+00 0.  1.
</event>
<event>
 7    1  0.5109948E-006  0.8463645E+02  0.7561462E-02  0.1316386E+00
         -3   -1    0    0    0  501 -0.00000000000E+00  0.00000000000E+00  0.22508069753E+03  0.22508069753E+03  0.00000000000E+00 0.  1.
          3   -1    0    0  501    0  0.00000000000E+00 -0.00000000000E+00 -0.62338234985E+02  0.62338234985E+02  0.00000000000E+00 0. -1.
         23    2    1    2    0    0  0.90061646946E+01 -0.29279082788E+02  0.13672060863E+03  0.18782066220E+03  0.12508277512E+03 0.  0.
          5    1    3    3  502    0  0.42878680305E+02  0.31462557495E+02  0.32537238595E+02  0.62486942989E+02  0.41800000000E+01 0. -1.
         -5    1    3    3    0  502 -0.33872515610E+02 -0.60741640283E+02  0.10418337004E+03  0.12533371921E+03  0.41800000000E+01 0. -1.
        -11    1    1    2    0    0  0.61211975993E+01  0.30469301729E+02  0.57102166354E+02  0.65011574433E+02  0.00000000000E+00 0.  1.
         11    1    1    2    0    0 -0.15127362294E+02 -0.11902189411E+01 -0.31080312439E+02  0.34586695888E+02  0.00000000000E+00 0. -1.
</event>
<event>
 7    1  0.5109948E-006  0.1102350E+03  0.7561462E-02  0.1260135E+00
         -2   -1    0    0    0  501 -0.00000000000E+00  0.00000000000E+00  0.29943895021E+02  0.29943895021E+02  0.00000000000E+00 0.  1.
          2   -1    0    0  501    0  0.00000000000E+00 -0.00000000000E+00 -0.57323761499E+03  0.57323761499E+03  0.00000000000E+00 0. -1.
         23    2    1    2    0    0 -0.53146862165E+02  0.14305252501E+02 -0.18739232564E+03  0.23193301657E+03  0.12509121175E+03 0.  0.
          5    1    3    3  502    0 -0.45349120258E+02  0.62596071584E+02 -0.68741380488E+02  0.10352613524E+03  0.41800000000E+01 0.  1.
         -5    1    3    3    0  502 -0.77977419070E+01 -0.48290819083E+02 -0.11865094515E+03  0.12840688133E+03  0.41800000000E+01 0.  1.
        -11    1    1    2    0    0  0.15599226399E+02  0.31252206119E+02 -0.59246854858E+02  0.68776638927E+02  0.00000000000E+00 0.  1.
         11    1    1    2    0    0  0.37547635766E+02 -0.45557458620E+02 -0.29665453947E+03  0.30247185452E+03  0.00000000000E+00 0. -1.
</event>
<event>
 7    1  0.5109948E-006  0.1208214E+03  0.7561462E-02  0.1241748E+00
         -2   -1    0    0    0  501 -0.00000000000E+00  0.00000000000E+00  0.79661877858E+03  0.79661877858E+03  0.00000000000E+00 0.  1.
          2   -1    0    0  501    0  0.00000000000E+00 -0.00000000000E+00 -0.23855486369E+02  0.23855486369E+02  0.00000000000E+00 0. -1.
         23    2    1    2    0    0  0.76783012278E+02 -0.14279305480E+02  0.50761074927E+03  0.52859788827E+03  0.12509006823E+03 0.  0.
          5    1    3    3  502    0 -0.22681047832E+02  0.13306607113E+02  0.24431872912E+03  0.24576535460E+03  0.41800000000E+01 0. -1.
         -5    1    3    3    0  502  0.99464060109E+02 -0.27585912593E+02  0.26329202015E+03  0.28283253367E+03  0.41800000000E+01 0. -1.
        -11    1    1    2    0    0  0.48903941644E+01  0.28408633690E+02  0.13138965360E+03  0.13451471108E+03  0.00000000000E+00 0.  1.
         11    1    1    2    0    0 -0.81673406442E+02 -0.14129328210E+02  0.13376288934E+03  0.15736166560E+03  0.00000000000E+00 0. -1.
</event>
<event>
 7    1  0.5109948E-006  0.8301291E+02  0.7561462E-02  0.1320712E+00
          1   -1    0    0  501    0  0.00000000000E+00  0.00000000000E+00  0.17099211936E+03  0.17099211936E+03  0.00000000000E+00 0. -1.
         -1   -1    0    0    0  501 -0.00000000000E+00 -0.00000000000E+00 -0.82237089855E+02  0.82237089855E+02  0.00000000000E+00 0.  1.
         23    2    1    2    0    0  0.33788413074E+02 -0.25186487706E+02  0.29076206458E+02  0.13516304905E+03  0.12509039942E+03 0.  0.
          5    1    3    3  502    0  0.43700230883E+02 -0.46140158460E+02  0.65775191178E+02  0.91555844032E+02  0.41800000000E+01 0.  1.
         -5    1    3    3    0  502 -0.99118178089E+01  0.20953670754E+02 -0.36698984719E+02  0.43607205021E+02  0.41800000000E+01 0.  1.
        -11    1    1    2    0    0 -0.17667469566E+02 -0.22407385988E+02  0.61484975617E+02  0.67783719685E+02  0.00000000000E+00 0. -1.
         11    1    1    2    0    0 -0.16120943508E+02  0.47593873695E+02 -0.18061525748E+01  0.50282440473E+02  0.00000000000E+00 0.  1.
</event>
<event>
 7    1  0.5109948E-006  0.1864893E+03  0.7561462E-02  0.1161666E+00
         -2   -1    0    0    0  501 -0.00000000000E+00  0.00000000000E+00  0.66681622146E+03  0.66681622146E+03  0.00000000000E+00 0.  1.
          2   -1    0    0  501    0  0.00000000000E+00 -0.00000000000E+00 -0.11710692781E+03  0.11710692781E+03  0.00000000000E+00 0. -1.
         23    2    1    2    0    0 -0.15615825922E+03 -0.39305758482E+02  0.57015769965E+03  0.60552091441E+03  0.12508169630E+03 0.  0.
          5    1    3    3  502    0 -0.22663816311E+02  0.40412365213E+02  0.99755425706E+02  0.11007009217E+03  0.41800000000E+01 0.  1.
         -5    1    3    3    0  502 -0.13349444291E+03 -0.79718123695E+02  0.47040227395E+03  0.49545082225E+03  0.41800000000E+01 0.  1.
        -11    1    1    2    0    0  0.65862752834E+02  0.46054989958E+02  0.13896143290E+02  0.81560205427E+02  0.00000000000E+00 0.  1.
         11    1    1    2    0    0  0.90295506383E+02 -0.67492314763E+01 -0.34344549286E+02  0.96842029430E+02  0.00000000000E+00 0. -1.
</event>
<event>
 7    1  0.5109948E-006  0.8864395E+02  0.7561462E-02  0.1306169E+00
         -1   -1    0    0    0  501 -0.00000000000E+00  0.00000000000E+00  0.31607970314E+02  0.31607970314E+02  0.00000000000E+00 0.  1.
          1   -1    0    0  501    0  0.00000000000E+00 -0.00000000000E+00 -0.34450390014E+03  0.34450390014E+03  0.00000000000E+00 0. -1.
         23    2    1    2    0    0  0.10188703450E+02  0.45935424477E+01 -0.17716235041E+03  0.21266704165E+03  0.11711473815E+03 0.  0.
          5    1    3    3  502    0 -0.37798575680E+02  0.25244399992E-01 -0.15472994936E+03  0.15933475010E+03  0.41800000000E+01 0. -1.
         -5    1    3    3    0  502  0.47987279130E+02  0.45682980478E+01 -0.22432401053E+02  0.53332291553E+02  0.41800000000E+01 0.  1.
        -11    1    1    2    0    0  0.29898324197E+02  0.26648169916E+02 -0.54766968272E+02  0.67848769800E+02  0.00000000000E+00 0.  1.
         11    1    1    2    0    0 -0.40087027647E+02 -0.31241712363E+02 -0.80966611144E+02  0.95596059004E+02  0.00000000000E+00 0. -1.
</event>
<event>
 7    1  0.5109948E-006  0.1145816E+03  0.7561462E-02  0.1252313E+00
          2   -1    0    0  501    0  0.00000000000E+00  0.00000000000E+00  0.19614076415E+02  0.19614076415E+02  0.00000000000E+00 0.  1.
         -2   -1    0    0    0  501 -0.00000000000E+00 -0.00000000000E+00 -0.95570460237E+03  0.95570460237E+03  0.00000000000E+00 0. -1.
         23    2    1    2    0    0  0.45930903924E+02 -0.22328406507E+02 -0.72051566098E+03  0.73307418305E+03  0.12508690765E+03 0.  0.
          5    1    3    3  502    0  0.78296656734E+02  0.14218410887E+02 -0.32941237561E+03  0.33891372836E+03  0.41800000000E+01 0. -1.
         -5    1    3    3    0  502 -0.32365752810E+02 -0.36546817394E+02 -0.39110328537E+03  0.39416045469E+03  0.41800000000E+01 0. -1.
        -11    1    1    2    0    0 -0.17014301161E+02 -0.33518966454E+02 -0.36289186938E+02  0.52248565960E+02  0.00000000000E+00 0.  1.
         11    1    1    2    0    0 -0.28916602763E+02  0.55847372961E+02 -0.17928567804E+03  0.18999592977E+03  0.00000000000E+00 0. -1.
</event>
<event>
 7    1  0.5109948E-006  0.2059664E+03  0.7561462E-02  0.1144801E+00
         -2   -1    0    0    0  501 -0.00000000000E+00  0.00000000000E+00  0.23242708726E+03  0.23242708726E+03  0.00000000000E+00 0.  1.
          2   -1    0    0  501    0  0.00000000000E+00 -0.00000000000E+00 -0.41915698067E+03  0.41915698067E+03  0.00000000000E+00 0. -1.
         23    2    1    2    0    0 -0.51863319346E+02 -0.19903578851E+03  0.12132581905E+03  0.26957910257E+03  0.12509152319E+03 0.  0.
          5    1    3    3  502    0 -0.89305936612E+01 -0.39281719009E+02  0.93348134207E+02  0.10175537092E+03  0.41800000000E+01 0.  1.
         -5    1    3    3    0  502 -0.42932725684E+02 -0.15975406950E+03  0.27977684847E+02  0.16782373165E+03  0.41800000000E+01 0.  1.
        -11    1    1    2    0    0  0.27024810697E+02  0.12423066992E+03 -0.26070969260E+03  0.29005713844E+03  0.00000000000E+00 0.  1.
         11    1    1    2    0    0  0.24838508648E+02  0.74805118582E+02 -0.47346019868E+02  0.91947826920E+02  0.00000000000E+00 0. -1.
</event>
<event>
 7    1  0.5109948E-006  0.8719974E+02  0.7561462E-02  0.1309778E+00
          1   -1    0    0  501    0  0.00000000000E+00  0.00000000000E+00  0.28575819326E+02  0.28575819326E+02  0.00000000000E+00 0. -1.
         -1   -1    0    0    0  501 -0.00000000000E+00 -0.00000000000E+00 -0.59528842398E+03  0.59528842398E+03  0.00000000000E+00 0.  1.
         23    2    1    2    0    0  0.19006821365E+02 -0.59512370407E+02 -0.40551166706E+03  0.42893952903E+03  0.12508567443E+03 0.  0.
          5    1    3    3  502    0  0.21716927957E+00 -0.26905954951E+02 -0.63164517326E+01  0.27952594456E+02  0.41800000000E+01 0.  1.
         -5    1    3    3    0  502  0.18789652086E+02 -0.32606415456E+02 -0.39919521533E+03  0.40098693457E+03  0.41800000000E+01 0.  1.
        -11    1    1    2    0    0 -0.43730117271E+02  0.69929759520E+02 -0.11538136477E+03  0.14182860698E+03  0.00000000000E+00 0.  1.
         11    1    1    2    0    0  0.24723295905E+02 -0.10417389113E+02 -0.45819572822E+02  0.53096107296E+02  0.00000000000E+00 0. -1.
</event>
<event>
 7    1  0.5109948E-006  0.1190388E+03  0.7561462E-02  0.1244691E+00
          2   -1    0    0  501    0  0.00000000000E+00  0.00000000000E+00  0.85461412071E+03  0.85461412071E+03  0.00000000000E+00 0. -1.
         -2   -1    0    0    0  501 -0.00000000000E+00 -0.00000000000E+00 -0.25823283655E+02  0.25823283655E+02  0.00000000000E+00 0.  1.
         23    2    1    2    0    0  0.49634623761E+02  0.87989910292E+02  0.42839017235E+03  0.45757146260E+03  0.12509070080E+03 0.  0.
          5    1    3    3  502    0  0.16239161227E+02  0.82962741622E+01  0.31195993979E+03  0.31252042327E+03  0.41800000000E+01 0. -1.
         -5    1    3    3    0  502  0.33395462534E+02  0.79693636130E+02  0.11643023256E+03  0.14505103933E+03  0.41800000000E+01 0. -1.
        -11    1    1    2    0    0 -0.38478520857E+02  0.53563770819E+01  0.79607518551E+02  0.88581286696E+02  0.00000000000E+00 0. -1.
         11    1    1    2    0    0 -0.11156102904E+02 -0.93346287374E+02  0.32079314615E+03  0.33428465507E+03  0.00000000000E+00 0.  1.
</event>
<event>
 7    1  0.5109948E-006  0.8174849E+02  0.7561462E-02  0.1324161E+00
          4   -1    0    0  501    0  0.00000000000E+00  0.00000000000E+00  0.13332657379E+03  0.13332657379E+03  0.00000000000E+00 0. -1.
         -4   -1    0    0    0  501 -0.00000000000E+00 -0.00000000000E+00 -0.12513127962E+03  0.12513127962E+03  0.00000000000E+00 0.  1.
         23    2    1    2    0    0 -0.39263313868E+02  0.53132614541E+02 -0.16952441804E+02  0.14248057764E+03  0.12509455295E+03 0.  0.
          5    1    3    3  502    0  0.13493715920E+02  0.13381106498E+02  0.46737095177E+02  0.50625713289E+02  0.41800000000E+01 0. -1.
         -5    1    3    3    0  502 -0.52757029788E+02  0.39751508043E+02 -0.63689536981E+02  0.91854864349E+02  0.41800000000E+01 0. -1.
        -11    1    1    2    0    0 -0.88177008992E+01 -0.80501739957E+01 -0.28560017461E+02  0.30955318572E+02  0.00000000000E+00 0.  1.
         11    1    1    2    0    0  0.48081014767E+02 -0.45082440545E+02  0.53707753438E+02  0.85021957199E+02  0.00000000000E+00 0. -1.
</event>
<event>
 7    1  0.5109948E-006  0.2455196E+03  0.7561462E-02  0.1116170E+00
          1   -1    0    0  501    0  0.00000000000E+00  0.00000000000E+00  0.95502444892E+02  0.95502444892E+02  0.00000000000E+00 0. -1.
         -1   -1    0    0    0  501 -0.00000000000E+00 -0.00000000000E+00 -0.80753942115E+03  0.80753942115E+03  0.00000000000E+00 0.  1.
         23    2    1    2    0    0  0.18668569306E+03  0.12093384082E+03 -0.56711124874E+03  0.62188402527E+03  0.12509208845E+03 0.  0.
          5    1    3    3  502    0  0.13368371780E+02  0.72671456694E+02 -0.19409199517E+03  0.20772344348E+03  0.41800000000E+01 0. -1.
         -5    1    3    3    0  502  0.17331732128E+03  0.48262384128E+02 -0.37301925356E+03  0.41416058179E+03  0.41800000000E+01 0. -1.
        -11    1    1    2    0    0 -0.46563365129E+02 -0.77425521981E+02 -0.80139771174E+02  0.12076937257E+03  0.00000000000E+00 0.  1.
         11    1    1    2    0    0 -0.14012232793E+03 -0.43508318842E+02 -0.64785956346E+02  0.16038846820E+03  0.00000000000E+00 0. -1.
</event>
<event>
 7    1  0.5109948E-006  0.8749714E+02  0.7561462E-02  0.1309028E+00
          1   -1    0    0  501    0  0.00000000000E+00  0.00000000000E+00  0.40138098044E+03  0.40138098044E+03  0.00000000000E+00 0. -1.
         -1   -1    0    0    0  501 -0.00000000000E+00 -0.00000000000E+00 -0.38398219344E+02  0.38398219344E+02  0.00000000000E+00 0.  1.
         23    2    1    2    0    0 -0.10772870423E+02  0.58908033605E+02  0.20701291304E+03  0.24917669419E+03  0.12509383519E+03 0.  0.
          5    1    3    3  502    0  0.41181032678E+02  0.80706321369E+01  0.16605567734E+02  0.45323612338E+02  0.41800000000E+01 0. -1.
         -5    1    3    3    0  502 -0.51953903102E+02  0.50837401468E+02  0.19040734531E+03  0.20385308186E+03  0.41800000000E+01 0. -1.
        -11    1    1    2    0    0  0.56698695275E+01 -0.20565445093E+02 -0.75045237882E+01  0.22614217422E+02  0.00000000000E+00 0.  1.
         11    1    1    2    0    0  0.51030008957E+01 -0.38342588511E+02  0.16347437184E+03  0.16798828817E+03  0.00000000000E+00 0. -1.
</event>
<event>
 7    1  0.5109948E-006  0.1097433E+03  0.7561462E-02  0.1261046E+00
          1   -1    0    0  501    0  0.00000000000E+00  0.00000000000E+00  0.41782595379E+03  0.41782595379E+03  0.00000000000E+00 0. -1.
         -1   -1    0    0    0  501 -0.00000000000E+00 -0.00000000000E+00 -0.36172853714E+02  0.36172853714E+02  0.00000000000E+00 0.  1.
         23    2    1    2    0    0  0.72221642801E+01  0.49532839258E+02  0.17309612497E+03  0.21935082831E+03  0.12508739177E+03 0.  0.
          5    1    3    3  502    0  0.29029285563E+02 -0.33835874334E+02  0.36402729576E+02  0.57707858501E+02  0.41800000000E+01 0. -1.
         -5    1    3    3    0  502 -0.21807121282E+02  0.83368713592E+02  0.13669339539E+03  0.16164296981E+03  0.41800000000E+01 0. -1.
        -11    1    1    2    0    0 -0.32903253639E+01  0.19254863612E+02  0.56090828697E+01  0.20323332019E+02  0.00000000000E+00 0.  1.
         11    1    1    2    0    0 -0.39318389162E+01 -0.68787702869E+02  0.20294789223E+03  0.21432464717E+03  0.00000000000E+00 0. -1.
</event>
<event>
 7    1  0.5109948E-006  0.1219408E+03  0.7561462E-02  0.1239929E+00
         -2   -1    0    0    0  501 -0.00000000000E+00  0.00000000000E+00  0.15660439464E+03  0.15660439464E+03  0.00000000000E+00 0.  1.
          2   -1    0    0  501    0  0.00000000000E+00 -0.00000000000E+00 -0.13315328026E+03  0.13315328026E+03  0.00000000000E+00 0. -1.
         23    2    1    2    0    0 -0.40316395125E+02  0.79888511061E+02  0.57342974763E+02  0.16414247478E+03  0.12508776661E+03 0.  0.
          5    1    3    3  502    0  0.44866096456E+02  0.25489916160E+02  0.27786328838E+02  0.58755892533E+02  0.41800000000E+01 0. -1.
         -5    1    3    3    0  502 -0.85182491580E+02  0.54398594901E+02  0.29556645925E+02  0.10538658225E+03  0.41800000000E+01 0. -1.
        -11    1    1    2    0    0  0.25651336562E+02 -0.65779221020E+02  0.15420997763E+02  0.72268279054E+02  0.00000000000E+00 0.  1.
         11    1    1    2    0    0  0.14665058563E+02 -0.14109290041E+02 -0.49312858150E+02  0.53346921065E+02  0.00000000000E+00 0. -1.
</event>
<event>
 7    1  0.5109948E-006  0.1337178E+03  0.7561462E-02  0.1222041E+00
         -1   -1    0    0    0  501 -0.00000000000E+00  0.00000000000E+00  0.93298563535E+02  0.93298563535E+02  0.00000000000E+00 0.  1.
          1   -1    0    0  501    0  0.00000000000E+00 -0.00000000000E+00 -0.21844378145E+03  0.21844378145E+03  0.00000000000E+00 0. -1.
         23    2    1    2    0    0  0.65163105825E+02 -0.47926924233E+02 -0.16919498246E+02  0.14991954540E+03  0.12508549174E+03 0.  0.
          5    1    3    3  502    0 -0.13592107104E+02  0.32515594939E+02 -0.10815389340E+02  0.37100597520E+02  0.41800000000E+01 0.  1.
         -5    1    3    3    0  502  0.78755212929E+02 -0.80442519172E+02 -0.61041089063E+01  0.11281894788E+03  0.41800000000E+01 0.  1.
        -11    1    1    2    0    0 -0.81746179414E+02  0.15973214813E+02 -0.65563438178E+02  0.10600068804E+03  0.00000000000E+00 0.  1.
         11    1    1    2    0    0  0.16583073588E+02  0.31953709420E+02 -0.42662281488E+02  0.55822111543E+02  0.00000000000E+00 0. -1.
</event>
<event>
 7    1  0.5109948E-006  0.1208132E+03  0.7561462E-02  0.1241761E+00
         -1   -1    0    0    0  501 -0.00000000000E+00  0.00000000000E+00  0.18081417186E+03  0.18081417186E+03  0.00000000000E+00 0.  1.
          1   -1    0    0  501    0  0.00000000000E+00 -0.00000000000E+00 -0.13049352877E+03  0.13049352877E+03  0.00000000000E+00 0. -1.
         23    2    1    2    0    0 -0.53787908363E+02 -0.91371947525E+02  0.49152286429E+02  0.17116070000E+03  0.12505225340E+03 0.  0.
          5    1    3    3  502    0 -0.18841785886E+02 -0.34369625250E+02  0.86072028374E+02  0.94668635269E+02  0.41800000000E+01 0. -1.
         -5    1    3    3    0  502 -0.34946122477E+02 -0.57002322275E+02 -0.36919741945E+02  0.76492064728E+02  0.41800000000E+01 0. -1.
        -11    1    1    2    0    0  0.76681182050E+02  0.67788855679E+02  0.16855803571E+02  0.10372777231E+03  0.00000000000E+00 0.  1.
         11    1    1    2    0    0 -0.22893273687E+02  0.23583091846E+02 -0.15687446911E+02  0.36419228324E+02  0.00000000000E+00 0. -1.
</event>
<event>
 7    1  0.5109948E-006  0.1115651E+03  0.7561462E-02  0.1257699E+00
         -1   -1    0    0    0  501 -0.00000000000E+00  0.00000000000E+00  0.37566902162E+02  0.37566902162E+02  0.00000000000E+00 0.  1.
          1   -1    0    0  501    0  0.00000000000E+00 -0.00000000000E+00 -0.46164318840E+03  0.46164318840E+03  0.00000000000E+00 0. -1.
         23    2    1    2    0    0 -0.29283810676E+02 -0.52709875778E+02 -0.16900695913E+03  0.21873895219E+03  0.12508998520E+03 0.  0.
          5    1    3    3  502    0  0.12010385156E+02 -0.80479031684E+02 -0.13708261297E+03  0.15946861469E+03  0.41800000000E+01 0. -1.
         -5    1    3    3    0  502 -0.41294195832E+02  0.27769155906E+02 -0.31924346160E+02  0.59270337496E+02  0.41800000000E+01 0. -1.
        -11    1    1    2    0    0 -0.78180532305E+01  0.54026553499E+02 -0.56890428443E+02  0.78844855811E+02  0.00000000000E+00 0.  1.
         11    1    1    2    0    0  0.37101863907E+02 -0.13166777213E+01 -0.19817889866E+03  0.20162628256E+03  0.00000000000E+00 0. -1.
</event>
<event>
 7    1  0.5109948E-006  0.9579692E+02  0.7561462E-02  0.1289391E+00
          2   -1    0    0  501    0  0.00000000000E+00  0.00000000000E+00  0.29332517721E+03  0.29332517721E+03  0.00000000000E+00 0. -1.
         -2   -1    0    0    0  501 -0.00000000000E+00 -0.00000000000E+00 -0.52301628371E+02  0.52301628371E+02  0.00000000000E+00 0.  1.
         23    2    1    2    0    0 -0.63396681041E+02 -0.60510697566E+00  0.12103691592E+03  0.18524689872E+03  0.12508786171E+03 0.  0.
          5    1    3    3  502    0 -0.37925735364E+02 -0.29874630307E+02 -0.91682685331E+01  0.49319210119E+02  0.41800000000E+01 0. -1.
         -5    1    3    3    0  502 -0.25470945677E+02  0.29269523332E+02  0.13020518445E+03  0.13592768860E+03  0.41800000000E+01 0. -1.
        -11    1    1    2    0    0 -0.13980951356E+02  0.19939598374E+02  0.15251726986E+02  0.28734469896E+02  0.00000000000E+00 0.  1.
         11    1    1    2    0    0  0.77377632397E+02 -0.19334491398E+02  0.10473490593E+03  0.13164543696E+03  0.00000000000E+00 0. -1.
</event>
<event>
 7    1  0.5109948E-006  0.1144387E+03  0.7561462E-02  0.1252564E+00
         -2   -1    0    0    0  501 -0.00000000000E+00  0.00000000000E+00  0.30664879334E+02  0.30664879334E+02  0.00000000000E+00 0.  1.
          2   -1    0    0  501    0  0.00000000000E+00 -0.00000000000E+00 -0.48134173930E+03  0.48134173930E+03  0.00000000000E+00 0. -1.
         23    2    1    2    0    0  0.12697122475E+02  0.57404554739E+02 -0.25368353477E+03  0.28888812769E+03  0.12507803439E+03 0.  0.
          5    1    3    3  502    0  0.55239893083E+02  0.73887167627E+02 -0.17291814588E+03  0.19603294851E+03  0.41800000000E+01 0. -1.
         -5    1    3    3    0  502 -0.42542770608E+02 -0.16482612888E+02 -0.80765388887E+02  0.92855179180E+02  0.41800000000E+01 0. -1.
        -11    1    1    2    0    0  0.11663985849E+00 -0.71594386688E+02 -0.92914931643E+02  0.11729856918E+03  0.00000000000E+00 0.  1.
         11    1    1    2    0    0 -0.12813762333E+02  0.14189831949E+02 -0.10407839356E+03  0.10581992176E+03  0.00000000000E+00 0. -1.
</event>
<event>
 7    1  0.5109948E-006  0.1375242E+03  0.7561462E-02  0.1216700E+00
          1   -1    0    0  501    0  0.00000000000E+00  0.00000000000E+00  0.28438900149E+03  0.28438900149E+03  0.00000000000E+00 0. -1.
         -1   -1    0    0    0  501 -0.00000000000E+00 -0.00000000000E+00 -0.99970761140E+02  0.99970761140E+02  0.00000000000E+00 0.  1.
         23    2    1    2    0    0 -0.59067632170E+02 -0.10880513386E+03  0.57062611930E+02  0.18501543127E+03  0.12508807219E+03 0.  0.
          5    1    3    3  502    0 -0.60366640530E+02 -0.10353419504E+03 -0.74389193151E+01  0.12015103309E+03  0.41800000000E+01 0. -1.
         -5    1    3    3    0  502  0.12990083595E+01 -0.52709388142E+01  0.64501531245E+02  0.64864398183E+02  0.41800000000E+01 0. -1.
        -11    1    1    2    0    0  0.47225237798E+02  0.12183588885E+03  0.91875272236E+02  0.15973500726E+03  0.00000000000E+00 0.  1.
         11    1    1    2    0    0  0.11842394372E+02 -0.13030754994E+02  0.35480356180E+02  0.39609324090E+02  0.00000000000E+00 0. -1.
</event>
<event>
 7    1  0.5109948E-006  0.1118035E+03  0.7561462E-02  0.1257266E+00
         -3   -1    0    0    0  501 -0.00000000000E+00  0.00000000000E+00  0.55622266574E+03  0.55622266574E+03  0.00000000000E+00 0.  1.
          3   -1    0    0  501    0  0.00000000000E+00 -0.00000000000E+00 -0.47099682421E+02  0.47099682421E+02  0.00000000000E+00 0. -1.
         23    2    1    2    0    0  0.48166616056E+02 -0.53701436806E+02  0.45465979904E+03  0.47704159029E+03  0.12509707745E+03 0.  0.
          5    1    3    3  502    0  0.30773858642E+02  0.28251307574E+02  0.28173273638E+03  0.28484377105E+03  0.41800000000E+01 0. -1.
         -5    1    3    3    0  502  0.17392757415E+02 -0.81952744380E+02  0.17292706266E+03  0.19219781924E+03  0.41800000000E+01 0. -1.
        -11    1    1    2    0    0  0.14142089325E+02 -0.18523768911E+01 -0.12731501032E+02  0.19118606360E+02  0.00000000000E+00 0. -1.
         11    1    1    2    0    0 -0.62308705381E+02  0.55553813697E+02  0.67194685313E+02  0.10716215151E+03  0.00000000000E+00 0.  1.
</event>
<event>
 7    1  0.5109948E-006  0.1659174E+03  0.7561462E-02  0.1182173E+00
         -1   -1    0    0    0  501 -0.00000000000E+00  0.00000000000E+00  0.63825914321E+02  0.63825914321E+02  0.00000000000E+00 0.  1.
          1   -1    0    0  501    0  0.00000000000E+00 -0.00000000000E+00 -0.58408494669E+03  0.58408494669E+03  0.00000000000E+00 0. -1.
         23    2    1    2    0    0  0.82561072253E+02  0.13197197295E+03 -0.21053467827E+03  0.29017312259E+03  0.12507061213E+03 0.  0.
          5    1    3    3  502    0  0.44319071276E+02  0.65312668872E+02 -0.15559358403E+02  0.80557375999E+02  0.41800000000E+01 0.  1.
         -5    1    3    3    0  502  0.38242000977E+02  0.66659304080E+02 -0.19497531987E+03  0.20961574659E+03  0.41800000000E+01 0.  1.
        -11    1    1    2    0    0 -0.81987312623E+02 -0.54706505495E+02 -0.13959832795E+03  0.17088713919E+03  0.00000000000E+00 0. -1.
         11    1    1    2    0    0 -0.57375963059E+00 -0.77265467457E+02 -0.17012602616E+03  0.18685059924E+03  0.00000000000E+00 0.  1.
</event>
<event>
 7    1  0.5109948E-006  0.2527982E+03  0.7561462E-02  0.1111549E+00
          2   -1    0    0  501    0  0.00000000000E+00  0.00000000000E+00  0.71468405873E+03  0.71468405873E+03  0.00000000000E+00 0. -1.
         -2   -1    0    0    0  501 -0.00000000000E+00 -0.00000000000E+00 -0.10461020204E+03  0.10461020204E+03  0.00000000000E+00 0.  1.
         23    2    1    2    0    0  0.11729854514E+03  0.20449221694E+03  0.44180585378E+03  0.51616203511E+03  0.12511921744E+03 0.  0.
          5    1    3    3  502    0 -0.11260508860E+02  0.91227062640E+02  0.11635562297E+03  0.14834176557E+03  0.41800000000E+01 0.  1.
         -5    1    3    3    0  502  0.12855905400E+03  0.11326515430E+03  0.32545023081E+03  0.36782026953E+03  0.41800000000E+01 0.  1.
        -11    1    1    2    0    0 -0.35843250104E+02 -0.21264813317E+02  0.48731604377E+00  0.41679351487E+02  0.00000000000E+00 0.  1.
         11    1    1    2    0    0 -0.81455295033E+02 -0.18322740362E+03  0.16778068686E+03  0.26145287417E+03  0.00000000000E+00 0. -1.
</event>
<event>
 7    1  0.5109948E-006  0.1139091E+03  0.7561462E-02  0.1253497E+00
         -2   -1    0    0    0  501 -0.00000000000E+00  0.00000000000E+00  0.52297560770E+02  0.52297560770E+02  0.00000000000E+00 0.  1.
          2   -1    0    0  501    0  0.00000000000E+00 -0.00000000000E+00 -0.28262313155E+03  0.28262313155E+03  0.00000000000E+00 0. -1.
         23    2    1    2    0    0 -0.14624016522E+02 -0.50688404894E+02 -0.10809868106E+03  0.17353796268E+03  0.12508766284E+03 0.  0.
          5    1    3    3  502    0  0.22575935245E+02  0.30499803024E+02 -0.62352863040E+02  0.73111303955E+02  0.41800000000E+01 0. -1.
         -5    1    3    3    0  502 -0.37199951768E+02 -0.81188207918E+02 -0.45745818020E+02  0.10042665873E+03  0.41800000000E+01 0. -1.
        -11    1    1    2    0    0 -0.27757119036E+02 -0.70292660098E+01 -0.14677412966E+02  0.32175995543E+02  0.00000000000E+00 0.  1.
         11    1    1    2    0    0  0.42381135559E+02  0.57717670904E+02 -0.10754947675E+03  0.12920673410E+03  0.00000000000E+00 0. -1.
</event>
<event>
 7    1  0.5109948E-006  0.1207531E+03  0.7561462E-02  0.1241860E+00
          2   -1    0    0  501    0  0.00000000000E+00  0.00000000000E+00  0.21152645868E+03  0.21152645868E+03  0.00000000000E+00 0. -1.
         -2   -1    0    0    0  501 -0.00000000000E+00 -0.00000000000E+00 -0.10576993801E+03  0.10576993801E+03  0.00000000000E+00 0.  1.
         23    2    1    2    0    0 -0.48993014747E+02 -0.67964259253E+02 -0.41245705766E+01  0.15061277877E+03  0.12509093099E+03 0.  0.
          5    1    3    3  502    0  0.35881898051E+02  0.44701956075E+01 -0.12875882176E+02  0.38610283583E+02  0.41800000000E+01 0.  1.
         -5    1    3    3    0  502 -0.84874912799E+02 -0.72434454860E+02  0.87513115993E+01  0.11200249519E+03  0.41800000000E+01 0.  1.
        -11    1    1    2    0    0  0.22981216934E+02  0.62872160817E+02  0.15581960311E+02  0.68730214787E+02  0.00000000000E+00 0. -1.
         11    1    1    2    0    0  0.26011797813E+02  0.50920984361E+01  0.94299130926E+02  0.97953403133E+02  0.00000000000E+00 0.  1.
</event>
<event>
 7    1  0.5109948E-006  0.1362670E+03  0.7561462E-02  0.1218442E+00
         -4   -1    0    0    0  501 -0.00000000000E+00  0.00000000000E+00  0.22837880671E+03  0.22837880671E+03  0.00000000000E+00 0.  1.
          4   -1    0    0  501    0  0.00000000000E+00 -0.00000000000E+00 -0.10199261929E+03  0.10199261929E+03  0.00000000000E+00 0. -1.
         23    2    1    2    0    0  0.20747903074E+02 -0.99596258196E+02  0.10270187525E+03  0.19117528763E+03  0.12510165984E+03 0.  0.
          5    1    3    3  502    0  0.65652757398E+02 -0.93018414332E+02  0.85566239865E+02  0.14248425795E+03  0.41800000000E+01 0.  1.
         -5    1    3    3    0  502 -0.44904854324E+02 -0.65778438648E+01  0.17135635382E+02  0.48691029684E+02  0.41800000000E+01 0.  1.
        -11    1    1    2    0    0 -0.34646195539E+02  0.89135502693E+02  0.49796689305E+02  0.10782025307E+03  0.00000000000E+00 0.  1.
         11    1    1    2    0    0  0.13898292465E+02  0.10460755504E+02 -0.26112377132E+02  0.31375885305E+02  0.00000000000E+00 0. -1.
</event>
<event>
 7    1  0.5109948E-006  0.1604027E+03  0.7561462E-02  0.1188243E+00
          1   -1    0    0  501    0  0.00000000000E+00  0.00000000000E+00  0.45576395616E+03  0.45576395616E+03  0.00000000000E+00 0. -1.
         -1   -1    0    0    0  501 -0.00000000000E+00 -0.00000000000E+00 -0.98133877239E+02  0.98133877239E+02  0.00000000000E+00 0.  1.
         23    2    1    2    0    0 -0.63978671361E+02 -0.12591483256E+03  0.37162046265E+02  0.19228842303E+03  0.12508398978E+03 0.  0.
          5    1    3    3  502    0 -0.29363078156E+02 -0.61755845272E+01 -0.36508926892E+02  0.47441567700E+02  0.41800000000E+01 0. -1.
         -5    1    3    3    0  502 -0.34615593205E+02 -0.11973924803E+03  0.73670973157E+02  0.14484685533E+03  0.41800000000E+01 0. -1.
        -11    1    1    2    0    0  0.85206367651E+02  0.11063189514E+03  0.28667133468E+03  0.31887300832E+03  0.00000000000E+00 0. -1.
         11    1    1    2    0    0 -0.21227696291E+02  0.15282937420E+02  0.33796697976E+02  0.42736402049E+02  0.00000000000E+00 0.  1.
</event>
<event>
 7    1  0.5109948E-006  0.9310113E+02  0.7561462E-02  0.1295511E+00
          2   -1    0    0  501    0  0.00000000000E+00  0.00000000000E+00  0.32258037750E+03  0.32258037750E+03  0.00000000000E+00 0.  1.
         -2   -1    0    0    0  501 -0.00000000000E+00 -0.00000000000E+00 -0.51170695256E+02  0.51170695256E+02  0.00000000000E+00 0. -1.
         23    2    1    2    0    0 -0.37310682281E+02  0.55870399069E+02  0.12635847062E+03  0.19007212399E+03  0.12508941089E+03 0.  0.
          5    1    3    3  502    0  0.82049972813E+01  0.10011163732E+02 -0.23315903187E+02  0.26993501460E+02  0.41800000000E+01 0. -1.
         -5    1    3    3    0  502 -0.45515679562E+02  0.45859235337E+02  0.14967437380E+03  0.16307862253E+03  0.41800000000E+01 0. -1.
        -11    1    1    2    0    0 -0.16453271109E+02 -0.51324185150E+02  0.99097458196E+02  0.11280597649E+03  0.00000000000E+00 0.  1.
         11    1    1    2    0    0  0.53763953390E+02 -0.45462139194E+01  0.45953753436E+02  0.70872972282E+02  0.00000000000E+00 0. -1.
</event>
<event>
 7    1  0.5109948E-006  0.1968584E+03  0.7561462E-02  0.1152417E+00
         -1   -1    0    0    0  501 -0.00000000000E+00  0.00000000000E+00  0.18709097628E+03  0.18709097628E+03  0.00000000000E+00 0.  1.
          1   -1    0    0  501    0  0.00000000000E+00 -0.00000000000E+00 -0.35175718857E+03  0.35175718857E+03  0.00000000000E+00 0. -1.
         23    2    1    2    0    0 -0.10827494639E+03  0.13710264332E+03  0.76155525820E+02  0.22796469740E+03  0.12509052853E+03 0.  0.
          5    1    3    3  502    0 -0.98901164370E+02  0.27803807224E+02  0.53366909526E+02  0.11584468672E+03  0.41800000000E+01 0.  1.
         -5    1    3    3    0  502 -0.93737820191E+01  0.10929883610E+03  0.22788616294E+02  0.11212001068E+03  0.41800000000E+01 0.  1.
        -11    1    1    2    0    0  0.88354196267E+02 -0.13464432522E+03 -0.15779797759E+03  0.22546786921E+03  0.00000000000E+00 0.  1.
         11    1    1    2    0    0  0.19920750122E+02 -0.24583180976E+01 -0.83023760519E+02  0.85415598248E+02  0.00000000000E+00 0. -1.
</event>
<event>
 7    1  0.5109948E-006  0.1089245E+03  0.7561462E-02  0.1262575E+00
         -1   -1    0    0    0  501 -0.00000000000E+00  0.00000000000E+00  0.37817190327E+02  0.37817190327E+02  0.00000000000E+00 0.  1.
          1   -1    0    0  501    0  0.00000000000E+00 -0.00000000000E+00 -0.40767454060E+03  0.40767454060E+03  0.00000000000E+00 0. -1.
         23    2    1    2    0    0 -0.39313667161E+01 -0.36594458183E+02 -0.11204297681E+03  0.17195431044E+03  0.12514010633E+03 0.  0.
          5    1    3    3  502    0  0.43500745597E+02 -0.62244968799E+02 -0.71186997593E+02  0.10417203096E+03  0.41800000000E+01 0. -1.
         -5    1    3    3    0  502 -0.47432112313E+02  0.25650510616E+02 -0.40855979212E+02  0.67782279474E+02  0.41800000000E+01 0. -1.
        -11    1    1    2    0    0 -0.37138684447E+02  0.89483957618E+01 -0.75416372741E+02  0.84539842362E+02  0.00000000000E+00 0. -1.
         11    1    1    2    0    0  0.41070051163E+02  0.27646062421E+02 -0.18239800072E+03  0.18899757813E+03  0.00000000000E+00 0.  1.
</event>
<event>
 7    1  0.5109948E-006  0.1100891E+03  0.7561462E-02  0.1260405E+00
         -2   -1    0    0    0  501 -0.00000000000E+00  0.00000000000E+00  0.92136268031E+02  0.92136268031E+02  0.00000000000E+00 0.  1.
          2   -1    0    0  501    0  0.00000000000E+00 -0.00000000000E+00 -0.19577139597E+03  0.19577139597E+03  0.00000000000E+00 0. -1.
         23    2    1    2    0    0  0.63794102072E+02 -0.29801274769E+02 -0.15540586117E+02  0.14255718937E+03  0.12297657901E+03 0.  0.
          5    1    3    3  502    0  0.79427671213E+02  0.22052522948E+02  0.88520145045E+01  0.83011440678E+02  0.41800000000E+01 0. -1.
         -5    1    3    3    0  502 -0.15633569141E+02 -0.51853797717E+02 -0.24392600621E+02  0.59545748688E+02  0.41800000000E+01 0.  1.
        -11    1    1    2    0    0 -0.28702288670E+02 -0.98730583522E+01  0.11571767310E+02  0.32483910707E+02  0.00000000000E+00 0.  1.
         11    1    1    2    0    0 -0.35091813402E+02  0.39674333121E+02 -0.99666309128E+02  0.11286656392E+03  0.00000000000E+00 0. -1.
</event>
<event>
 6    1  0.5109948E-006  0.1406670E+03  0.7561462E-02  0.1212434E+00
         -1   -1    0    0    0  501 -0.00000000000E+00  0.00000000000E+00  0.11605669912E+03  0.11605669912E+03  0.00000000000E+00 0.  1.
          1   -1    0    0  501    0  0.00000000000E+00 -0.00000000000E+00 -0.27570677161E+03  0.27570677161E+03  0.00000000000E+00 0. -1.
          5    1    1    2  502    0  0.10391656132E+03 -0.17622432541E+01 -0.80653803514E+02  0.13162167618E+03  0.41800000000E+01 0. -1.
         -5    1    1    2    0  502 -0.57346640548E+02 -0.49044763591E+02  0.53858780103E+02  0.92802298528E+02  0.41800000000E+01 0.  1.
        -11    1    1    2    0    0  0.59598512451E+01  0.48813895186E+02 -0.64591729488E+02  0.81181326106E+02  0.00000000000E+00 0. -1.
         11    1    1    2    0    0 -0.52529772020E+02  0.19931116586E+01 -0.68263319587E+02  0.86158169918E+02  0.00000000000E+00 0.  1.
</event>
<event>
 7    1  0.5109948E-006  0.9980514E+02  0.7561462E-02  0.1280706E+00
         -2   -1    0    0    0  501 -0.00000000000E+00  0.00000000000E+00  0.13957306591E+03  0.13957306591E+03  0.00000000000E+00 0.  1.
          2   -1    0    0  501    0  0.00000000000E+00 -0.00000000000E+00 -0.21898690471E+03  0.21898690471E+03  0.00000000000E+00 0. -1.
         23    2    1    2    0    0 -0.24548075292E+02 -0.72096888967E+02  0.74725694393E+02  0.16440904600E+03  0.12508331465E+03 0.  0.
          5    1    3    3  502    0 -0.46022089490E+02 -0.20733532386E+02 -0.20000219557E+02  0.54455424602E+02  0.41800000000E+01 0. -1.
         -5    1    3    3    0  502  0.21474014198E+02 -0.51363356582E+02  0.94725913949E+02  0.10995362140E+03  0.41800000000E+01 0. -1.
        -11    1    1    2    0    0 -0.16230569228E+02  0.32320553435E+02 -0.12507552970E+03  0.13019960707E+03  0.00000000000E+00 0. -1.
         11    1    1    2    0    0  0.40778644520E+02  0.39776335533E+02 -0.29064003494E+02  0.63951317550E+02  0.00000000000E+00 0.  1.
</event>
<event>
 7    1  0.5109948E-006  0.9987041E+02  0.7561462E-02  0.1280569E+00
          1   -1    0    0  501    0  0.00000000000E+00  0.00000000000E+00  0.94264073763E+03  0.94264073763E+03  0.00000000000E+00 0. -1.
         -1   -1    0    0    0  501 -0.00000000000E+00 -0.00000000000E+00 -0.18770137476E+02  0.18770137476E+02  0.00000000000E+00 0.  1.
         23    2    1    2    0    0  0.38284136927E+02 -0.55002644424E+02  0.45418172412E+03  0.47583511470E+03  0.12508817618E+03 0.  0.
          5    1    3    3  502    0 -0.11495510599E+01  0.44870685349E+01  0.34664317158E+03  0.34669931649E+03  0.41800000000E+01 0.  1.
         -5    1    3    3    0  502  0.39433687987E+02 -0.59489712959E+02  0.10753855254E+03  0.12913579821E+03  0.41800000000E+01 0.  1.
        -11    1    1    2    0    0  0.32575606831E+02  0.36191028258E+02  0.15544411865E+03  0.16289209530E+03  0.00000000000E+00 0.  1.
         11    1    1    2    0    0 -0.70859743758E+02  0.18811616166E+02  0.31424475738E+03  0.32268366511E+03  0.00000000000E+00 0. -1.
</event>
<event>
 7    1  0.5109948E-006  0.1041086E+03  0.7561462E-02  0.1271886E+00
          3   -1    0    0  501    0  0.00000000000E+00  0.00000000000E+00  0.21650126243E+03  0.21650126243E+03  0.00000000000E+00 0. -1.
         -3   -1    0    0    0  501 -0.00000000000E+00 -0.00000000000E+00 -0.73889988339E+02  0.73889988339E+02  0.00000000000E+00 0.  1.
         23    2    1    2    0    0  0.23767198153E+02 -0.50327510827E+02  0.39646144605E+02  0.14253074149E+03  0.12508180297E+03 0.  0.
          5    1    3    3  502    0  0.22700380956E+02  0.37526114847E+02  0.31572341148E+02  0.54201491831E+02  0.41800000000E+01 0. -1.
         -5    1    3    3    0  502  0.10668171978E+01 -0.87853625674E+02  0.80738034562E+01  0.88329249659E+02  0.41800000000E+01 0. -1.
        -11    1    1    2    0    0 -0.34338050583E+02  0.11893050702E+02  0.10167955768E+03  0.10797814048E+03  0.00000000000E+00 0. -1.
         11    1    1    2    0    0  0.10570852430E+02  0.38434460125E+02  0.12855718117E+01  0.39882368800E+02  0.00000000000E+00 0.  1.
</event>
<event>
 7    1  0.5109948E-006  0.9125373E+02  0.7561462E-02  0.1299844E+00
          1   -1    0    0  501    0  0.00000000000E+00  0.00000000000E+00  0.25373864344E+03  0.25373864344E+03  0.00000000000E+00 0. -1.
         -1   -1    0    0    0  501 -0.00000000000E+00 -0.00000000000E+00 -0.56879850962E+02  0.56879850962E+02  0.00000000000E+00 0.  1.
         23    2    1    2    0    0 -0.13175868454E+02 -0.40049809705E+02  0.72112369435E+02  0.15041919984E+03  0.12509257007E+03 0.  0.
          5    1    3    3  502    0  0.11446079493E+02 -0.75646503059E+02  0.14082497447E+02  0.77905040243E+02  0.41800000000E+01 0.  1.
         -5    1    3    3    0  502 -0.24621947947E+02  0.35596693355E+02  0.58029871988E+02  0.72514159593E+02  0.41800000000E+01 0.  1.
        -11    1    1    2    0    0 -0.79346805109E+01  0.40516678140E+02  0.13165921966E+03  0.13798083376E+03  0.00000000000E+00 0. -1.
         11    1    1    2    0    0  0.21110548965E+02 -0.46686843537E+00 -0.69127966173E+01  0.22218460811E+02  0.00000000000E+00 0.  1.
</event>
<event>
 7    1  0.5109948E-006  0.8406320E+02  0.7561462E-02  0.1317901E+00
         -1   -1    0    0    0  501 -0.00000000000E+00  0.00000000000E+00  0.37999994937E+03  0.37999994937E+03  0.00000000000E+00 0.  1.
          1   -1    0    0  501    0  0.00000000000E+00 -0.00000000000E+00 -0.35781966224E+02  0.35781966224E+02  0.00000000000E+00 0. -1.
         23    2    1    2    0    0  0.35800020499E+01  0.39704451204E+02  0.22197452147E+03  0.25789687088E+03  0.12509535549E+03 0.  0.
          5    1    3    3  502    0 -0.36148103792E+02  0.15998442450E+02  0.10132338840E+02  0.41021607220E+02  0.41800000000E+01 0.  1.
         -5    1    3    3    0  502  0.39728105842E+02  0.23706008754E+02  0.21184218263E+03  0.21687526366E+03  0.41800000000E+01 0.  1.
        -11    1    1    2    0    0  0.46206731650E+01 -0.59925488970E+02  0.12206928888E+03  0.13606368412E+03  0.00000000000E+00 0.  1.
         11    1    1    2    0    0 -0.82006752149E+01  0.20221037766E+02  0.17417280044E+00  0.21821360601E+02  0.00000000000E+00 0. -1.
</event>
<event>
 7    1  0.5109948E-006  0.1246954E+03  0.7561462E-02  0.1235546E+00
          1   -1    0    0  501    0  0.00000000000E+00  0.00000000000E+00  0.17271520885E+03  0.17271520885E+03  0.00000000000E+00 0. -1.
         -1   -1    0    0    0  501 -0.00000000000E+00 -0.00000000000E+00 -0.22895596285E+03  0.22895596285E+03  0.00000000000E+00 0.  1.
         23    2    1    2    0    0 -0.62052463620E+02 -0.29523885959E+02 -0.18193137040E+03  0.23122976181E+03  0.12508401627E+03 0.  0.
          5    1    3    3  502    0 -0.53003012067E+01 -0.69365407466E+02 -0.65453952813E+02  0.95610382724E+02  0.41800000000E+01 0.  1.
         -5    1    3    3    0  502 -0.56752162413E+02  0.39841521508E+02 -0.11647741759E+03  0.13561937908E+03  0.41800000000E+01 0.  1.
        -11    1    1    2    0    0  0.69413282860E+02 -0.99090365738E+01  0.54811556627E+02  0.88998312249E+02  0.00000000000E+00 0. -1.
         11    1    1    2    0    0 -0.73608192408E+01  0.39432922533E+02  0.70879059770E+02  0.81443097640E+02  0.00000000000E+00 0.  1.
</event>
<event>
 7    1  0.5109948E-006  0.1003878E+03  0.7561462E-02  0.1279483E+00
          1   -1    0    0  501    0  0.00000000000E+00  0.00000000000E+00  0.56704233969E+02  0.56704233969E+02  0.00000000000E+00 0. -1.
         -1   -1    0    0    0  501 -0.00000000000E+00 -0.00000000000E+00 -0.23459583124E+03  0.23459583124E+03  0.00000000000E+00 0.  1.
         23    2    1    2    0    0  0.20108881124E+02 -0.27850510998E+02 -0.12666999821E+03  0.18130762090E+03  0.12508855617E+03 0.  0.
          5    1    3    3  502    0  0.72703311895E+02 -0.15865905810E+02 -0.84772134693E+02  0.11287730395E+03  0.41800000000E+01 0. -1.
         -5    1    3    3    0  502 -0.52594430770E+02 -0.11984605188E+02 -0.41897863518E+02  0.68430316943E+02  0.41800000000E+01 0. -1.
        -11    1    1    2    0    0  0.16832095251E+02  0.30780925546E+02 -0.62140867714E+02  0.71360158689E+02  0.00000000000E+00 0.  1.
         11    1    1    2    0    0 -0.36940976375E+02 -0.29304145477E+01  0.10919268649E+02  0.38632285627E+02  0.00000000000E+00 0. -1.
</event>
<event>
 7    1  0.5109948E-006  0.9692111E+02  0.7561462E-02  0.1286907E+00
         -2   -1    0    0    0  501 -0.00000000000E+00  0.00000000000E+00  0.59024780809E+02  0.59024780809E+02  0.00000000000E+00 0.  1.
          2   -1    0    0  501    0  0.00000000000E+00 -0.00000000000E+00 -0.43726803963E+03  0.43726803963E+03  0.00000000000E+00 0. -1.
         23    2    1    2    0    0  0.44320894448E+02  0.37205130936E+02 -0.42713129469E+02  0.14429647108E+03  0.12509395142E+03 0.  0.
          5    1    3    3  502    0  0.27610964696E+02 -0.17261692754E+02 -0.72707053846E+02  0.79775431602E+02  0.41800000000E+01 0. -1.
         -5    1    3    3    0  502  0.16709929752E+02  0.54466823690E+02  0.29993924377E+02  0.64521039474E+02  0.41800000000E+01 0. -1.
        -11    1    1    2    0    0  0.14786047533E+02 -0.42057515720E+02 -0.18275732641E+03  0.18811619332E+03  0.00000000000E+00 0. -1.
         11    1    1    2    0    0 -0.59106941981E+02  0.48523847842E+01 -0.15277280293E+03  0.16388015604E+03  0.00000000000E+00 0.  1.
</event>
<event>
 7    1  0.5109948E-006  0.1115819E+03  0.7561462E-02  0.1257668E+00
         -1   -1    0    0    0  501 -0.00000000000E+00  0.00000000000E+00  0.14473224760E+03  0.14473224760E+03  0.00000000000E+00 0.  1.
          1   -1    0    0  501    0  0.00000000000E+00 -0.00000000000E+00 -0.12947687836E+03  0.12947687836E+03  0.00000000000E+00 0. -1.
         23    2    1    2    0    0  0.58776237711E+02  0.57661866058E+02  0.13187572541E+01  0.14975363693E+03  0.12507947768E+03 0.  0.
          5    1    3    3  502    0  0.48560912007E+02  0.82202613981E+02  0.39195347265E+02  0.10329172071E+03  0.41800000000E+01 0. -1.
         -5    1    3    3    0  502  0.10215325704E+02 -0.24540747923E+02 -0.37876590011E+02  0.46461916218E+02  0.41800000000E+01 0. -1.
        -11    1    1    2    0    0 -0.68486943016E+02 -0.36962056007E+02 -0.22878824691E+02  0.81117788229E+02  0.00000000000E+00 0. -1.
         11    1    1    2    0    0  0.97107053046E+01 -0.20699810051E+02  0.36815436670E+02  0.43337700803E+02  0.00000000000E+00 0.  1.
</event>
<event>
 7    1  0.5109948E-006  0.1752040E+03  0.7561462E-02  0.1172527E+00
         -2   -1    0    0    0  501 -0.00000000000E+00  0.00000000000E+00  0.65884819301E+03  0.65884819301E+03  0.00000000000E+00 0.  1.
          2   -1    0    0  501    0  0.00000000000E+00 -0.00000000000E+00 -0.68312812722E+02  0.68312812722E+02  0.00000000000E+00 0. -1.
         23    2    1    2    0    0  0.27453872648E+02  0.14206937472E+03  0.49675856977E+03  0.53231013277E+03  0.12509028122E+03 0.  0.
          5    1    3    3  502    0  0.17096337078E+02 -0.15557959557E+02  0.22933762803E+02  0.32829327184E+02  0.41800000000E+01 0. -1.
         -5    1    3    3    0  502  0.10357535570E+02  0.15762733428E+03  0.47382480697E+03  0.49948080559E+03  0.41800000000E+01 0. -1.
        -11    1    1    2    0    0  0.16237486011E+02 -0.11780327047E+03  0.52324863786E+02  0.12991981317E+03  0.00000000000E+00 0. -1.
         11    1    1    2    0    0 -0.43691358659E+02 -0.24266104256E+02  0.41451946732E+02  0.64931059787E+02  0.00000000000E+00 0.  1.
</event>
<event>
 7    1  0.5109948E-006  0.1230234E+03  0.7561462E-02  0.1238191E+00
          2   -1    0    0  501    0  0.00000000000E+00  0.00000000000E+00  0.48246597027E+03  0.48246597027E+03  0.00000000000E+00 0. -1.
         -2   -1    0    0    0  501 -0.00000000000E+00 -0.00000000000E+00 -0.37332953872E+02  0.37332953872E+02  0.00000000000E+00 0.  1.
         23    2    1    2    0    0  0.40653118233E+02 -0.45068574900E+02  0.14521442184E+03  0.20104336495E+03  0.12508938331E+03 0.  0.
          5    1    3    3  502    0  0.30152034153E+02 -0.88761034388E+02  0.10102364556E+03  0.13788007742E+03  0.41800000000E+01 0. -1.
         -5    1    3    3    0  502  0.10501084080E+02  0.43692459488E+02  0.44190776281E+02  0.63163287528E+02  0.41800000000E+01 0. -1.
        -11    1    1    2    0    0 -0.54617681572E+02  0.63627574346E+02  0.25023502398E+03  0.26391120966E+03  0.00000000000E+00 0. -1.
         11    1    1    2    0    0  0.13964563340E+02 -0.18558999447E+02  0.49683570577E+02  0.54844349527E+02  0.00000000000E+00 0.  1.
</event>
<event>
 7    1  0.5109948E-006  0.1103619E+03  0.7561462E-02  0.1259901E+00
         -2   -1    0    0    0  501 -0.00000000000E+00  0.00000000000E+00  0.25991579668E+02  0.25991579668E+02  0.00000000000E+00 0.  1.
          2   -1    0    0  501    0  0.00000000000E+00 -0.00000000000E+00 -0.55384444665E+03  0.55384444665E+03  0.00000000000E+00 0. -1.
         23    2    1    2    0    0  0.15376288898E+02 -0.52779303035E+02 -0.27037261569E+03  0.30293659978E+03  0.12508855696E+03 0.  0.
          5    1    3    3  502    0 -0.48159778595E+02  0.41588340714E+01 -0.70561569888E+02  0.85633332997E+02  0.41800000000E+01 0. -1.
         -5    1    3    3    0  502  0.63536067493E+02 -0.56938137107E+02 -0.19981104580E+03  0.21730326678E+03  0.41800000000E+01 0. -1.
        -11    1    1    2    0    0 -0.40964480189E+02  0.21149040653E+02 -0.62178258089E+02  0.77404821146E+02  0.00000000000E+00 0.  1.
         11    1    1    2    0    0  0.25588191291E+02  0.31630262382E+02 -0.19530199321E+03  0.19949460540E+03  0.00000000000E+00 0. -1.
</event>
<event>
 6    1  0.5109948E-006  0.2073453E+03  0.7561462E-02  0.1143686E+00
          1   -1    0    0  501    0  0.00000000000E+00  0.00000000000E+00  0.16375283965E+03  0.16375283965E+03  0.00000000000E+00 0. -1.
         -1   -1    0    0    0  501 -0.00000000000E+00 -0.00000000000E+00 -0.71114262247E+03  0.71114262247E+03  0.00000000000E+00 0.  1.
          5    1    1    2  502    0 -0.14321572203E+03  0.17209956273E+02  0.38310304336E+02  0.14930531621E+03  0.41800000000E+01 0. -1.
         -5    1    1    2    0  502  0.16353463167E+03 -0.51281044505E+02 -0.59871064539E+03  0.62277221405E+03  0.41800000000E+01 0.  1.
        -11    1    1    2    0    0  0.36137227895E+02  0.17212745964E+02 -0.69156442783E+01  0.40620241251E+02  0.00000000000E+00 0.  1.
         11    1    1    2    0    0 -0.56456137543E+02  0.16858342268E+02  0.19926202514E+02  0.62197690608E+02  0.00000000000E+00 0. -1.
</event>
<event>
 7    1  0.5109948E-006  0.1285264E+03  0.7561462E-02  0.1229659E+00
         -3   -1    0    0    0  501 -0.00000000000E+00  0.00000000000E+00  0.14195237845E+03  0.14195237845E+03  0.00000000000E+00 0.  1.
          3   -1    0    0  501    0  0.00000000000E+00 -0.00000000000E+00 -0.15859372682E+03  0.15859372682E+03  0.00000000000E+00 0. -1.
         23    2    1    2    0    0  0.69239728567E+02  0.71705434999E+02  0.15177013425E+02  0.16065132990E+03  0.12507077452E+03 0.  0.
          5    1    3    3  502    0  0.57184978807E+02  0.97505918252E+02  0.42624282781E+02  0.12087939352E+03  0.41800000000E+01 0.  1.
         -5    1    3    3    0  502  0.12054749761E+02 -0.25800483253E+02 -0.27447269356E+02  0.39771936375E+02  0.41800000000E+01 0.  1.
        -11    1    1    2    0    0 -0.26457796735E+02 -0.67097621041E+02  0.17727463341E+02  0.74272260730E+02  0.00000000000E+00 0.  1.
         11    1    1    2    0    0 -0.42781931833E+02 -0.46078139580E+01 -0.49545825131E+02  0.65622514648E+02  0.00000000000E+00 0. -1.
</event>
<event>
 7    1  0.5148735E-006  0.1400767E+03  0.7561462E-02  0.1213226E+00
         -2   -1    0    0    0  501 -0.00000000000E+00  0.00000000000E+00  0.27537462458E+02  0.27537462458E+02  0.00000000000E+00 0.  1.
          2   -1    0    0  501    0  0.00000000000E+00 -0.00000000000E+00 -0.84754262914E+03  0.84754262914E+03  0.00000000000E+00 0. -1.
         23    2    1    2    0    0 -0.26947420389E+02 -0.10005438017E+03 -0.39100661597E+03  0.42340348885E+03  0.12508916094E+03 0.  0.
          5    1    3    3  502    0 -0.29586422417E+02  0.11019125994E+02 -0.23867416384E+02  0.39798285063E+02  0.41800000000E+01 0. -1.
         -5    1    3    3    0  502  0.26390020276E+01 -0.11107350616E+03 -0.36713919959E+03  0.38360520379E+03  0.41800000000E+01 0. -1.
        -11    1    1    2    0    0 -0.25638856789E+02  0.74238717294E+02 -0.18979504495E+03  0.20540422881E+03  0.00000000000E+00 0.  1.
         11    1    1    2    0    0  0.52586277178E+02  0.25815662874E+02 -0.23920350576E+03  0.24627237394E+03  0.00000000000E+00 0. -1.
</event>
<event>
 7    1  0.5109948E-006  0.1006019E+03  0.7561462E-02  0.1279035E+00
         -1   -1    0    0    0  501 -0.00000000000E+00  0.00000000000E+00  0.47936106692E+02  0.47936106692E+02  0.00000000000E+00 0.  1.
          1   -1    0    0  501    0  0.00000000000E+00 -0.00000000000E+00 -0.48635567540E+03  0.48635567540E+03  0.00000000000E+00 0. -1.
         23    2    1    2    0    0  0.68360625094E+02  0.15399328686E+02 -0.94524232592E+02  0.17173916785E+03  0.12509674992E+03 0.  0.
          5    1    3    3  502    0  0.51268900523E+02 -0.13978233762E+02 -0.11849956949E+03  0.12993656741E+03  0.41800000000E+01 0. -1.
         -5    1    3    3    0  502  0.17091724571E+02  0.29377562448E+02  0.23975336901E+02  0.41802600442E+02  0.41800000000E+01 0. -1.
        -11    1    1    2    0    0 -0.23018430577E+00 -0.40906293106E+02 -0.14932864940E+03  0.15483030495E+03  0.00000000000E+00 0.  1.
         11    1    1    2    0    0 -0.68130440788E+02  0.25506964420E+02 -0.19456668672E+03  0.20772230929E+03  0.00000000000E+00 0. -1.
</event>
<event>
 7    1  0.5109948E-006  0.1051106E+03  0.7561462E-02  0.1269902E+00
          1   -1    0    0  501    0  0.00000000000E+00  0.00000000000E+00  0.49404027290E+02  0.49404027290E+02  0.00000000000E+00 0. -1.
         -1   -1    0    0    0  501 -0.00000000000E+00 -0.00000000000E+00 -0.34041591416E+03  0.34041591416E+03  0.00000000000E+00 0.  1.
         23    2    1    2    0    0 -0.40313395770E+02 -0.47786677703E+02 -0.24686121120E+03  0.28169199178E+03  0.12042086278E+03 0.  0.
          5    1    3    3  502    0  0.29161069868E+02 -0.24697317465E+02 -0.20122544715E+02  0.43390260332E+02  0.41800000000E+01 0. -1.
         -5    1    3    3    0  502 -0.69474465639E+02 -0.23089360238E+02 -0.22673866648E+03  0.23830173145E+03  0.41800000000E+01 0.  1.
        -11    1    1    2    0    0 -0.17542861741E+02  0.35068088025E+02 -0.13809001910E+02  0.41571761204E+02  0.00000000000E+00 0.  1.
         11    1    1    2    0    0  0.57856257512E+02  0.12718589678E+02 -0.30341673759E+02  0.66556188466E+02  0.00000000000E+00 0. -1.
</event>
<event>
 7    1  0.5109948E-006  0.1698386E+03  0.7561462E-02  0.1178016E+00
         -1   -1    0    0    0  501 -0.00000000000E+00  0.00000000000E+00  0.61767646661E+03  0.61767646661E+03  0.00000000000E+00 0.  1.
          1   -1    0    0  501    0  0.00000000000E+00 -0.00000000000E+00 -0.52649582208E+02  0.52649582208E+02  0.00000000000E+00 0. -1.
         23    2    1    2    0    0 -0.14358214223E+02 -0.13728782246E+03  0.37004888521E+03  0.41429261682E+03  0.12509232749E+03 0.  0.
          5    1    3    3  502    0  0.16114717825E+02  0.12988121460E+02  0.10908625401E+02  0.23766487703E+02  0.41800000000E+01 0.  1.
         -5    1    3    3    0  502 -0.30472932047E+02 -0.15027594392E+03  0.35914025980E+03  0.39052612912E+03  0.41800000000E+01 0.  1.
        -11    1    1    2    0    0 -0.38218491381E+02  0.45801323628E+02  0.58821069420E+02  0.83775488881E+02  0.00000000000E+00 0. -1.
         11    1    1    2    0    0  0.52576705604E+02  0.91486498836E+02  0.13615692978E+03  0.17225794312E+03  0.00000000000E+00 0.  1.
</event>
<event>
 7    1  0.5109948E-006  0.2239186E+03  0.7561462E-02  0.1130995E+00
         -2   -1    0    0    0  501 -0.00000000000E+00  0.00000000000E+00  0.59603727512E+02  0.59603727512E+02  0.00000000000E+00 0.  1.
          2   -1    0    0  501    0  0.00000000000E+00 -0.00000000000E+00 -0.11463287182E+04  0.11463287182E+04  0.00000000000E+00 0. -1.
         23    2    1    2    0    0  0.19571240779E+03  0.82926420261E+02 -0.31257459975E+03  0.39815864820E+03  0.12508913218E+03 0.  0.
          5    1    3    3  502    0  0.11390858372E+03  0.95705469757E+01 -0.24153100386E+03  0.26724793552E+03  0.41800000000E+01 0.  1.
         -5    1    3    3    0  502  0.81803824071E+02  0.73355873285E+02 -0.71043595889E+02  0.13091071268E+03  0.41800000000E+01 0.  1.
        -11    1    1    2    0    0 -0.15007688719E+03 -0.29005656153E+02 -0.61392248127E+03  0.63266516671E+03  0.00000000000E+00 0.  1.
         11    1    1    2    0    0 -0.45635520604E+02 -0.53920764108E+02 -0.16022790962E+03  0.17510863076E+03  0.00000000000E+00 0. -1.
</event>
<event>
 7    1  0.5109948E-006  0.9636225E+02  0.7561462E-02  0.1288137E+00
          2   -1    0    0  501    0  0.00000000000E+00  0.00000000000E+00  0.72787507114E+03  0.72787507114E+03  0.00000000000E+00 0. -1.
         -2   -1    0    0    0  501 -0.00000000000E+00 -0.00000000000E+00 -0.22154930258E+02  0.22154930258E+02  0.00000000000E+00 0.  1.
         23    2    1    2    0    0 -0.62660656794E+02 -0.20807009576E+02  0.40570784879E+03  0.42946308747E+03  0.12442023697E+03 0.  0.
          5    1    3    3  502    0 -0.63586518960E+02 -0.33304943749E-01  0.40308532013E+03  0.40809128171E+03  0.41800000000E+01 0. -1.
         -5    1    3    3    0  502  0.92586216547E+00 -0.20773704633E+02  0.26225286676E+01  0.21371805762E+02  0.41800000000E+01 0.  1.
        -11    1    1    2    0    0  0.61207696954E+02  0.49710024075E+02  0.25620107266E+03  0.26806054968E+03  0.00000000000E+00 0.  1.
         11    1    1    2    0    0  0.14529598406E+01 -0.28903014499E+02  0.43811219423E+02  0.52506364250E+02  0.00000000000E+00 0. -1.
</event>
<event>
 7    1  0.5109948E-006  0.9743245E+02  0.7561462E-02  0.1285790E+00
         -4   -1    0    0    0  501 -0.00000000000E+00  0.00000000000E+00  0.54395096415E+03  0.54395096415E+03  0.00000000000E+00 0.  1.
          4   -1    0    0  501    0  0.00000000000E+00 -0.00000000000E+00 -0.21654265766E+02  0.21654265766E+02  0.00000000000E+00 0. -1.
         23    2    1    2    0    0  0.14756323233E+02  0.10237173241E+02  0.27686750074E+03  0.30434368023E+03  0.12508762504E+03 0.  0.
          5    1    3    3  502    0 -0.43481903078E+02 -0.97294340480E+01  0.20403230363E+03  0.20888272094E+03  0.41800000000E+01 0.  1.
         -5    1    3    3    0  502  0.58238226311E+02  0.19966607289E+02  0.72835197110E+02  0.95460959290E+02  0.41800000000E+01 0.  1.
        -11    1    1    2    0    0 -0.48135622328E+02  0.10283626751E+02  0.11545191588E+03  0.12550671694E+03  0.00000000000E+00 0.  1.
         11    1    1    2    0    0  0.33379299095E+02 -0.20520799992E+02  0.12997728176E+03  0.13575483275E+03  0.00000000000E+00 0. -1.
</event>
<event>
 7    1  0.5109948E-006  0.2272958E+03  0.7561462E-02  0.1128558E+00
         -2   -1    0    0    0  501 -0.00000000000E+00  0.00000000000E+00  0.45548793746E+02  0.45548793746E+02  0.00000000000E+00 0.  1.
          2   -1    0    0  501    0  0.00000000000E+00 -0.00000000000E+00 -0.13636904674E+04  0.13636904674E+04  0.00000000000E+00 0. -1.
         23    2    1    2    0    0 -0.51016073430E+02  0.20229784696E+03 -0.45029218162E+03  0.51185307193E+03  0.12531344615E+03 0.  0.
          5    1    3    3  502    0  0.30524934520E+02  0.87546519872E+02 -0.25272494839E+03  0.26922766706E+03  0.41800000000E+01 0. -1.
         -5    1    3    3    0  502 -0.81541007949E+02  0.11475132709E+03 -0.19756723322E+03  0.24262540487E+03  0.41800000000E+01 0.  1.
        -11    1    1    2    0    0 -0.11452615600E+02 -0.26503810673E+01 -0.13983632702E+02  0.18268248614E+02  0.00000000000E+00 0.  1.
         11    1    1    2    0    0  0.62468689030E+02 -0.19964746589E+03 -0.85386585934E+03  0.87911794061E+03  0.00000000000E+00 0. -1.
</event>
<event>
 7    1  0.5109948E-006  0.1226959E+03  0.7561462E-02  0.1238715E+00
         -2   -1    0    0    0  501 -0.00000000000E+00  0.00000000000E+00  0.48655473434E+02  0.48655473434E+02  0.00000000000E+00 0.  1.
          2   -1    0    0  501    0  0.00000000000E+00 -0.00000000000E+00 -0.54115500424E+03  0.54115500424E+03  0.00000000000E+00 0. -1.
         23    2    1    2    0    0 -0.83385694539E+02  0.68459582130E+02 -0.16695593381E+03  0.23486380349E+03  0.12508730517E+03 0.  0.
          5    1    3    3  502    0 -0.80730903900E+02  0.65414327260E+02 -0.18701317895E+03  0.21398110794E+03  0.41800000000E+01 0.  1.
         -5    1    3    3    0  502 -0.26547906388E+01  0.30452548703E+01  0.20057245141E+02  0.20882695545E+02  0.41800000000E+01 0.  1.
        -11    1    1    2    0    0  0.98432127999E+02 -0.46236645837E+02 -0.21189912743E+03  0.23817630329E+03  0.00000000000E+00 0.  1.
         11    1    1    2    0    0 -0.15046433461E+02 -0.22222936293E+02 -0.11364446957E+03  0.11677037090E+03  0.00000000000E+00 0. -1.
</event>
<event>
 7    1  0.5109949E-006  0.9126326E+02  0.7561462E-02  0.1299821E+00
          1   -1    0    0  501    0  0.00000000000E+00  0.00000000000E+00  0.30313340460E+03  0.30313340460E+03  0.00000000000E+00 0. -1.
         -1   -1    0    0    0  501 -0.00000000000E+00 -0.00000000000E+00 -0.45820740070E+02  0.45820740070E+02  0.00000000000E+00 0.  1.
         23    2    1    2    0    0  0.76637163594E+01 -0.36642387958E+02  0.10425109136E+03  0.16708395600E+03  0.12508941265E+03 0.  0.
          5    1    3    3  502    0 -0.18073535762E+02 -0.74185671184E+02  0.34979622740E+02  0.84090504286E+02  0.41800000000E+01 0.  1.
         -5    1    3    3    0  502  0.25737252122E+02  0.37543283226E+02  0.69271468619E+02  0.82993451711E+02  0.41800000000E+01 0.  1.
        -11    1    1    2    0    0  0.18009517027E+02  0.27935329989E+02  0.78527724649E+01  0.34152472832E+02  0.00000000000E+00 0.  1.
         11    1    1    2    0    0 -0.25673233386E+02  0.87070579687E+01  0.14520880071E+03  0.14771771584E+03  0.00000000000E+00 0. -1.
</event>
<event>
 7    1  0.5109948E-006  0.1649290E+03  0.7561462E-02  0.1183242E+00
          2   -1    0    0  501    0  0.00000000000E+00  0.00000000000E+00  0.50249025186E+03  0.50249025186E+03  0.00000000000E+00 0. -1.
         -2   -1    0    0    0  501 -0.00000000000E+00 -0.00000000000E+00 -0.76874807889E+02  0.76874807889E+02  0.00000000000E+00 0.  1.
         23    2    1    2    0    0 -0.12518179349E+02 -0.13063767285E+03  0.74538508860E+02  0.19602178172E+03  0.12508254563E+03 0.  0.
          5    1    3    3  502    0 -0.28891251992E+02 -0.14867683490E+03  0.46166572342E+02  0.15839296222E+03  0.41800000000E+01 0.  1.
         -5    1    3    3    0  502  0.16373072643E+02  0.18039162049E+02  0.28371936517E+02  0.37628819500E+02  0.41800000000E+01 0.  1.
        -11    1    1    2    0    0 -0.32384597899E+02  0.77883851102E+02  0.20486007883E+03  0.22154527380E+03  0.00000000000E+00 0.  1.
         11    1    1    2    0    0  0.44902777248E+02  0.52753821750E+02  0.14621685628E+03  0.16179800423E+03  0.00000000000E+00 0. -1.
</event>
<event>
 7    1  0.5109948E-006  0.1737644E+03  0.7561462E-02  0.1173978E+00
          1   -1    0    0  501    0  0.00000000000E+00  0.00000000000E+00  0.40011915557E+03  0.40011915557E+03  0.00000000000E+00 0. -1.
         -1   -1    0    0    0  501 -0.00000000000E+00 -0.00000000000E+00 -0.92179249252E+02  0.92179249252E+02  0.00000000000E+00 0.  1.
         23    2    1    2    0    0  0.12539590804E+03 -0.70428241215E+02  0.75562023255E+02  0.20504061638E+03  0.12509102322E+03 0.  0.
          5    1    3    3  502    0  0.68227517237E+02 -0.10186271329E+03  0.64965824663E+02  0.13881295775E+03  0.41800000000E+01 0.  1.
         -5    1    3    3    0  502  0.57168390807E+02  0.31434472072E+02  0.10596198592E+02  0.66227658622E+02  0.41800000000E+01 0.  1.
        -11    1    1    2    0    0 -0.89884336038E+02  0.11412540428E+02  0.83475935636E+02  0.12319769387E+03  0.00000000000E+00 0.  1.
         11    1    1    2    0    0 -0.35511572006E+02  0.59015700787E+02  0.14890194743E+03  0.16406009458E+03  0.00000000000E+00 0. -1.
</event>
<event>
 7    1  0.5109948E-006  0.8273243E+02  0.7561462E-02  0.1321471E+00
          1   -1    0    0  501    0  0.00000000000E+00  0.00000000000E+00  0.13978201299E+03  0.13978201299E+03  0.00000000000E+00 0. -1.
         -1   -1    0    0    0  501 -0.00000000000E+00 -0.00000000000E+00 -0.17545904311E+03  0.17545904311E+03  0.00000000000E+00 0.  1.
         23    2    1    2    0    0  0.41232983888E+02 -0.57098998149E+01 -0.12394374670E+03  0.18094597219E+03  0.12508649244E+03 0.  0.
          5    1    3    3  502    0  0.37139115796E+02 -0.28265913624E+02  0.74977567529E+01  0.47454868575E+02  0.41800000000E+01 0.  1.
         -5    1    3    3    0  502  0.40938680928E+01  0.22556013810E+02 -0.13144150345E+03  0.13349110361E+03  0.41800000000E+01 0.  1.
        -11    1    1    2    0    0 -0.24119637505E+02 -0.39880535381E+02  0.20671307992E+02  0.50985458611E+02  0.00000000000E+00 0.  1.
         11    1    1    2    0    0 -0.17113346383E+02  0.45590435196E+02  0.67595408581E+02  0.83309625297E+02  0.00000000000E+00 0. -1.
</event>
<event>
 7    1  0.5109948E-006  0.1202681E+03  0.7561462E-02  0.1242655E+00
          1   -1    0    0  501    0  0.00000000000E+00  0.00000000000E+00  0.36992730644E+03  0.36992730644E+03  0.00000000000E+00 0. -1.
         -1   -1    0    0    0  501 -0.00000000000E+00 -0.00000000000E+00 -0.54857592974E+02  0.54857592974E+02  0.00000000000E+00 0.  1.
         23    2    1    2    0    0  0.71262500987E+01  0.91756512520E+02  0.18190845906E+03  0.23918029055E+03  0.12508590201E+03 0.  0.
          5    1    3    3  502    0  0.41853716417E+02  0.23773921970E+02  0.14773883525E+03  0.15543863350E+03  0.41800000000E+01 0. -1.
         -5    1    3    3    0  502 -0.34727466318E+02  0.67982590550E+02  0.34169623812E+02  0.83741657054E+02  0.41800000000E+01 0. -1.
        -11    1    1    2    0    0 -0.38857539170E+02 -0.50461627286E+02  0.30774716676E+02  0.70734484979E+02  0.00000000000E+00 0.  1.
         11    1    1    2    0    0  0.31731289071E+02 -0.41294885234E+02  0.10238653773E+03  0.11487012389E+03  0.00000000000E+00 0. -1.
</event>
<event>
 7    1  0.5109948E-006  0.1482420E+03  0.7561462E-02  0.1202650E+00
          1   -1    0    0  501    0  0.00000000000E+00  0.00000000000E+00  0.90707847340E+01  0.90707847340E+01  0.00000000000E+00 0. -1.
         -1   -1    0    0    0  501 -0.00000000000E+00 -0.00000000000E+00 -0.34987659464E+04  0.34987659464E+04  0.00000000000E+00 0.  1.
         23    2    1    2    0    0 -0.47499403512E+02  0.89206368358E+02 -0.28147060500E+04  0.28192960167E+04  0.12508362234E+03 0.  0.
          5    1    3    3  502    0  0.21794168953E+02 -0.20844700586E+02 -0.47505764617E+03  0.47603227509E+03  0.41800000000E+01 0. -1.
         -5    1    3    3    0  502 -0.69293572465E+02  0.11005106894E+03 -0.23396484038E+04  0.23432637417E+04  0.41800000000E+01 0. -1.
        -11    1    1    2    0    0  0.31809351310E+02 -0.10733303408E+03 -0.55233970256E+03  0.56357019267E+03  0.00000000000E+00 0. -1.
         11    1    1    2    0    0  0.15690052202E+02  0.18126665726E+02 -0.12264940909E+03  0.12497052172E+03  0.00000000000E+00 0.  1.
</event>
<event>
 7    1  0.5109948E-006  0.1657933E+03  0.7561462E-02  0.1182307E+00
         -4   -1    0    0    0  501 -0.00000000000E+00  0.00000000000E+00  0.48381372514E+03  0.48381372514E+03  0.00000000000E+00 0. -1.
          4   -1    0    0  501    0  0.00000000000E+00 -0.00000000000E+00 -0.88975453839E+02  0.88975453839E+02  0.00000000000E+00 0.  1.
         23    2    1    2    0    0 -0.48875887694E+02 -0.13753039544E+03  0.34291369625E+03  0.39311620421E+03  0.12508830829E+03 0.  0.
          5    1    3    3  502    0 -0.19129707256E+02  0.35297625280E+01  0.15482378509E+03  0.15609702672E+03  0.41800000000E+01 0. -1.
         -5    1    3    3    0  502 -0.29746180438E+02 -0.14106015797E+03  0.18808991116E+03  0.23701917749E+03  0.41800000000E+01 0. -1.
        -11    1    1    2    0    0 -0.21415362498E+02  0.14796605945E+02 -0.62002237089E+01  0.26758177675E+02  0.00000000000E+00 0.  1.
         11    1    1    2    0    0  0.70291250192E+02  0.12273378950E+03  0.58124798761E+02  0.15291479709E+03  0.00000000000E+00 0. -1.
</event>
<event>
 7    1  0.5109948E-006  0.9966255E+02  0.7561462E-02  0.1281007E+00
         -2   -1    0    0    0  501 -0.00000000000E+00  0.00000000000E+00  0.13244978938E+03  0.13244978938E+03  0.00000000000E+00 0.  1.
          2   -1    0    0  501    0  0.00000000000E+00 -0.00000000000E+00 -0.92448967798E+02  0.92448967798E+02  0.00000000000E+00 0. -1.
         23    2    1    2    0    0  0.32092853891E+01  0.29218662650E+01  0.39213193085E+02  0.13118625982E+03  0.12511324246E+03 0.  0.
          5    1    3    3  502    0  0.40342880906E+02 -0.43954352892E+02  0.47274101186E+00  0.59809941164E+02  0.41800000000E+01 0. -1.
         -5    1    3    3    0  502 -0.37133595517E+02  0.46876219157E+02  0.38740452073E+02  0.71376318659E+02  0.41800000000E+01 0. -1.
        -11    1    1    2    0    0  0.32000984752E+02  0.19830628351E+02 -0.24346154430E+02  0.44833604377E+02  0.00000000000E+00 0. -1.
         11    1    1    2    0    0 -0.35210270141E+02 -0.22752494616E+02  0.25133782928E+02  0.48878892980E+02  0.00000000000E+00 0.  1.
</event>
<event>
 7    1  0.5109948E-006  0.1786829E+03  0.7561462E-02  0.1169084E+00
          1   -1    0    0  501    0  0.00000000000E+00  0.00000000000E+00  0.88148432385E+02  0.88148432385E+02  0.00000000000E+00 0. -1.
         -1   -1    0    0    0  501 -0.00000000000E+00 -0.00000000000E+00 -0.40203226982E+03  0.40203226982E+03  0.00000000000E+00 0.  1.
         23    2    1    2    0    0 -0.10866163807E+03 -0.10090490661E+03 -0.21433217383E+03  0.28909360449E+03  0.12509068571E+03 0.  0.
          5    1    3    3  502    0 -0.68718881620E+01  0.25917108554E+02 -0.55299420224E+02  0.61598844468E+02  0.41800000000E+01 0. -1.
         -5    1    3    3    0  502 -0.10178974991E+03 -0.12682201516E+03 -0.15903275361E+03  0.22749476002E+03  0.41800000000E+01 0. -1.
        -11    1    1    2    0    0  0.10878719736E+03  0.55454781840E+02 -0.96318121502E+02  0.15552192022E+03  0.00000000000E+00 0.  1.
         11    1    1    2    0    0 -0.12555928549E+00  0.45450124767E+02 -0.32335421059E+01  0.45565177505E+02  0.00000000000E+00 0. -1.
</event>
<event>
 7    1  0.5109948E-006  0.1034174E+03  0.7561462E-02  0.1273269E+00
         -1   -1    0    0    0  501 -0.00000000000E+00  0.00000000000E+00  0.66460058670E+02  0.66460058670E+02  0.00000000000E+00 0.  1.
          1   -1    0    0  501    0  0.00000000000E+00 -0.00000000000E+00 -0.18465670462E+03  0.18465670462E+03  0.00000000000E+00 0. -1.
         23    2    1    2    0    0  0.68624021852E+01  0.30758093908E+01 -0.46506016892E+02  0.13366787481E+03  0.12509091886E+03 0.  0.
          5    1    3    3  502    0 -0.57602529004E+02 -0.11808003684E+02 -0.19578684944E+02  0.62115035239E+02  0.41800000000E+01 0.  1.
         -5    1    3    3    0  502  0.64464931189E+02  0.14883813075E+02 -0.26927331948E+02  0.71552839571E+02  0.41800000000E+01 0.  1.
        -11    1    1    2    0    0 -0.43989887102E+02  0.24444113561E+01 -0.99086291225E+01  0.45158235630E+02  0.00000000000E+00 0.  1.
         11    1    1    2    0    0  0.37127484917E+02 -0.55202207470E+01 -0.61781999935E+02  0.72290652849E+02  0.00000000000E+00 0. -1.
</event>
<event>
 7    1  0.5109948E-006  0.1293329E+03  0.7561462E-02  0.1228449E+00
         -1   -1    0    0    0  501 -0.00000000000E+00  0.00000000000E+00  0.45921752782E+02  0.45921752782E+02  0.00000000000E+00 0.  1.
          1   -1    0    0  501    0  0.00000000000E+00 -0.00000000000E+00 -0.53008332072E+03  0.53008332072E+03  0.00000000000E+00 0. -1.
         23    2    1    2    0    0  0.87959075430E+02  0.11334226722E+02 -0.13379829269E+03  0.20350782320E+03  0.12509271494E+03 0.  0.
          5    1    3    3  502    0  0.67224779294E+02 -0.39279353939E+02 -0.25372815456E+02  0.81995675259E+02  0.41800000000E+01 0.  1.
         -5    1    3    3    0  502  0.20734296137E+02  0.50613580661E+02 -0.10842547723E+03  0.12151214794E+03  0.41800000000E+01 0.  1.
        -11    1    1    2    0    0  0.62019987998E+00  0.28647748869E+02 -0.64895966094E+02  0.70940570751E+02  0.00000000000E+00 0.  1.
         11    1    1    2    0    0 -0.88579275310E+02 -0.39981975590E+02 -0.28546730915E+03  0.30155667955E+03  0.00000000000E+00 0. -1.
</event>
<event>
 7    1  0.5109948E-006  0.1341205E+03  0.7561462E-02  0.1221467E+00
          2   -1    0    0  501    0  0.00000000000E+00  0.00000000000E+00  0.77981244189E+02  0.77981244189E+02  0.00000000000E+00 0. -1.
         -2   -1    0    0    0  501 -0.00000000000E+00 -0.00000000000E+00 -0.33312319882E+03  0.33312319882E+03  0.00000000000E+00 0.  1.
         23    2    1    2    0    0  0.11847265115E+03  0.53893141392E+01 -0.16223706004E+03  0.23671297828E+03  0.12508939468E+03 0.  0.
          5    1    3    3  502    0  0.48148376916E+02 -0.11797296851E+02 -0.15621913242E+03  0.16394917550E+03  0.41800000000E+01 0.  1.
         -5    1    3    3    0  502  0.70324274229E+02  0.17186610990E+02 -0.60179276201E+01  0.72763802787E+02  0.41800000000E+01 0.  1.
        -11    1    1    2    0    0 -0.22157587788E+02  0.35091662733E+02 -0.15244079708E+02  0.44212729571E+02  0.00000000000E+00 0. -1.
         11    1    1    2    0    0 -0.96315063357E+02 -0.40480976872E+02 -0.77660814885E+02  0.13017873515E+03  0.00000000000E+00 0.  1.
</event>
<event>
 7    1  0.5109948E-006  0.1025490E+03  0.7561462E-02  0.1275025E+00
         -1   -1    0    0    0  501 -0.00000000000E+00  0.00000000000E+00  0.64923563202E+02  0.64923563202E+02  0.00000000000E+00 0.  1.
          1   -1    0    0  501    0  0.00000000000E+00 -0.00000000000E+00 -0.19135668498E+03  0.19135668498E+03  0.00000000000E+00 0. -1.
         23    2    1    2    0    0  0.53565444537E+01  0.71936314834E+01 -0.60292140290E+02  0.13914822500E+03  0.12508655179E+03 0.  0.
          5    1    3    3  502    0 -0.56356259170E+02  0.23862912995E+02 -0.30042294265E+02  0.68304307396E+02  0.41800000000E+01 0. -1.
         -5    1    3    3    0  502  0.61712803623E+02 -0.16669281511E+02 -0.30249846026E+02  0.70843917606E+02  0.41800000000E+01 0. -1.
        -11    1    1    2    0    0  0.99460405893E+01 -0.41210618829E+02 -0.14030442831E+01  0.42417064501E+02  0.00000000000E+00 0.  1.
         11    1    1    2    0    0 -0.15302585043E+02  0.34016987345E+02 -0.64737937209E+02  0.74714958684E+02  0.00000000000E+00 0. -1.
</event>
<event>
 7    1  0.5109948E-006  0.9507809E+02  0.7561462E-02  0.1291000E+00
         -3   -1    0    0    0  501 -0.00000000000E+00  0.00000000000E+00  0.18819064249E+03  0.18819064249E+03  0.00000000000E+00 0.  1.
          3   -1    0    0  501    0  0.00000000000E+00 -0.00000000000E+00 -0.81237439995E+02  0.81237439995E+02  0.00000000000E+00 0. -1.
         23    2    1    2    0    0 -0.28948866213E+01 -0.37754504453E+02  0.78846495064E+02  0.15263406138E+03  0.12508638589E+03 0.  0.
          5    1    3    3  502    0  0.29750970388E+01 -0.60786488436E+02 -0.88828158830E+01  0.61645966590E+02  0.41800000000E+01 0. -1.
         -5    1    3    3    0  502 -0.58699836601E+01  0.23031983984E+02  0.87729310947E+02  0.90988094790E+02  0.41800000000E+01 0. -1.
        -11    1    1    2    0    0 -0.21855027176E+02 -0.27560119052E+02  0.31003492340E+02  0.46887300118E+02  0.00000000000E+00 0.  1.
         11    1    1    2    0    0  0.24749913798E+02  0.65314623505E+02 -0.28967849070E+01  0.69906720989E+02  0.00000000000E+00 0. -1.
</event>
<event>
 7    1  0.5109948E-006  0.1457752E+03  0.7561462E-02  0.1205763E+00
          1   -1    0    0  501    0  0.00000000000E+00  0.00000000000E+00  0.13160754666E+03  0.13160754666E+03  0.00000000000E+00 0. -1.
         -1   -1    0    0    0  501 -0.00000000000E+00 -0.00000000000E+00 -0.23785954060E+03  0.23785954060E+03  0.00000000000E+00 0.  1.
         23    2    1    2    0    0 -0.35693324127E+02  0.11548358542E+03 -0.12453128399E+03  0.21393056865E+03  0.12509106932E+03 0.  0.
          5    1    3    3  502    0 -0.72256412876E+01  0.12669595056E+03 -0.13094022769E+03  0.18239213088E+03  0.41800000000E+01 0. -1.
         -5    1    3    3    0  502 -0.28467682840E+02 -0.11212365132E+02  0.64089437003E+01  0.31538437778E+02  0.41800000000E+01 0. -1.
        -11    1    1    2    0    0  0.30372170625E+02 -0.16484437055E+02  0.41205455240E+02  0.53778201486E+02  0.00000000000E+00 0. -1.
         11    1    1    2    0    0  0.53211535025E+01 -0.98999148369E+02 -0.22926165193E+02  0.10175831712E+03  0.00000000000E+00 0.  1.
</event>
<event>
 7    1  0.5109948E-006  0.9521849E+02  0.7561462E-02  0.1290685E+00
         -2   -1    0    0    0  501 -0.00000000000E+00  0.00000000000E+00  0.12669666427E+03  0.12669666427E+03  0.00000000000E+00 0.  1.
          2   -1    0    0  501    0  0.00000000000E+00 -0.00000000000E+00 -0.17109193671E+03  0.17109193671E+03  0.00000000000E+00 0. -1.
         23    2    1    2    0    0  0.63115890786E+02 -0.17717711989E+02  0.52296053416E+02  0.15060038020E+03  0.12509222328E+03 0.  0.
          5    1    3    3  502    0 -0.32818647340E+01 -0.12425512642E+02  0.77940654758E+02  0.79103616003E+02  0.41800000000E+01 0. -1.
         -5    1    3    3    0  502  0.66397755520E+02 -0.52921993465E+01 -0.25644601343E+02  0.71496764193E+02  0.41800000000E+01 0. -1.
        -11    1    1    2    0    0 -0.19048071452E+02 -0.35984255771E+02 -0.44376667906E+02  0.60224449718E+02  0.00000000000E+00 0. -1.
         11    1    1    2    0    0 -0.44067819335E+02  0.53701967760E+02 -0.52314657951E+02  0.86963771070E+02  0.00000000000E+00 0.  1.
</event>
<event>
 7    1  0.5109948E-006  0.7851796E+02  0.7561462E-02  0.1333311E+00
         -1   -1    0    0    0  501 -0.00000000000E+00  0.00000000000E+00  0.49179854959E+03  0.49179854959E+03  0.00000000000E+00 0.  1.
          1   -1    0    0  501    0  0.00000000000E+00 -0.00000000000E+00 -0.24057057632E+02  0.24057057632E+02  0.00000000000E+00 0. -1.
         23    2    1    2    0    0 -0.68400536447E+01 -0.15335547577E+02  0.29661670130E+03  0.32235290873E+03  0.12509182597E+03 0.  0.
          5    1    3    3  502    0 -0.52989995092E+02 -0.14035675253E+02  0.25230129686E+03  0.25822152613E+03  0.41800000000E+01 0.  1.
         -5    1    3    3    0  502  0.46149941447E+02 -0.12998723236E+01  0.44315404436E+02  0.64131382598E+02  0.41800000000E+01 0.  1.
        -11    1    1    2    0    0  0.16904936725E+02  0.32024962494E+02  0.17018012483E+03  0.17399037329E+03  0.00000000000E+00 0.  1.
         11    1    1    2    0    0 -0.10064883080E+02 -0.16689414917E+02  0.94466583445E+00  0.19512325213E+02  0.00000000000E+00 0. -1.
</event>
<event>
 7    1  0.5109948E-006  0.6272985E+02  0.7561462E-02  0.1386720E+00
          2   -1    0    0  501    0  0.00000000000E+00  0.00000000000E+00  0.26993215368E+03  0.26993215368E+03  0.00000000000E+00 0. -1.
         -2   -1    0    0    0  501 -0.00000000000E+00 -0.00000000000E+00 -0.45656065415E+02  0.45656065415E+02  0.00000000000E+00 0.  1.
         23    2    1    2    0    0  0.54351632715E+00  0.19788153816E+02  0.10905183765E+03  0.16712853141E+03  0.12509107192E+03 0.  0.
          5    1    3    3  502    0  0.53182409499E+01  0.25807828387E+02 -0.22734519351E+02  0.35052224794E+02  0.41800000000E+01 0.  1.
         -5    1    3    3    0  502 -0.47747246227E+01 -0.60196745714E+01  0.13178635701E+03  0.13207630662E+03  0.41800000000E+01 0.  1.
        -11    1    1    2    0    0 -0.40563365428E+02 -0.27857544583E+02  0.42320788474E+02  0.64903609623E+02  0.00000000000E+00 0.  1.
         11    1    1    2    0    0  0.40019849101E+02  0.80693907672E+01  0.72903462140E+02  0.83556078064E+02  0.00000000000E+00 0. -1.
</event>
<event>
 7    1  0.5109948E-006  0.1556736E+03  0.7561462E-02  0.1193670E+00
          2   -1    0    0  501    0  0.00000000000E+00  0.00000000000E+00  0.43897907575E+03  0.43897907575E+03  0.00000000000E+00 0.  1.
         -2   -1    0    0    0  501 -0.00000000000E+00 -0.00000000000E+00 -0.88506442835E+02  0.88506442835E+02  0.00000000000E+00 0. -1.
         23    2    1    2    0    0  0.77805533190E+02 -0.10756803357E+03  0.90514166695E+02  0.20363420023E+03  0.12509792281E+03 0.  0.
          5    1    3    3  502    0  0.40091213617E+01 -0.71214787577E+02  0.97601317278E+02  0.12095911937E+03  0.41800000000E+01 0.  1.
         -5    1    3    3    0  502  0.73796411828E+02 -0.36353245989E+02 -0.70871505832E+01  0.82675080865E+02  0.41800000000E+01 0.  1.
        -11    1    1    2    0    0 -0.30744292264E+02 -0.88196447939E+01  0.16058446794E+03  0.16373872170E+03  0.00000000000E+00 0.  1.
         11    1    1    2    0    0 -0.47061240926E+02  0.11638767836E+03  0.99373998277E+02  0.16011259665E+03  0.00000000000E+00 0. -1.
</event>
<event>
 7    1  0.5109948E-006  0.1328495E+03  0.7561462E-02  0.1223288E+00
         -1   -1    0    0    0  501 -0.00000000000E+00  0.00000000000E+00  0.18895979420E+02  0.18895979420E+02  0.00000000000E+00 0.  1.
          1   -1    0    0  501    0  0.00000000000E+00 -0.00000000000E+00 -0.11462470621E+04  0.11462470621E+04  0.00000000000E+00 0. -1.
         23    2    1    2    0    0 -0.92813451950E+02 -0.34215720444E+02 -0.65341913191E+03  0.67259888890E+03  0.12509057129E+03 0.  0.
          5    1    3    3  502    0 -0.15868645224E+02  0.42936046961E+02 -0.12850319355E+03  0.13647659573E+03  0.41800000000E+01 0.  1.
         -5    1    3    3    0  502 -0.76944806726E+02 -0.77151767405E+02 -0.52491593836E+03  0.53612229317E+03  0.41800000000E+01 0.  1.
        -11    1    1    2    0    0  0.93744008655E+02  0.19254635268E+02 -0.46572202242E+03  0.47545313366E+03  0.00000000000E+00 0. -1.
         11    1    1    2    0    0 -0.93055670547E+00  0.14961085176E+02 -0.82099283530E+01  0.17091018957E+02  0.00000000000E+00 0.  1.
</event>
<event>
 7    1  0.5109948E-006  0.1079617E+03  0.7561462E-02  0.1264392E+00
          1   -1    0    0  501    0  0.00000000000E+00  0.00000000000E+00  0.12574056946E+03  0.12574056946E+03  0.00000000000E+00 0. -1.
         -1   -1    0    0    0  501 -0.00000000000E+00 -0.00000000000E+00 -0.16860954589E+03  0.16860954589E+03  0.00000000000E+00 0.  1.
         23    2    1    2    0    0 -0.78656410409E+02  0.35775789567E+02 -0.45954490701E+02  0.15880352657E+03  0.12506001287E+03 0.  0.
          5    1    3    3  502    0 -0.80000508213E+01  0.31948378115E+02  0.36985726755E+02  0.49700262181E+02  0.41800000000E+01 0. -1.
         -5    1    3    3    0  502 -0.70656359587E+02  0.38274114524E+01 -0.82940217456E+02  0.10910326439E+03  0.41800000000E+01 0. -1.
        -11    1    1    2    0    0  0.86400849009E+02 -0.12487067041E+02 -0.31785204570E+02  0.92904966403E+02  0.00000000000E+00 0.  1.
         11    1    1    2    0    0 -0.77444386006E+01 -0.23288722526E+02  0.34870718846E+02  0.42641622377E+02  0.00000000000E+00 0. -1.
</event>
<event>
 7    1  0.5109948E-006  0.1198490E+03  0.7561462E-02  0.1243346E+00
          1   -1    0    0  501    0  0.00000000000E+00  0.00000000000E+00  0.71280912400E+02  0.71280912400E+02  0.00000000000E+00 0. -1.
         -1   -1    0    0    0  501 -0.00000000000E+00 -0.00000000000E+00 -0.33302910046E+03  0.33302910046E+03  0.00000000000E+00 0.  1.
         23    2    1    2    0    0 -0.11802577147E+02  0.70225791412E+02 -0.25409449549E+03  0.28924518615E+03  0.11843902426E+03 0.  0.
          5    1    3    3  502    0 -0.35751580608E+02 -0.15841119382E+02 -0.35176404287E+02  0.52763324362E+02  0.41800000000E+01 0. -1.
         -5    1    3    3    0  502  0.23949003461E+02  0.86066910794E+02 -0.21891809120E+03  0.23648186179E+03  0.41800000000E+01 0.  1.
        -11    1    1    2    0    0  0.41966451423E+02 -0.93465844353E+01 -0.17486864875E+02  0.46414783516E+02  0.00000000000E+00 0.  1.
         11    1    1    2    0    0 -0.30163874276E+02 -0.60879206977E+02  0.98331722983E+01  0.68650043197E+02  0.00000000000E+00 0. -1.
</event>
<event>
 7    1  0.5109948E-006  0.9590648E+02  0.7561462E-02  0.1289147E+00
          2   -1    0    0  501    0  0.00000000000E+00  0.00000000000E+00  0.14894883641E+03  0.14894883641E+03  0.00000000000E+00 0. -1.
         -2   -1    0    0    0  501 -0.00000000000E+00 -0.00000000000E+00 -0.11811584528E+03  0.11811584528E+03  0.00000000000E+00 0.  1.
         23    2    1    2    0    0 -0.73253443429E+02 -0.19985086110E+02  0.75232464815E+01  0.14651701371E+03  0.12508063570E+03 0.  0.
          5    1    3    3  502    0 -0.53170352839E+02 -0.35016531992E+02  0.60390788138E+02  0.87850803216E+02  0.41800000000E+01 0. -1.
         -5    1    3    3    0  502 -0.20083090590E+02  0.15031445883E+02 -0.52867541657E+02  0.58666210495E+02  0.41800000000E+01 0. -1.
        -11    1    1    2    0    0  0.69185229048E+02  0.41504000491E+02 -0.93558491612E+01  0.81220132287E+02  0.00000000000E+00 0.  1.
         11    1    1    2    0    0  0.40682143814E+01 -0.21518914381E+02  0.32665593810E+02  0.39327535689E+02  0.00000000000E+00 0. -1.
</event>
<event>
 7    1  0.5109948E-006  0.1105047E+03  0.7561462E-02  0.1259638E+00
         -2   -1    0    0    0  501 -0.00000000000E+00  0.00000000000E+00  0.64162514507E+02  0.64162514507E+02  0.00000000000E+00 0.  1.
          2   -1    0    0  501    0  0.00000000000E+00 -0.00000000000E+00 -0.26983403164E+03  0.26983403164E+03  0.00000000000E+00 0. -1.
         23    2    1    2    0    0  0.68418047417E+02  0.29978598871E+02 -0.10811190161E+03  0.18142824457E+03  0.12509308156E+03 0.  0.
          5    1    3    3  502    0  0.92649921609E+02 -0.80457304053E+01 -0.44076702005E+02  0.10299985345E+03  0.41800000000E+01 0.  1.
         -5    1    3    3    0  502 -0.24231874192E+02  0.38024329276E+02 -0.64035199609E+02  0.78428391114E+02  0.41800000000E+01 0.  1.
        -11    1    1    2    0    0 -0.50703047062E+02 -0.37826851415E+02 -0.11426073716E+02  0.64282383512E+02  0.00000000000E+00 0.  1.
         11    1    1    2    0    0 -0.17715000355E+02  0.78482525439E+01 -0.86133541807E+02  0.88285918072E+02  0.00000000000E+00 0. -1.
</event>
<event>
 7    1  0.5109948E-006  0.1122672E+03  0.7561462E-02  0.1256428E+00
         -1   -1    0    0    0  501 -0.00000000000E+00  0.00000000000E+00  0.19218642096E+02  0.19218642096E+02  0.00000000000E+00 0.  1.
          1   -1    0    0  501    0  0.00000000000E+00 -0.00000000000E+00 -0.73003579369E+03  0.73003579369E+03  0.00000000000E+00 0. -1.
         23    2    1    2    0    0 -0.29712452088E+01  0.32042701626E+02 -0.30321713892E+03  0.32958181271E+03  0.12509186589E+03 0.  0.
          5    1    3    3  502    0 -0.41438991264E+02 -0.30117328194E+02 -0.84177682242E+02  0.98628586333E+02  0.41800000000E+01 0.  1.
         -5    1    3    3    0  502  0.38467746055E+02  0.62160029820E+02 -0.21903945667E+03  0.23095322638E+03  0.41800000000E+01 0.  1.
        -11    1    1    2    0    0  0.39257807992E+02  0.13655084582E+02 -0.17365105133E+03  0.17855622210E+03  0.00000000000E+00 0.  1.
         11    1    1    2    0    0 -0.36286562783E+02 -0.45697786208E+02 -0.23394896135E+03  0.24111640098E+03  0.00000000000E+00 0. -1.
</event>
<event>
 7    1  0.5109948E-006  0.1011945E+03  0.7561462E-02  0.1277804E+00
         -2   -1    0    0    0  501 -0.00000000000E+00  0.00000000000E+00  0.48461315320E+02  0.48461315320E+02  0.00000000000E+00 0.  1.
          2   -1    0    0  501    0  0.00000000000E+00 -0.00000000000E+00 -0.31036297860E+03  0.31036297860E+03  0.00000000000E+00 0. -1.
         23    2    1    2    0    0 -0.70662924872E+01  0.52434650457E+02 -0.12449553581E+03  0.18425249391E+03  0.12510203043E+03 0.  0.
          5    1    3    3  502    0  0.52462875536E+02  0.24996527485E+02 -0.21515335583E+02  0.62109272746E+02  0.41800000000E+01 0.  1.
         -5    1    3    3    0  502 -0.59529168023E+02  0.27438122972E+02 -0.10298020022E+03  0.12214322116E+03  0.41800000000E+01 0.  1.
        -11    1    1    2    0    0  0.32648539392E+02 -0.26958953489E+02 -0.13129695634E+03  0.13795507617E+03  0.00000000000E+00 0. -1.
         11    1    1    2    0    0 -0.25582246904E+02 -0.25475696968E+02 -0.61091711303E+01  0.36616723837E+02  0.00000000000E+00 0.  1.
</event>
<event>
 7    1  0.5109948E-006  0.8199139E+02  0.7561462E-02  0.1323493E+00
          1   -1    0    0  501    0  0.00000000000E+00  0.00000000000E+00  0.56482198019E+02  0.56482198019E+02  0.00000000000E+00 0. -1.
         -1   -1    0    0    0  501 -0.00000000000E+00 -0.00000000000E+00 -0.34083282366E+03  0.34083282366E+03  0.00000000000E+00 0.  1.
         23    2    1    2    0    0 -0.12023890899E+02  0.95895454601E+01 -0.27805861526E+03  0.30529190342E+03  0.12510003772E+03 0.  0.
          5    1    3    3  502    0 -0.53328278566E+02  0.42516315655E+02 -0.19640945310E+03  0.20795597625E+03  0.41800000000E+01 0. -1.
         -5    1    3    3    0  502  0.41304387667E+02 -0.32926770195E+02 -0.81649162165E+02  0.97335927171E+02  0.41800000000E+01 0. -1.
        -11    1    1    2    0    0  0.14954872666E+02  0.13042846569E+02 -0.43818440324E+02  0.48102180569E+02  0.00000000000E+00 0.  1.
         11    1    1    2    0    0 -0.29309817675E+01 -0.22632392029E+02  0.37526429945E+02  0.43920937689E+02  0.00000000000E+00 0. -1.
</event>
<event>
 7    1  0.5109948E-006  0.2317261E+03  0.7561462E-02  0.1125431E+00
         -1   -1    0    0    0  501 -0.00000000000E+00  0.00000000000E+00  0.67652970790E+02  0.67652970790E+02  0.00000000000E+00 0.  1.
          1   -1    0    0  501    0  0.00000000000E+00 -0.00000000000E+00 -0.10330697771E+04  0.10330697771E+04  0.00000000000E+00 0. -1.
         23    2    1    2    0    0 -0.11642651905E+03  0.19248864588E+03 -0.31660199259E+03  0.40803588667E+03  0.12509776166E+03 0.  0.
          5    1    3    3  502    0 -0.89306451438E+02  0.12029062024E+03 -0.10560028714E+03  0.18334221726E+03  0.41800000000E+01 0.  1.
         -5    1    3    3    0  502 -0.27120067613E+02  0.72198025640E+02 -0.21100170544E+03  0.22469366941E+03  0.41800000000E+01 0.  1.
        -11    1    1    2    0    0  0.51486624392E+02 -0.15035989224E+03 -0.35697975716E+03  0.39076017800E+03  0.00000000000E+00 0. -1.
         11    1    1    2    0    0  0.64939894658E+02 -0.42128753633E+02 -0.29183505653E+03  0.30192668318E+03  0.00000000000E+00 0.  1.
</event>
<event>
 7    1  0.5109948E-006  0.1046780E+03  0.7561462E-02  0.1270755E+00
          2   -1    0    0  501    0  0.00000000000E+00  0.00000000000E+00  0.66567012912E+03  0.66567012912E+03  0.00000000000E+00 0. -1.
         -2   -1    0    0    0  501 -0.00000000000E+00 -0.00000000000E+00 -0.17518807349E+02  0.17518807349E+02  0.00000000000E+00 0.  1.
         23    2    1    2    0    0  0.15022299357E+02 -0.17730055356E+02  0.30955497895E+03  0.33227676982E+03  0.11850545318E+03 0.  0.
          5    1    3    3  502    0  0.11300238456E+02 -0.66801064661E+02  0.21699852601E+03  0.22736734664E+03  0.41800000000E+01 0. -1.
         -5    1    3    3    0  502  0.37220609012E+01  0.49071009306E+02  0.92556452936E+02  0.10490942318E+03  0.41800000000E+01 0.  1.
        -11    1    1    2    0    0  0.10313458234E+02 -0.33437184232E+02  0.12239796504E+03  0.12730151042E+03  0.00000000000E+00 0.  1.
         11    1    1    2    0    0 -0.25335757591E+02  0.51167239587E+02  0.21619837779E+03  0.22361065622E+03  0.00000000000E+00 0. -1.
</event>
<event>
 7    1  0.5109948E-006  0.1011955E+03  0.7561462E-02  0.1277802E+00
         -1   -1    0    0    0  501 -0.00000000000E+00  0.00000000000E+00  0.22867413528E+03  0.22867413528E+03  0.00000000000E+00 0.  1.
          1   -1    0    0  501    0  0.00000000000E+00 -0.00000000000E+00 -0.11068561913E+03  0.11068561913E+03  0.00000000000E+00 0. -1.
         23    2    1    2    0    0  0.10164556778E+02 -0.18272430279E+02  0.18935619287E+03  0.22263094831E+03  0.11520230661E+03 0.  0.
          5    1    3    3  502    0 -0.12914899631E+02  0.42645380426E+02  0.41618637431E+02  0.61114699425E+02  0.41800000000E+01 0. -1.
         -5    1    3    3    0  502  0.23079456409E+02 -0.60917810705E+02  0.14773755543E+03  0.16151624889E+03  0.41800000000E+01 0.  1.
        -11    1    1    2    0    0  0.13951444106E+02 -0.32929497513E+02 -0.28483798920E+02  0.45720032809E+02  0.00000000000E+00 0.  1.
         11    1    1    2    0    0 -0.24116000884E+02  0.51201927792E+02 -0.42883877796E+02  0.71008773282E+02  0.00000000000E+00 0. -1.
</event>
<event>
 7    1  0.5109948E-006  0.1100304E+03  0.7561462E-02  0.1260514E+00
          2   -1    0    0  501    0  0.00000000000E+00  0.00000000000E+00  0.58190131868E+03  0.58190131868E+03  0.00000000000E+00 0. -1.
         -2   -1    0    0    0  501 -0.00000000000E+00 -0.00000000000E+00 -0.26479447223E+02  0.26479447223E+02  0.00000000000E+00 0.  1.
         23    2    1    2    0    0 -0.36906327116E+02 -0.43432729946E+02  0.26944950617E+03  0.30248770317E+03  0.12508914893E+03 0.  0.
          5    1    3    3  502    0  0.17003492791E+02  0.36758879196E+02  0.77090815634E+02  0.87182568337E+02  0.41800000000E+01 0. -1.
         -5    1    3    3    0  502 -0.53909819907E+02 -0.80191609142E+02  0.19235869054E+03  0.21530513483E+03  0.41800000000E+01 0. -1.
        -11    1    1    2    0    0 -0.16444851998E+02  0.14556215538E+02  0.11488217502E+02  0.24784989599E+02  0.00000000000E+00 0.  1.
         11    1    1    2    0    0  0.53351179114E+02  0.28876514408E+02  0.27448414778E+03  0.28110807314E+03  0.00000000000E+00 0. -1.
</event>
<event>
 7    1  0.5109948E-006  0.8951883E+02  0.7561462E-02  0.1304021E+00
          2   -1    0    0  501    0  0.00000000000E+00  0.00000000000E+00  0.42213014232E+03  0.42213014232E+03  0.00000000000E+00 0. -1.
         -2   -1    0    0    0  501 -0.00000000000E+00 -0.00000000000E+00 -0.50632990402E+02  0.50632990402E+02  0.00000000000E+00 0.  1.
         23    2    1    2    0    0 -0.39646726512E+02  0.69127272537E+02  0.11514223888E+03  0.18776363738E+03  0.12508799150E+03 0.  0.
          5    1    3    3  502    0 -0.41398884775E+01  0.88705352309E+01  0.11718656225E+03  0.11766897570E+03  0.41800000000E+01 0.  1.
         -5    1    3    3    0  502 -0.35506838034E+02  0.60256737306E+02 -0.20443233693E+01  0.70094661679E+02  0.41800000000E+01 0.  1.
        -11    1    1    2    0    0  0.44382206907E+02 -0.19501871160E+02  0.21449352042E+03  0.21990355515E+03  0.00000000000E+00 0. -1.
         11    1    1    2    0    0 -0.47354803949E+01 -0.49625401376E+02  0.41861392626E+02  0.65095940188E+02  0.00000000000E+00 0.  1.
</event>
<event>
 7    1  0.5109948E-006  0.1143891E+03  0.7561462E-02  0.1252651E+00
          2   -1    0    0  501    0  0.00000000000E+00  0.00000000000E+00  0.62116605618E+03  0.62116605618E+03  0.00000000000E+00 0. -1.
         -2   -1    0    0    0  501 -0.00000000000E+00 -0.00000000000E+00 -0.21186613468E+02  0.21186613468E+02  0.00000000000E+00 0.  1.
         23    2    1    2    0    0 -0.32933048454E+02 -0.11734520221E+02  0.31699723862E+03  0.34257543138E+03  0.12509353399E+03 0.  0.
          5    1    3    3  502    0  0.36662435492E+01 -0.64920076089E+02  0.16289686457E+03  0.17544491588E+03  0.41800000000E+01 0. -1.
         -5    1    3    3    0  502 -0.36599292003E+02  0.53185555868E+02  0.15410037405E+03  0.16713051550E+03  0.41800000000E+01 0. -1.
        -11    1    1    2    0    0  0.11840258206E+02 -0.40709680057E+02  0.12317663500E+03  0.13026877283E+03  0.00000000000E+00 0.  1.
         11    1    1    2    0    0  0.21092790248E+02  0.52444200278E+02  0.15980556909E+03  0.16950846544E+03  0.00000000000E+00 0. -1.
</event>
<event>
 7    1  0.5109948E-006  0.1200978E+03  0.7561462E-02  0.1242936E+00
          2   -1    0    0  501    0  0.00000000000E+00  0.00000000000E+00  0.73963391949E+03  0.73963391949E+03  0.00000000000E+00 0. -1.
         -2   -1    0    0    0  501 -0.00000000000E+00 -0.00000000000E+00 -0.28717447543E+02  0.28717447543E+02  0.00000000000E+00 0.  1.
         23    2    1    2    0    0  0.80159312636E+02 -0.53281534013E+02  0.40814648016E+03  0.43760113780E+03  0.12508704676E+03 0.  0.
          5    1    3    3  502    0  0.89829506069E+02 -0.10729151234E+01  0.15758480743E+03  0.18144127215E+03  0.41800000000E+01 0. -1.
         -5    1    3    3    0  502 -0.96701934332E+01 -0.52208618889E+02  0.25056167273E+03  0.25615986565E+03  0.41800000000E+01 0. -1.
        -11    1    1    2    0    0 -0.35696483503E+02  0.30950723153E+02  0.36049381685E+02  0.59428479015E+02  0.00000000000E+00 0.  1.
         11    1    1    2    0    0 -0.44462829133E+02  0.22330810860E+02  0.26672061009E+03  0.27132175021E+03  0.00000000000E+00 0. -1.
</event>
<event>
 7    1  0.5109948E-006  0.1170098E+03  0.7561462E-02  0.1248113E+00
         -1   -1    0    0    0  501 -0.00000000000E+00  0.00000000000E+00  0.13877637740E+03  0.13877637740E+03  0.00000000000E+00 0.  1.
          1   -1    0    0  501    0  0.00000000000E+00 -0.00000000000E+00 -0.16168027017E+03  0.16168027017E+03  0.00000000000E+00 0. -1.
         23    2    1    2    0    0  0.91191701129E+02 -0.31166927566E+02  0.22456938775E+02  0.15950065449E+03  0.12509532747E+03 0.  0.
          5    1    3    3  502    0  0.18276422081E+01 -0.11019085482E+02  0.59437674841E+02  0.60622356531E+02  0.41800000000E+01 0.  1.
         -5    1    3    3    0  502  0.89364058920E+02 -0.20147842083E+02 -0.36980736066E+02  0.98878297959E+02  0.41800000000E+01 0.  1.
        -11    1    1    2    0    0 -0.59470113083E+02  0.62170951414E+02 -0.43871286022E+02  0.96574382147E+02  0.00000000000E+00 0. -1.
         11    1    1    2    0    0 -0.31721588045E+02 -0.31004023849E+02 -0.14895455206E+01  0.44381610931E+02  0.00000000000E+00 0.  1.
</event>
<event>
 7    1  0.5109948E-006  0.1048958E+03  0.7561462E-02  0.1270325E+00
         -2   -1    0    0    0  501 -0.00000000000E+00  0.00000000000E+00  0.19999666621E+03  0.19999666621E+03  0.00000000000E+00 0. -1.
          2   -1    0    0  501    0  0.00000000000E+00 -0.00000000000E+00 -0.81092234191E+02  0.81092234191E+02  0.00000000000E+00 0.  1.
         23    2    1    2    0    0 -0.31481940198E+02  0.33657367843E+02  0.11793047057E+03  0.17798624995E+03  0.12509028065E+03 0.  0.
          5    1    3    3  502    0  0.48300942592E+02  0.18054795634E+02  0.50291453922E+02  0.72150255982E+02  0.41800000000E+01 0.  1.
         -5    1    3    3    0  502 -0.79782882790E+02  0.15602572209E+02  0.67639016648E+02  0.10583599397E+03  0.41800000000E+01 0.  1.
        -11    1    1    2    0    0 -0.62473338328E+01 -0.38151677643E+02 -0.33982859547E+02  0.51472462832E+02  0.00000000000E+00 0. -1.
         11    1    1    2    0    0  0.37729274031E+02  0.44943097992E+01  0.34956820998E+02  0.51630187621E+02  0.00000000000E+00 0.  1.
</event>
<event>
 6    1  0.5109948E-006  0.1848669E+03  0.7561462E-02  0.1163174E+00
         -1   -1    0    0    0  501 -0.00000000000E+00  0.00000000000E+00  0.39563054818E+02  0.39563054818E+02  0.00000000000E+00 0.  1.
          1   -1    0    0  501    0  0.00000000000E+00 -0.00000000000E+00 -0.12501826970E+04  0.12501826970E+04  0.00000000000E+00 0. -1.
          5    1    1    2  502    0  0.26804427929E+02 -0.14372901768E+03 -0.16925871015E+03  0.22370179088E+03  0.41800000000E+01 0. -1.
         -5    1    1    2    0  502 -0.36198145520E+02  0.91084742751E+01 -0.24409202332E+03  0.24696489283E+03  0.41800000000E+01 0.  1.
        -11    1    1    2    0    0 -0.10807838880E+02  0.15606905911E+03 -0.62332285048E+03  0.64265522368E+03  0.00000000000E+00 0.  1.
         11    1    1    2    0    0  0.20201556472E+02 -0.21448515709E+02 -0.17394605822E+03  0.17642384442E+03  0.00000000000E+00 0. -1.
</event>
<event>
 7    1  0.5109948E-006  0.1604719E+03  0.7561462E-02  0.1188165E+00
          1   -1    0    0  501    0  0.00000000000E+00  0.00000000000E+00  0.27591643540E+03  0.27591643540E+03  0.00000000000E+00 0. -1.
         -1   -1    0    0    0  501 -0.00000000000E+00 -0.00000000000E+00 -0.11243784316E+03  0.11243784316E+03  0.00000000000E+00 0.  1.
         23    2    1    2    0    0 -0.97000339469E+01 -0.13112514469E+03  0.39609631217E+02  0.18575561123E+03  0.12509328514E+03 0.  0.
          5    1    3    3  502    0 -0.46998436709E+02 -0.10861167530E+03  0.65074193575E+02  0.13512021364E+03  0.41800000000E+01 0.  1.
         -5    1    3    3    0  502  0.37298402762E+02 -0.22513469390E+02 -0.25464562358E+02  0.50635397586E+02  0.41800000000E+01 0.  1.
        -11    1    1    2    0    0  0.42928919887E+02  0.30153629959E+02  0.54621998129E+02  0.75734379525E+02  0.00000000000E+00 0.  1.
         11    1    1    2    0    0 -0.33228885941E+02  0.10097151473E+03  0.69246962893E+02  0.12686428780E+03  0.00000000000E+00 0. -1.
</event>
<event>
 7    1  0.5109948E-006  0.1028031E+03  0.7561462E-02  0.1274509E+00
         -2   -1    0    0    0  501 -0.00000000000E+00  0.00000000000E+00  0.44618349787E+02  0.44618349787E+02  0.00000000000E+00 0.  1.
          2   -1    0    0  501    0  0.00000000000E+00 -0.00000000000E+00 -0.27055724137E+03  0.27055724137E+03  0.00000000000E+00 0. -1.
         23    2    1    2    0    0  0.58085310360E+01  0.12105206362E+02 -0.11058046984E+03  0.16749726731E+03  0.12508804576E+03 0.  0.
          5    1    3    3  502    0 -0.44163054782E+02  0.44263703405E+02 -0.76409819203E+02  0.98820968005E+02  0.41800000000E+01 0. -1.
         -5    1    3    3    0  502  0.49971585818E+02 -0.32158497043E+02 -0.34170650642E+02  0.68676299307E+02  0.41800000000E+01 0. -1.
        -11    1    1    2    0    0 -0.27291765220E+02 -0.39836354585E+02 -0.33935333086E+02  0.59020186607E+02  0.00000000000E+00 0.  1.
         11    1    1    2    0    0  0.21483234184E+02  0.27731148223E+02 -0.81423088653E+02  0.88658137239E+02  0.00000000000E+00 0. -1.
</event>
<event>
 7    1  0.5109948E-006  0.1492236E+03  0.7561462E-02  0.1201430E+00
          2   -1    0    0  501    0  0.00000000000E+00  0.00000000000E+00  0.40071745715E+02  0.40071745715E+02  0.00000000000E+00 0. -1.
         -2   -1    0    0    0  501 -0.00000000000E+00 -0.00000000000E+00 -0.63371908600E+03  0.63371908600E+03  0.00000000000E+00 0.  1.
         23    2    1    2    0    0  0.54991777902E+02  0.10029688326E+03 -0.36527911860E+03  0.40269096525E+03  0.12509044163E+03 0.  0.
          5    1    3    3  502    0 -0.51832021646E+01  0.10545298161E+03 -0.19220431526E+03  0.21933346329E+03  0.41800000000E+01 0. -1.
         -5    1    3    3    0  502  0.60174980067E+02 -0.51560983473E+01 -0.17307480333E+03  0.18335750196E+03  0.41800000000E+01 0. -1.
        -11    1    1    2    0    0 -0.59385732015E+02 -0.39576135822E+02 -0.17905837392E+03  0.19275589994E+03  0.00000000000E+00 0.  1.
         11    1    1    2    0    0  0.43939541128E+01 -0.60720747439E+02 -0.49309847772E+02  0.78343966517E+02  0.00000000000E+00 0. -1.
</event>
<event>
 7    1  0.5109948E-006  0.9141054E+02  0.7561462E-02  0.1299471E+00
          1   -1    0    0  501    0  0.00000000000E+00  0.00000000000E+00  0.67735336719E+02  0.67735336719E+02  0.00000000000E+00 0. -1.
         -1   -1    0    0    0  501 -0.00000000000E+00 -0.00000000000E+00 -0.31506360863E+03  0.31506360863E+03  0.00000000000E+00 0.  1.
         23    2    1    2    0    0  0.17134250928E+02  0.45569669218E+02 -0.22965453682E+03  0.26600507783E+03  0.12508923951E+03 0.  0.
          5    1    3    3  502    0  0.53454344183E+02 -0.21037156523E+02 -0.86211830946E+02  0.10368163319E+03  0.41800000000E+01 0.  1.
         -5    1    3    3    0  502 -0.36320093255E+02  0.66606825741E+02 -0.14344270588E+03  0.16232344464E+03  0.41800000000E+01 0.  1.
        -11    1    1    2    0    0 -0.10842941881E+02 -0.37351561120E+02 -0.60947237806E+02  0.72299891445E+02  0.00000000000E+00 0.  1.
         11    1    1    2    0    0 -0.62913090464E+01 -0.82181080977E+01  0.43273502713E+02  0.44493976078E+02  0.00000000000E+00 0. -1.
</event>
<event>
 6    1  0.5109948E-006  0.1396884E+03  0.7561462E-02  0.1213749E+00
          4   -1    0    0  501    0  0.00000000000E+00  0.00000000000E+00  0.13394605649E+03  0.13394605649E+03  0.00000000000E+00 0. -1.
         -4   -1    0    0    0  501 -0.00000000000E+00 -0.00000000000E+00 -0.57221425476E+03  0.57221425476E+03  0.00000000000E+00 0.  1.
          5    1    1    2  502    0  0.32388194013E+02  0.74361851512E+02  0.36959045812E+02  0.89230732033E+02  0.41800000000E+01 0. -1.
         -5    1    1    2    0  502  0.59980076409E+02 -0.45951812530E+02 -0.47709696524E+03  0.48306124382E+03  0.41800000000E+01 0.  1.
        -11    1    1    2    0    0 -0.10487294474E+03 -0.18415649378E+02 -0.18383303920E+02  0.10805284145E+03  0.00000000000E+00 0. -1.
         11    1    1    2    0    0  0.12504674323E+02 -0.99943896037E+01  0.20253025075E+02  0.25815493956E+02  0.00000000000E+00 0.  1.
</event>
<event>
 7    1  0.5109948E-006  0.1312257E+03  0.7561462E-02  0.1225648E+00
         -1   -1    0    0    0  501 -0.00000000000E+00  0.00000000000E+00  0.19166540228E+03  0.19166540228E+03  0.00000000000E+00 0.  1.
          1   -1    0    0  501    0  0.00000000000E+00 -0.00000000000E+00 -0.11704485619E+03  0.11704485619E+03  0.00000000000E+00 0. -1.
         23    2    1    2    0    0  0.99226039098E+02  0.25272068275E+02  0.51329475689E+02  0.16960799047E+03  0.12509065148E+03 0.  0.
          5    1    3    3  502    0  0.37370360380E+01 -0.22856597352E+02  0.57790907755E+02  0.62399125795E+02  0.41800000000E+01 0. -1.
         -5    1    3    3    0  502  0.95489003060E+02  0.48128665627E+02 -0.64614320660E+01  0.10720886467E+03  0.41800000000E+01 0. -1.
        -11    1    1    2    0    0 -0.72213081748E+02 -0.55711622765E+02  0.33466807137E+02  0.97152155233E+02  0.00000000000E+00 0.  1.
         11    1    1    2    0    0 -0.27012957350E+02  0.30439554490E+02 -0.10175736736E+02  0.41950112759E+02  0.00000000000E+00 0. -1.
</event>
<event>
 7    1  0.5109948E-006  0.1181513E+03  0.7561462E-02  0.1246178E+00
         -1   -1    0    0    0  501 -0.00000000000E+00  0.00000000000E+00  0.49445151702E+02  0.49445151702E+02  0.00000000000E+00 0.  1.
          1   -1    0    0  501    0  0.00000000000E+00 -0.00000000000E+00 -0.60234850429E+03  0.60234850429E+03  0.00000000000E+00 0. -1.
         23    2    1    2    0    0  0.95002191815E+02 -0.24769271719E+02 -0.99386380965E+02  0.17896297777E+03  0.11185330312E+03 0.  0.
          5    1    3    3  502    0  0.96657957041E+02 -0.25113614843E+02 -0.12096478908E+03  0.15691847216E+03  0.41800000000E+01 0. -1.
         -5    1    3    3    0  502 -0.16557652256E+01  0.34434312430E+00  0.21578408111E+02  0.22044505603E+02  0.41800000000E+01 0.  1.
        -11    1    1    2    0    0  0.15474496401E+02  0.13949042071E+02 -0.46610771181E+02  0.51054870518E+02  0.00000000000E+00 0.  1.
         11    1    1    2    0    0 -0.11047668822E+03  0.10820229648E+02 -0.40690620044E+03  0.42177580770E+03  0.00000000000E+00 0. -1.
</event>
<event>
 7    1  0.5109948E-006  0.1939228E+03  0.7561462E-02  0.1154970E+00
         -2   -1    0    0    0  501 -0.00000000000E+00  0.00000000000E+00  0.49122198046E+03  0.49122198046E+03  0.00000000000E+00 0. -1.
          2   -1    0    0  501    0  0.00000000000E+00 -0.00000000000E+00 -0.89759747560E+02  0.89759747560E+02  0.00000000000E+00 0.  1.
         23    2    1    2    0    0 -0.17305502546E+03 -0.11682117927E+01  0.27334040933E+03  0.34686086351E+03  0.12509225680E+03 0.  0.
          5    1    3    3  502    0 -0.94315114934E+02  0.61452844474E+02  0.13687451152E+03  0.17726786878E+03  0.41800000000E+01 0.  1.
         -5    1    3    3    0  502 -0.78739910521E+02 -0.62621056267E+02  0.13646589781E+03  0.16959299473E+03  0.41800000000E+01 0.  1.
        -11    1    1    2    0    0  0.10311775744E+02  0.55388433266E+01 -0.13833632526E+02  0.18121282881E+02  0.00000000000E+00 0.  1.
         11    1    1    2    0    0  0.16274324971E+03 -0.43706315339E+01  0.14195545610E+03  0.21599958163E+03  0.00000000000E+00 0. -1.
</event>
<event>
 7    1  0.5109948E-006  0.1078165E+03  0.7561462E-02  0.1264668E+00
         -2   -1    0    0    0  501 -0.00000000000E+00  0.00000000000E+00  0.72662325536E+03  0.72662325536E+03  0.00000000000E+00 0.  1.
          2   -1    0    0  501    0  0.00000000000E+00 -0.00000000000E+00 -0.41910230599E+02  0.41910230599E+02  0.00000000000E+00 0. -1.
         23    2    1    2    0    0 -0.67047433580E+01  0.41083061425E+02  0.65154446060E+03  0.66474930916E+03  0.12509471758E+03 0.  0.
          5    1    3    3  502    0 -0.14729991645E+02 -0.37986544942E+02  0.10979280743E+03  0.11718311830E+03  0.41800000000E+01 0.  1.
         -5    1    3    3    0  502  0.80252482869E+01  0.79069606367E+02  0.54175165316E+03  0.54756619086E+03  0.41800000000E+01 0.  1.
        -11    1    1    2    0    0 -0.39394106126E+02 -0.15215057818E+02  0.28004179639E+02  0.50671763924E+02  0.00000000000E+00 0.  1.
         11    1    1    2    0    0  0.46098849484E+02 -0.25868003606E+02  0.51643845232E+01  0.53112412879E+02  0.00000000000E+00 0. -1.
</event>
<event>
 7    1  0.5109948E-006  0.1176453E+03  0.7561462E-02  0.1247033E+00
          1   -1    0    0  501    0  0.00000000000E+00  0.00000000000E+00  0.27108160612E+03  0.27108160612E+03  0.00000000000E+00 0. -1.
         -1   -1    0    0    0  501 -0.00000000000E+00 -0.00000000000E+00 -0.67426692947E+02  0.67426692947E+02  0.00000000000E+00 0.  1.
         23    2    1    2    0    0  0.57667259153E+01  0.79249857182E+02  0.71671508141E+02  0.15861102164E+03  0.11707628332E+03 0.  0.
          5    1    3    3  502    0 -0.37688342117E+02  0.28687553201E+02 -0.14378934682E+02  0.49675074261E+02  0.41800000000E+01 0. -1.
         -5    1    3    3    0  502  0.43455068033E+02  0.50562303980E+02  0.86050442823E+02  0.10893594738E+03  0.41800000000E+01 0.  1.
        -11    1    1    2    0    0  0.42407497878E+02 -0.29295209315E+02  0.69407126315E+02  0.86452034959E+02  0.00000000000E+00 0.  1.
         11    1    1    2    0    0 -0.48174223794E+02 -0.49954647866E+02  0.62576278716E+02  0.93445242466E+02  0.00000000000E+00 0. -1.
</event>
<event>
 7    1  0.5109948E-006  0.9124461E+02  0.7561462E-02  0.1299865E+00
         -2   -1    0    0    0  501 -0.00000000000E+00  0.00000000000E+00  0.13359255038E+03  0.13359255038E+03  0.00000000000E+00 0. -1.
          2   -1    0    0  501    0  0.00000000000E+00 -0.00000000000E+00 -0.11116305254E+03  0.11116305254E+03  0.00000000000E+00 0.  1.
         23    2    1    2    0    0 -0.20770412662E+02 -0.46449418821E+02  0.30457547306E+02  0.13843499192E+03  0.12509047225E+03 0.  0.
          5    1    3    3  502    0 -0.59582857925E+02  0.12384519097E+02 -0.13033562165E+01  0.61013641173E+02  0.41800000000E+01 0. -1.
         -5    1    3    3    0  502  0.38812445263E+02 -0.58833937917E+02  0.31760903523E+02  0.77421350742E+02  0.41800000000E+01 0. -1.
        -11    1    1    2    0    0  0.15276626680E+02  0.34497029986E+02 -0.49827796781E+02  0.62499837860E+02  0.00000000000E+00 0.  1.
         11    1    1    2    0    0  0.54937859819E+01  0.11952388835E+02  0.41799747313E+02  0.43820773142E+02  0.00000000000E+00 0. -1.
</event>
<event>
 7    1  0.5109948E-006  0.1357232E+03  0.7561462E-02  0.1219202E+00
          1   -1    0    0  501    0  0.00000000000E+00  0.00000000000E+00  0.12682990920E+04  0.12682990920E+04  0.00000000000E+00 0. -1.
         -1   -1    0    0    0  501 -0.00000000000E+00 -0.00000000000E+00 -0.14726993713E+02  0.14726993713E+02  0.00000000000E+00 0.  1.
         23    2    1    2    0    0  0.60739238227E+02  0.39479329694E+02  0.59370542127E+03  0.61012366656E+03  0.12048605195E+03 0.  0.
          5    1    3    3  502    0  0.67394574419E+01  0.75257411800E+02  0.31819069376E+03  0.32706557189E+03  0.41800000000E+01 0. -1.
         -5    1    3    3    0  502  0.53999780786E+02 -0.35778082106E+02  0.27551472751E+03  0.28305809467E+03  0.41800000000E+01 0.  1.
        -11    1    1    2    0    0 -0.39607598855E+02  0.35359976970E+02  0.30820349072E+03  0.31274347564E+03  0.00000000000E+00 0. -1.
         11    1    1    2    0    0 -0.21131639372E+02 -0.74839306663E+02  0.35166318631E+03  0.36015894354E+03  0.00000000000E+00 0.  1.
</event>
<event>
 7    1  0.5109948E-006  0.2084436E+03  0.7561462E-02  0.1142804E+00
         -1   -1    0    0    0  501 -0.00000000000E+00  0.00000000000E+00  0.17216183358E+03  0.17216183358E+03  0.00000000000E+00 0.  1.
          1   -1    0    0  501    0  0.00000000000E+00 -0.00000000000E+00 -0.27957619695E+03  0.27957619695E+03  0.00000000000E+00 0. -1.
         23    2    1    2    0    0  0.13125043536E+03  0.12947373038E+03 -0.10028029540E+02  0.22302013229E+03  0.12508914577E+03 0.  0.
          5    1    3    3  502    0  0.14195608454E+03  0.82822593206E+02 -0.36151393509E+02  0.16833154052E+03  0.41800000000E+01 0.  1.
         -5    1    3    3    0  502 -0.10705649179E+02  0.46651137178E+02  0.26123363969E+02  0.54688591767E+02  0.41800000000E+01 0.  1.
        -11    1    1    2    0    0 -0.11657598933E+03 -0.55664854427E+02 -0.78375805918E+02  0.15110031191E+03  0.00000000000E+00 0. -1.
         11    1    1    2    0    0 -0.14674446024E+02 -0.73808875957E+02 -0.19010527914E+02  0.77617586330E+02  0.00000000000E+00 0.  1.
</event>
<event>
 7    1  0.5109948E-006  0.1075536E+03  0.7561462E-02  0.1265169E+00
          2   -1    0    0  501    0  0.00000000000E+00  0.00000000000E+00  0.51548962909E+02  0.51548962909E+02  0.00000000000E+00 0.  1.
         -2   -1    0    0    0  501 -0.00000000000E+00 -0.00000000000E+00 -0.33757117705E+03  0.33757117705E+03  0.00000000000E+00 0. -1.
         23    2    1    2    0    0 -0.53064826545E+02  0.27835821989E+02 -0.22141278049E+03  0.26126853730E+03  0.12508765093E+03 0.  0.
          5    1    3    3  502    0 -0.85538212142E+02 -0.11448309198E+02 -0.12232308421E+03  0.14976067191E+03  0.41800000000E+01 0. -1.
         -5    1    3    3    0  502  0.32473385597E+02  0.39284131187E+02 -0.99089696275E+02  0.11150786539E+03  0.41800000000E+01 0. -1.
        -11    1    1    2    0    0  0.14903694010E+02 -0.35625757853E+02  0.13222488008E+02  0.40818487317E+02  0.00000000000E+00 0.  1.
         11    1    1    2    0    0  0.38161132535E+02  0.77899358634E+01 -0.77831921663E+02  0.87033115346E+02  0.00000000000E+00 0. -1.
</event>
<event>
 7    1  0.5109948E-006  0.1097705E+03  0.7561462E-02  0.1260996E+00
          2   -1    0    0  501    0  0.00000000000E+00  0.00000000000E+00  0.10946028848E+03  0.10946028848E+03  0.00000000000E+00 0. -1.
         -2   -1    0    0    0  501 -0.00000000000E+00 -0.00000000000E+00 -0.15618349306E+03  0.15618349306E+03  0.00000000000E+00 0.  1.
         23    2    1    2    0    0 -0.25118848201E+01  0.67950238496E+02 -0.52584245312E+02  0.15170222038E+03  0.12499966534E+03 0.  0.
          5    1    3    3  502    0  0.31999070064E+02  0.63683145196E+02  0.17364977837E+02  0.73474473950E+02  0.41800000000E+01 0.  1.
         -5    1    3    3    0  502 -0.34510954884E+02  0.42670933001E+01 -0.69949223149E+02  0.78227746429E+02  0.41800000000E+01 0.  1.
        -11    1    1    2    0    0  0.43027737421E+02 -0.56504836198E+02  0.96275250660E+01  0.71671974580E+02  0.00000000000E+00 0.  1.
         11    1    1    2    0    0 -0.40515852601E+02 -0.11445402297E+02 -0.37664843373E+01  0.42269586584E+02  0.00000000000E+00 0. -1.
</event>
<event>
 7    1  0.5109948E-006  0.2472239E+03  0.7561462E-02  0.1115072E+00
          1   -1    0    0  501    0  0.00000000000E+00  0.00000000000E+00  0.69127302672E+03  0.69127302672E+03  0.00000000000E+00 0. -1.
         -1   -1    0    0    0  501 -0.00000000000E+00 -0.00000000000E+00 -0.91617800520E+02  0.91617800520E+02  0.00000000000E+00 0.  1.
         23    2    1    2    0    0 -0.21874679515E+03 -0.51485067186E+02  0.26393313352E+03  0.36852369834E+03  0.12509254470E+03 0.  0.
          5    1    3    3  502    0 -0.13499244981E+03  0.29051589457E+02  0.11615283402E+03  0.18048797635E+03  0.41800000000E+01 0.  1.
         -5    1    3    3    0  502 -0.83754345343E+02 -0.80536656644E+02  0.14778029949E+03  0.18803572199E+03  0.41800000000E+01 0.  1.
        -11    1    1    2    0    0  0.95404669874E+02  0.65752389318E+02  0.19380816414E+03  0.22580308284E+03  0.00000000000E+00 0. -1.
         11    1    1    2    0    0  0.12334212528E+03 -0.14267322131E+02  0.14191392855E+03  0.18856404605E+03  0.00000000000E+00 0.  1.
</event>
<event>
 7    1  0.5109948E-006  0.8194107E+02  0.7561462E-02  0.1323631E+00
          2   -1    0    0  501    0  0.00000000000E+00  0.00000000000E+00  0.35900232487E+03  0.35900232487E+03  0.00000000000E+00 0. -1.
         -2   -1    0    0    0  501 -0.00000000000E+00 -0.00000000000E+00 -0.33799513090E+02  0.33799513090E+02  0.00000000000E+00 0.  1.
         23    2    1    2    0    0 -0.23415323679E+01  0.39815909200E+02  0.14995178412E+03  0.19932096748E+03  0.12511003604E+03 0.  0.
          5    1    3    3  502    0  0.36811882115E+01  0.70535678859E+02  0.32802483379E+02  0.77989156007E+02  0.41800000000E+01 0.  1.
         -5    1    3    3    0  502 -0.60227205794E+01 -0.30719769659E+02  0.11714930074E+03  0.12133181147E+03  0.41800000000E+01 0.  1.
        -11    1    1    2    0    0 -0.16100403785E+02  0.16280566933E+01  0.44848828136E+01  0.16792490717E+02  0.00000000000E+00 0.  1.
         11    1    1    2    0    0  0.18441936153E+02 -0.41443965893E+02  0.17076614484E+03  0.17668837976E+03  0.00000000000E+00 0. -1.
</event>
<event>
 7    1  0.5109948E-006  0.1552214E+03  0.7561462E-02  0.1194200E+00
          1   -1    0    0  501    0  0.00000000000E+00  0.00000000000E+00  0.43169215296E+03  0.43169215296E+03  0.00000000000E+00 0. -1.
         -1   -1    0    0    0  501 -0.00000000000E+00 -0.00000000000E+00 -0.84112385778E+02  0.84112385778E+02  0.00000000000E+00 0.  1.
         23    2    1    2    0    0 -0.13028839193E+03 -0.69776715843E+02  0.10209265872E+03  0.21889017268E+03  0.12508453776E+03 0.  0.
          5    1    3    3  502    0  0.18846863708E+01  0.62821066514E+01 -0.21303739493E+02  0.22679034879E+02  0.41800000000E+01 0. -1.
         -5    1    3    3    0  502 -0.13217307830E+03 -0.76058822495E+02  0.12339639821E+03  0.19621113780E+03  0.41800000000E+01 0. -1.
        -11    1    1    2    0    0  0.32840389398E+02  0.31227993538E+02  0.22643670521E+02  0.50659792448E+02  0.00000000000E+00 0.  1.
         11    1    1    2    0    0  0.97448002530E+02  0.38548722305E+02  0.22284343794E+03  0.24625457361E+03  0.00000000000E+00 0. -1.
</event>
<event>
 7    1  0.5109948E-006  0.1096901E+03  0.7561462E-02  0.1261145E+00
         -1   -1    0    0    0  501 -0.00000000000E+00  0.00000000000E+00  0.47106654061E+02  0.47106654061E+02  0.00000000000E+00 0.  1.
          1   -1    0    0  501    0  0.00000000000E+00 -0.00000000000E+00 -0.28671423476E+03  0.28671423476E+03  0.00000000000E+00 0. -1.
         23    2    1    2    0    0 -0.17526959251E+02 -0.10424869842E+02 -0.83433421793E+02  0.15173671965E+03  0.12508806501E+03 0.  0.
          5    1    3    3  502    0 -0.71031042174E+02 -0.11738530031E+02 -0.38610921117E+02  0.81801452732E+02  0.41800000000E+01 0. -1.
         -5    1    3    3    0  502  0.53504082922E+02  0.13136601894E+01 -0.44822500676E+02  0.69935266921E+02  0.41800000000E+01 0. -1.
        -11    1    1    2    0    0  0.49617826061E+02  0.28020472759E+02 -0.92606348882E+02  0.10873367192E+03  0.00000000000E+00 0.  1.
         11    1    1    2    0    0 -0.32090866809E+02 -0.17595602917E+02 -0.63567810020E+02  0.73350497240E+02  0.00000000000E+00 0. -1.
</event>
<event>
 7    1  0.5109948E-006  0.8224082E+02  0.7561462E-02  0.1322810E+00
         -2   -1    0    0    0  501 -0.00000000000E+00  0.00000000000E+00  0.16197221421E+02  0.16197221421E+02  0.00000000000E+00 0.  1.
          2   -1    0    0  501    0  0.00000000000E+00 -0.00000000000E+00 -0.42396271979E+03  0.42396271979E+03  0.00000000000E+00 0. -1.
         23    2    1    2    0    0  0.95719464748E+01  0.57069664261E+01 -0.26094316496E+03  0.28489223083E+03  0.11378952597E+03 0.  0.
          5    1    3    3  502    0  0.41074263043E+02  0.46554937078E+02 -0.15356238912E+03  0.16569048556E+03  0.41800000000E+01 0. -1.
         -5    1    3    3    0  502 -0.31502316568E+02 -0.40847970652E+02 -0.10738077584E+03  0.11920174527E+03  0.41800000000E+01 0.  1.
        -11    1    1    2    0    0 -0.52740679318E+01  0.21919216313E+02 -0.66805347611E+02  0.70506895448E+02  0.00000000000E+00 0. -1.
         11    1    1    2    0    0 -0.42978785430E+01 -0.27626182739E+02 -0.80016985797E+02  0.84760814937E+02  0.00000000000E+00 0.  1.
</event>
<event>
 7    1  0.5109948E-006  0.1041448E+03  0.7561462E-02  0.1271814E+00
         -1   -1    0    0    0  501 -0.00000000000E+00  0.00000000000E+00  0.15378083443E+02  0.15378083443E+02  0.00000000000E+00 0.  1.
          1   -1    0    0  501    0  0.00000000000E+00 -0.00000000000E+00 -0.79938926276E+03  0.79938926276E+03  0.00000000000E+00 0. -1.
         23    2    1    2    0    0  0.14006888685E+02 -0.15479520091E+02 -0.33156385248E+03  0.35499111187E+03  0.12509313635E+03 0.  0.
          5    1    3    3  502    0  0.63912376323E+02  0.17855398647E+02 -0.18326894542E+03  0.19495790793E+03  0.41800000000E+01 0.  1.
         -5    1    3    3    0  502 -0.49905487638E+02 -0.33334918738E+02 -0.14829490706E+03  0.16003320394E+03  0.41800000000E+01 0.  1.
        -11    1    1    2    0    0  0.26404633568E+02 -0.15590063794E+02 -0.15769216053E+03  0.16064579750E+03  0.00000000000E+00 0.  1.
         11    1    1    2    0    0 -0.40411522253E+02  0.31069583885E+02 -0.29475516631E+03  0.29913043684E+03  0.00000000000E+00 0. -1.
</event>
<event>
 7    1  0.5109948E-006  0.1655429E+03  0.7561462E-02  0.1182577E+00
          1   -1    0    0  501    0  0.00000000000E+00  0.00000000000E+00  0.86758459627E+03  0.86758459627E+03  0.00000000000E+00 0. -1.
         -1   -1    0    0    0  501 -0.00000000000E+00 -0.00000000000E+00 -0.46391362914E+02  0.46391362914E+02  0.00000000000E+00 0.  1.
         23    2    1    2    0    0  0.11404225603E+03  0.57027972287E+02  0.18014175613E+03  0.25368756722E+03  0.12509397937E+03 0.  0.
          5    1    3    3  502    0  0.11615724199E+03  0.57421768383E+00  0.14922615123E+03  0.18915271926E+03  0.41800000000E+01 0.  1.
         -5    1    3    3    0  502 -0.21149859586E+01  0.56453754603E+02  0.30915604904E+02  0.64534847958E+02  0.41800000000E+01 0.  1.
        -11    1    1    2    0    0 -0.15863319592E+02 -0.57887253832E+02  0.24784391638E+03  0.25500820761E+03  0.00000000000E+00 0. -1.
         11    1    1    2    0    0 -0.98178936438E+02  0.85928154511E+00  0.39320756084E+03  0.40528018435E+03  0.00000000000E+00 0.  1.
</event>
<event>
 7    1  0.5109948E-006  0.1047132E+03  0.7561462E-02  0.1270686E+00
         -1   -1    0    0    0  501 -0.00000000000E+00  0.00000000000E+00  0.75071029039E+02  0.75071029039E+02  0.00000000000E+00 0.  1.
          1   -1    0    0  501    0  0.00000000000E+00 -0.00000000000E+00 -0.16355300630E+03  0.16355300630E+03  0.00000000000E+00 0. -1.
         23    2    1    2    0    0 -0.10917218714E+02 -0.11994354132E+02 -0.66268674795E+02  0.14248077516E+03  0.12508470664E+03 0.  0.
          5    1    3    3  502    0 -0.10152031649E+02  0.55979174367E+02 -0.39080298222E+02  0.69148201846E+02  0.41800000000E+01 0. -1.
         -5    1    3    3    0  502 -0.76518706586E+00 -0.67973528499E+02 -0.27188376573E+02  0.73332573312E+02  0.41800000000E+01 0. -1.
        -11    1    1    2    0    0  0.22172296926E+02 -0.31962261433E+02 -0.31225630302E+02  0.49882230249E+02  0.00000000000E+00 0. -1.
         11    1    1    2    0    0 -0.11255078212E+02  0.43956615565E+02  0.90123278350E+01  0.46261029933E+02  0.00000000000E+00 0.  1.
</event>
<event>
 7    1  0.5109948E-006  0.1504074E+03  0.7561462E-02  0.1199973E+00
         -1   -1    0    0    0  501 -0.00000000000E+00  0.00000000000E+00  0.10098528315E+04  0.10098528315E+04  0.00000000000E+00 0.  1.
          1   -1    0    0  501    0  0.00000000000E+00 -0.00000000000E+00 -0.41298415428E+02  0.41298415428E+02  0.00000000000E+00 0. -1.
         23    2    1    2    0    0  0.95038600075E+02 -0.46783055494E+02  0.85784523501E+03  0.87336578385E+03  0.12509338664E+03 0.  0.
          5    1    3    3  502    0  0.11421405765E+03 -0.30930000068E+01  0.65816212228E+03  0.66801891381E+03  0.41800000000E+01 0.  1.
         -5    1    3    3    0  502 -0.19175457575E+02 -0.43690055487E+02  0.19968311273E+03  0.20534687003E+03  0.41800000000E+01 0.  1.
        -11    1    1    2    0    0 -0.56960262559E+02  0.72824841902E+02  0.66466266152E+02  0.11386699981E+03  0.00000000000E+00 0.  1.
         11    1    1    2    0    0 -0.38078337516E+02 -0.26041786409E+02  0.44242914909E+02  0.63918463271E+02  0.00000000000E+00 0. -1.
</event>
<event>
 7    1  0.5109948E-006  0.2086925E+03  0.7561462E-02  0.1142606E+00
         -1   -1    0    0    0  501 -0.00000000000E+00  0.00000000000E+00  0.14823678245E+03  0.14823678245E+03  0.00000000000E+00 0.  1.
          1   -1    0    0  501    0  0.00000000000E+00 -0.00000000000E+00 -0.41901065250E+03  0.41901065250E+03  0.00000000000E+00 0. -1.
         23    2    1    2    0    0 -0.16841221596E+03 -0.76962813581E+02  0.54991049940E+00  0.22345971308E+03  0.12509193343E+03 0.  0.
          5    1    3    3  502    0 -0.16038074891E+03 -0.10571300893E+03 -0.74419681245E+01  0.19227605198E+03  0.41800000000E+01 0. -1.
         -5    1    3    3    0  502 -0.80314670495E+01  0.28750195346E+02  0.79918786239E+01  0.31183661096E+02  0.41800000000E+01 0. -1.
        -11    1    1    2    0    0  0.67318167231E+02  0.64536192450E+02 -0.19616875113E+03  0.21720689376E+03  0.00000000000E+00 0. -1.
         11    1    1    2    0    0  0.10109404873E+03  0.12426621131E+02 -0.75155029413E+02  0.12658082812E+03  0.00000000000E+00 0.  1.
</event>
<event>
 7    1  0.5109948E-006  0.8129932E+02  0.7561462E-02  0.1325404E+00
          1   -1    0    0  501    0  0.00000000000E+00  0.00000000000E+00  0.65480280995E+02  0.65480280995E+02  0.00000000000E+00 0. -1.
         -1   -1    0    0    0  501 -0.00000000000E+00 -0.00000000000E+00 -0.30648655622E+03  0.30648655622E+03  0.00000000000E+00 0.  1.
         23    2    1    2    0    0 -0.23186017239E+02 -0.27879063784E+01 -0.24671432906E+03  0.27759833938E+03  0.12509002376E+03 0.  0.
          5    1    3    3  502    0  0.21771800523E+02  0.54902674191E+01 -0.22614644051E+03  0.22729680880E+03  0.41800000000E+01 0. -1.
         -5    1    3    3    0  502 -0.44957817762E+02 -0.82781737974E+01 -0.20567888554E+02  0.50301530582E+02  0.41800000000E+01 0. -1.
        -11    1    1    2    0    0 -0.35278203204E+02  0.28225570319E+01  0.60438963055E+01  0.35903302523E+02  0.00000000000E+00 0.  1.
         11    1    1    2    0    0  0.58464220442E+02 -0.34650653510E-01 -0.33584246570E+00  0.58465195311E+02  0.00000000000E+00 0. -1.
</event>
<event>
 7    1  0.5109948E-006  0.1864663E+03  0.7561462E-02  0.1161688E+00
         -1   -1    0    0    0  501 -0.00000000000E+00  0.00000000000E+00  0.32527459767E+02  0.32527459767E+02  0.00000000000E+00 0.  1.
          1   -1    0    0  501    0  0.00000000000E+00 -0.00000000000E+00 -0.12865144166E+04  0.12865144166E+04  0.00000000000E+00 0. -1.
         23    2    1    2    0    0 -0.15893085834E+03  0.64754588060E+02 -0.59599936125E+03  0.63270415775E+03  0.12508852152E+03 0.  0.
          5    1    3    3  502    0 -0.51851515384E+02 -0.12455127860E+01 -0.49213416797E+02  0.71620972784E+02  0.41800000000E+01 0. -1.
         -5    1    3    3    0  502 -0.10707934295E+03  0.66000100846E+02 -0.54678594445E+03  0.56108318497E+03  0.41800000000E+01 0. -1.
        -11    1    1    2    0    0  0.33948744266E+02 -0.61229551563E+02 -0.22224693434E+03  0.23301346538E+03  0.00000000000E+00 0. -1.
         11    1    1    2    0    0  0.12498211407E+03 -0.35250364965E+01 -0.43574066125E+03  0.45332425325E+03  0.00000000000E+00 0.  1.
</event>
<event>
 7    1  0.5109948E-006  0.1089721E+03  0.7561462E-02  0.1262485E+00
          1   -1    0    0  501    0  0.00000000000E+00  0.00000000000E+00  0.66450359278E+03  0.66450359278E+03  0.00000000000E+00 0. -1.
         -1   -1    0    0    0  501 -0.00000000000E+00 -0.00000000000E+00 -0.31214427572E+02  0.31214427572E+02  0.00000000000E+00 0.  1.
         23    2    1    2    0    0 -0.63438718409E+02 -0.13120581661E+02  0.18169279665E+03  0.22991140250E+03  0.12510139883E+03 0.  0.
          5    1    3    3  502    0  0.19975846846E+02 -0.24896857170E+02  0.30238684190E+01  0.32334256360E+02  0.41800000000E+01 0.  1.
         -5    1    3    3    0  502 -0.83414565254E+02  0.11776275509E+02  0.17866892824E+03  0.19757714614E+03  0.41800000000E+01 0.  1.
        -11    1    1    2    0    0  0.12144100478E+02 -0.31286033430E+02  0.63484853408E+02  0.71809621058E+02  0.00000000000E+00 0.  1.
         11    1    1    2    0    0  0.51294617931E+02  0.44406615091E+02  0.38811151515E+03  0.39399699679E+03  0.00000000000E+00 0. -1.
</event>
<event>
 7    1  0.5109948E-006  0.1068958E+03  0.7561462E-02  0.1266429E+00
          1   -1    0    0  501    0  0.00000000000E+00  0.00000000000E+00  0.62757648016E+03  0.62757648016E+03  0.00000000000E+00 0. -1.
         -1   -1    0    0    0  501 -0.00000000000E+00 -0.00000000000E+00 -0.31157095592E+02  0.31157095592E+02  0.00000000000E+00 0.  1.
         23    2    1    2    0    0  0.11437996301E+02  0.37827741764E+02  0.15220394349E+03  0.20093188297E+03  0.12508323378E+03 0.  0.
          5    1    3    3  502    0 -0.44863100133E+02  0.34783782083E+02  0.12671702342E+03  0.13891467048E+03  0.41800000000E+01 0. -1.
         -5    1    3    3    0  502  0.56301096434E+02  0.30439596805E+01  0.25486920070E+02  0.62017212488E+02  0.41800000000E+01 0. -1.
        -11    1    1    2    0    0  0.14507437081E+02  0.26919389170E+02  0.60403586236E+02  0.67703120121E+02  0.00000000000E+00 0.  1.
         11    1    1    2    0    0 -0.25945433382E+02 -0.64747130934E+02  0.38381185484E+03  0.39009857267E+03  0.00000000000E+00 0. -1.
</event>
<event>
 7    1  0.5109948E-006  0.7845086E+02  0.7561462E-02  0.1333506E+00
          4   -1    0    0  501    0  0.00000000000E+00  0.00000000000E+00  0.25052508676E+03  0.25052508676E+03  0.00000000000E+00 0. -1.
         -4   -1    0    0    0  501 -0.00000000000E+00 -0.00000000000E+00 -0.63619747157E+02  0.63619747157E+02  0.00000000000E+00 0.  1.
         23    2    1    2    0    0 -0.59104236999E+01 -0.35897623246E+02  0.48889036450E+02  0.13914426624E+03  0.12508963379E+03 0.  0.
          5    1    3    3  502    0  0.13949224033E+02 -0.98576705751E+01  0.86978481570E+02  0.88738284728E+02  0.41800000000E+01 0. -1.
         -5    1    3    3    0  502 -0.19859647733E+02 -0.26039952671E+02 -0.38089445119E+02  0.50405981517E+02  0.41800000000E+01 0. -1.
        -11    1    1    2    0    0 -0.24900718231E+02  0.61431341576E+02  0.72540885389E+02  0.98265128857E+02  0.00000000000E+00 0.  1.
         11    1    1    2    0    0  0.30811141931E+02 -0.25533718330E+02  0.65475417765E+02  0.76735438816E+02  0.00000000000E+00 0. -1.
</event>
<event>
 7    1  0.5109948E-006  0.1065707E+03  0.7561462E-02  0.1267055E+00
         -1   -1    0    0    0  501 -0.00000000000E+00  0.00000000000E+00  0.10301435820E+03  0.10301435820E+03  0.00000000000E+00 0.  1.
          1   -1    0    0  501    0  0.00000000000E+00 -0.00000000000E+00 -0.24424857855E+03  0.24424857855E+03  0.00000000000E+00 0. -1.
         23    2    1    2    0    0  0.32673492475E+02  0.85540346931E+02  0.42246234192E+00  0.15502414963E+03  0.12509036906E+03 0.  0.
          5    1    3    3  502    0  0.12531672524E+01  0.20671581592E+02 -0.58267940664E+02  0.61979916286E+02  0.41800000000E+01 0. -1.
         -5    1    3    3    0  502  0.31420325223E+02  0.64868765340E+02  0.58690403005E+02  0.93044233345E+02  0.41800000000E+01 0. -1.
        -11    1    1    2    0    0 -0.58275574606E+02 -0.58260688250E+02 -0.12836042403E+03  0.15253441857E+03  0.00000000000E+00 0.  1.
         11    1    1    2    0    0  0.25602082131E+02 -0.27279658681E+02 -0.13296258655E+02  0.39704368543E+02  0.00000000000E+00 0. -1.
</event>
<event>
 7    1  0.5109948E-006  0.8834852E+02  0.7561462E-02  0.1306901E+00
          2   -1    0    0  501    0  0.00000000000E+00  0.00000000000E+00  0.45008420286E+02  0.45008420286E+02  0.00000000000E+00 0.  1.
         -2   -1    0    0    0  501 -0.00000000000E+00 -0.00000000000E+00 -0.27621341642E+03  0.27621341642E+03  0.00000000000E+00 0. -1.
         23    2    1    2    0    0  0.33843978894E+01  0.30094439743E+02 -0.15557210179E+03  0.20190807919E+03  0.12508822540E+03 0.  0.
          5    1    3    3  502    0  0.42827136013E+02 -0.15655523683E+02 -0.12690835733E+03  0.13491650218E+03  0.41800000000E+01 0.  1.
         -5    1    3    3    0  502 -0.39442738124E+02  0.45749963426E+02 -0.28663744468E+02  0.66991577016E+02  0.41800000000E+01 0.  1.
        -11    1    1    2    0    0  0.12124801845E+01  0.20007854817E+02  0.81068016717E+01  0.21621854591E+02  0.00000000000E+00 0.  1.
         11    1    1    2    0    0 -0.45968780739E+01 -0.50102294560E+02 -0.83739696008E+02  0.97691902918E+02  0.00000000000E+00 0. -1.
</event>
<event>
 7    1  0.5109948E-006  0.7644771E+02  0.7561462E-02  0.1339446E+00
          2   -1    0    0  501    0  0.00000000000E+00  0.00000000000E+00  0.39470335009E+02  0.39470335009E+02  0.00000000000E+00 0. -1.
         -2   -1    0    0    0  501 -0.00000000000E+00 -0.00000000000E+00 -0.17862844451E+03  0.17862844451E+03  0.00000000000E+00 0.  1.
         23    2    1    2    0    0 -0.17809255289E+02 -0.26321095138E+01 -0.13617266082E+03  0.18636979271E+03  0.12596272665E+03 0.  0.
          5    1    3    3  502    0 -0.24620914494E+02 -0.61008260993E+02 -0.53774631288E+02  0.85072796534E+02  0.41800000000E+01 0. -1.
         -5    1    3    3    0  502  0.68116592044E+01  0.58376151480E+02 -0.82398029533E+02  0.10129699617E+03  0.41800000000E+01 0.  1.
        -11    1    1    2    0    0  0.10959573329E+02 -0.92477656645E+01  0.57720980587E+01  0.15458024885E+02  0.00000000000E+00 0. -1.
         11    1    1    2    0    0  0.68496819604E+01  0.11879875178E+02 -0.87575467408E+01  0.16270961930E+02  0.00000000000E+00 0.  1.
</event>
<event>
 7    1  0.5109948E-006  0.1004259E+03  0.7561462E-02  0.1279403E+00
          1   -1    0    0  501    0  0.00000000000E+00  0.00000000000E+00  0.15800176651E+03  0.15800176651E+03  0.00000000000E+00 0. -1.
         -1   -1    0    0    0  501 -0.00000000000E+00 -0.00000000000E+00 -0.93886867541E+02  0.93886867541E+02  0.00000000000E+00 0.  1.
         23    2    1    2    0    0 -0.34433944191E+02  0.29784843677E+02  0.13565468576E+02  0.13380407811E+03  0.12508667377E+03 0.  0.
          5    1    3    3  502    0  0.13813217274E+02  0.42130066796E+02  0.53659640444E+02  0.69732179891E+02  0.41800000000E+01 0.  1.
         -5    1    3    3    0  502 -0.48247161465E+02 -0.12345223120E+02 -0.40094171868E+02  0.64071898217E+02  0.41800000000E+01 0.  1.
        -11    1    1    2    0    0 -0.33709157152E+02 -0.64990532439E+01  0.11748084195E+02  0.36284465701E+02  0.00000000000E+00 0.  1.
         11    1    1    2    0    0  0.68143101344E+02 -0.23285790433E+02  0.38801346197E+02  0.81800090242E+02  0.00000000000E+00 0. -1.
</event>
<event>
 6    1  0.5109948E-006  0.1779697E+03  0.7561462E-02  0.1169783E+00
         -1   -1    0    0    0  501 -0.00000000000E+00  0.00000000000E+00  0.12476328325E+03  0.12476328325E+03  0.00000000000E+00 0.  1.
          1   -1    0    0  501    0  0.00000000000E+00 -0.00000000000E+00 -0.29570325414E+03  0.29570325414E+03  0.00000000000E+00 0. -1.
          5    1    1    2  502    0  0.43098520900E+02  0.67377051872E+01 -0.46642947830E+01  0.44069345591E+02  0.41800000000E+01 0. -1.
         -5    1    1    2    0  502 -0.92327474607E+02  0.11948909319E+03 -0.15239719788E+03  0.21457955233E+03  0.41800000000E+01 0.  1.
        -11    1    1    2    0    0  0.36225658106E+02 -0.21385013022E+01 -0.61932937144E+01  0.36813426628E+02  0.00000000000E+00 0.  1.
         11    1    1    2    0    0  0.13003295600E+02 -0.12408829707E+03 -0.76851845091E+01  0.12500421284E+03  0.00000000000E+00 0. -1.
</event>
<event>
 7    1  0.5109948E-006  0.1191762E+03  0.7561462E-02  0.1244462E+00
         -2   -1    0    0    0  501 -0.00000000000E+00  0.00000000000E+00  0.62553518914E+02  0.62553518914E+02  0.00000000000E+00 0.  1.
          2   -1    0    0  501    0  0.00000000000E+00 -0.00000000000E+00 -0.41042216595E+03  0.41042216595E+03  0.00000000000E+00 0. -1.
         23    2    1    2    0    0  0.91146479961E+02 -0.22758124761E+02 -0.80561142417E+02  0.17596347006E+03  0.12508969612E+03 0.  0.
          5    1    3    3  502    0  0.10990764739E+03 -0.48652737379E-01 -0.24780130706E+02  0.11274404907E+03  0.41800000000E+01 0. -1.
         -5    1    3    3    0  502 -0.18761167430E+02 -0.22709472023E+02 -0.55781011712E+02  0.63219420991E+02  0.41800000000E+01 0. -1.
        -11    1    1    2    0    0 -0.37676628890E+02 -0.55973067377E+01 -0.21078888289E+03  0.21420273425E+03  0.00000000000E+00 0. -1.
         11    1    1    2    0    0 -0.53469851071E+02  0.28355431498E+02 -0.56518621728E+02  0.82809480563E+02  0.00000000000E+00 0.  1.
</event>
<event>
 7    1  0.5109948E-006  0.2110994E+03  0.7561462E-02  0.1140698E+00
         -2   -1    0    0    0  501 -0.00000000000E+00  0.00000000000E+00  0.13484788756E+03  0.13484788756E+03  0.00000000000E+00 0. -1.
          2   -1    0    0  501    0  0.00000000000E+00 -0.00000000000E+00 -0.42996437001E+03  0.42996437001E+03  0.00000000000E+00 0.  1.
         23    2    1    2    0    0 -0.11359914616E+03  0.16959167853E+03 -0.23056817841E+03  0.33237800950E+03  0.12508937954E+03 0.  0.
          5    1    3    3  502    0 -0.43942926262E+02  0.82642896770E+02 -0.19332806603E+03  0.21483491958E+03  0.41800000000E+01 0.  1.
         -5    1    3    3    0  502 -0.69656219897E+02  0.86948781757E+02 -0.37240112380E+02  0.11754308993E+03  0.41800000000E+01 0.  1.
        -11    1    1    2    0    0  0.12425428868E+03 -0.16073922654E+03 -0.73373707930E+02  0.21600909291E+03  0.00000000000E+00 0.  1.
         11    1    1    2    0    0 -0.10655142520E+02 -0.88524519825E+01  0.88254038874E+01  0.16425155159E+02  0.00000000000E+00 0. -1.
</event>
<event>
 7    1  0.5109948E-006  0.9173457E+02  0.7561462E-02  0.1298705E+00
          3   -1    0    0  501    0  0.00000000000E+00  0.00000000000E+00  0.10757005570E+03  0.10757005570E+03  0.00000000000E+00 0. -1.
         -3   -1    0    0    0  501 -0.00000000000E+00 -0.00000000000E+00 -0.14690818418E+03  0.14690818418E+03  0.00000000000E+00 0.  1.
         23    2    1    2    0    0  0.75244809576E+01 -0.11970759827E+02 -0.92670462487E+02  0.15631750825E+03  0.12508969527E+03 0.  0.
          5    1    3    3  502    0 -0.31090059777E+02  0.42124356668E+02 -0.66561411252E+02  0.84787658946E+02  0.41800000000E+01 0.  1.
         -5    1    3    3    0  502  0.38614540735E+02 -0.54095116495E+02 -0.26109051235E+02  0.71529849302E+02  0.41800000000E+01 0.  1.
        -11    1    1    2    0    0  0.17578499456E+02 -0.18066421897E+02 -0.70725960196E+01  0.26180543496E+02  0.00000000000E+00 0.  1.
         11    1    1    2    0    0 -0.25102980414E+02  0.30037181724E+02  0.60404930033E+02  0.71980188134E+02  0.00000000000E+00 0. -1.
</event>
<event>
 7    1  0.5109948E-006  0.5100798E+02  0.7561462E-02  0.1439979E+00
          1   -1    0    0  501    0  0.00000000000E+00  0.00000000000E+00  0.16549132186E+03  0.16549132186E+03  0.00000000000E+00 0. -1.
         -1   -1    0    0    0  501 -0.00000000000E+00 -0.00000000000E+00 -0.73175248012E+02  0.73175248012E+02  0.00000000000E+00 0.  1.
         23    2    1    2    0    0 -0.11365220449E+02  0.23090893560E+02  0.44837437087E+02  0.13535911581E+03  0.12509730959E+03 0.  0.
          5    1    3    3  502    0 -0.55232406599E+01  0.16134124592E+01 -0.43544656118E+02  0.44121636003E+02  0.41800000000E+01 0. -1.
         -5    1    3    3    0  502 -0.58419797888E+01  0.21477481100E+02  0.88382093205E+02  0.91237479808E+02  0.41800000000E+01 0. -1.
        -11    1    1    2    0    0  0.30789365241E+02 -0.37170817181E+02  0.59384107836E+02  0.76525335186E+02  0.00000000000E+00 0. -1.
         11    1    1    2    0    0 -0.19424144792E+02  0.14079923622E+02 -0.11905471073E+02  0.26782118877E+02  0.00000000000E+00 0.  1.
</event>
<event>
 7    1  0.5109948E-006  0.1042159E+03  0.7561462E-02  0.1271672E+00
         -2   -1    0    0    0  501 -0.00000000000E+00  0.00000000000E+00  0.11972831018E+02  0.11972831018E+02  0.00000000000E+00 0.  1.
          2   -1    0    0  501    0  0.00000000000E+00 -0.00000000000E+00 -0.12987856851E+04  0.12987856851E+04  0.00000000000E+00 0. -1.
         23    2    1    2    0    0  0.54714617163E+02 -0.12207878854E+02 -0.72031536737E+03  0.73324272076E+03  0.12509171608E+03 0.  0.
          5    1    3    3  502    0 -0.43936627025E+01  0.26782363250E+02 -0.36084541064E+02  0.45344963965E+02  0.41800000000E+01 0.  1.
         -5    1    3    3    0  502  0.59108279865E+02 -0.38990242104E+02 -0.68423082631E+03  0.68789775679E+03  0.41800000000E+01 0.  1.
        -11    1    1    2    0    0  0.26065264929E+02  0.13275631430E+02 -0.10489513638E+03  0.10889733726E+03  0.00000000000E+00 0.  1.
         11    1    1    2    0    0 -0.80779882092E+02 -0.10677525763E+01 -0.46160235037E+03  0.46861845814E+03  0.00000000000E+00 0. -1.
</event>
<event>
 7    1  0.5109948E-006  0.2119134E+03  0.7561462E-02  0.1140060E+00
         -1   -1    0    0    0  501 -0.00000000000E+00  0.00000000000E+00  0.69822084961E+02  0.69822084961E+02  0.00000000000E+00 0.  1.
          1   -1    0    0  501    0  0.00000000000E+00 -0.00000000000E+00 -0.71868274932E+03  0.71868274932E+03  0.00000000000E+00 0. -1.
         23    2    1    2    0    0 -0.67232625736E+02 -0.18059617511E+03 -0.27628062499E+03  0.35932359645E+03  0.12508900347E+03 0.  0.
          5    1    3    3  502    0 -0.16315051955E+02 -0.15378240353E+03 -0.12998543859E+03  0.20206161239E+03  0.41800000000E+01 0.  1.
         -5    1    3    3    0  502 -0.50917573781E+02 -0.26813771586E+02 -0.14629518640E+03  0.15726198406E+03  0.41800000000E+01 0.  1.
        -11    1    1    2    0    0  0.40109001613E+02  0.17987628952E+03 -0.30496922065E+03  0.35632911344E+03  0.00000000000E+00 0.  1.
         11    1    1    2    0    0  0.27123624123E+02  0.71988558684E+00 -0.67610818718E+02  0.72852124393E+02  0.00000000000E+00 0. -1.
</event>
<event>
 7    1  0.5109948E-006  0.1270383E+03  0.7561462E-02  0.1231918E+00
         -2   -1    0    0    0  501 -0.00000000000E+00  0.00000000000E+00  0.30198381320E+02  0.30198381320E+02  0.00000000000E+00 0. -1.
          2   -1    0    0  501    0  0.00000000000E+00 -0.00000000000E+00 -0.60055909526E+03  0.60055909526E+03  0.00000000000E+00 0.  1.
         23    2    1    2    0    0  0.11407086813E+02 -0.66319133093E+02 -0.21662669374E+03  0.25904178202E+03  0.12508865395E+03 0.  0.
          5    1    3    3  502    0 -0.27561904819E+02  0.27549466149E+02 -0.75619922702E+02  0.85173216399E+02  0.41800000000E+01 0.  1.
         -5    1    3    3    0  502  0.38968991632E+02 -0.93868599242E+02 -0.14100677104E+03  0.17386856562E+03  0.41800000000E+01 0.  1.
        -11    1    1    2    0    0 -0.48682256352E+02  0.17485454626E+02 -0.18705478090E+03  0.19407522836E+03  0.00000000000E+00 0.  1.
         11    1    1    2    0    0  0.37275169539E+02  0.48833678467E+02 -0.16667923930E+03  0.17764046620E+03  0.00000000000E+00 0. -1.
</event>
<event>
 7    1  0.5109948E-006  0.1008699E+03  0.7561462E-02  0.1278477E+00
         -2   -1    0    0    0  501 -0.00000000000E+00  0.00000000000E+00  0.76531029968E+02  0.76531029968E+02  0.00000000000E+00 0. -1.
          2   -1    0    0  501    0  0.00000000000E+00 -0.00000000000E+00 -0.17097915114E+03  0.17097915114E+03  0.00000000000E+00 0.  1.
         23    2    1    2    0    0 -0.96432456381E+01 -0.22708778644E+02 -0.25275925985E+02  0.12998014776E+03  0.12508911050E+03 0.  0.
          5    1    3    3  502    0  0.52138067362E+02 -0.16581974942E+02  0.13701269998E+02  0.56555611223E+02  0.41800000000E+01 0.  1.
         -5    1    3    3    0  502 -0.61781313000E+02 -0.61268037014E+01 -0.38977195983E+02  0.73424536542E+02  0.41800000000E+01 0.  1.
        -11    1    1    2    0    0  0.39116751031E+02  0.35209477876E+02 -0.15205581939E+02  0.54781723829E+02  0.00000000000E+00 0. -1.
         11    1    1    2    0    0 -0.29473505393E+02 -0.12500699232E+02 -0.53966613244E+02  0.62748309511E+02  0.00000000000E+00 0.  1.
</event>
<event>
 7    1  0.5109948E-006  0.1602615E+03  0.7561462E-02  0.1188402E+00
         -2   -1    0    0    0  501 -0.00000000000E+00  0.00000000000E+00  0.62956935413E+02  0.62956935413E+02  0.00000000000E+00 0.  1.
          2   -1    0    0  501    0  0.00000000000E+00 -0.00000000000E+00 -0.82789332877E+03  0.82789332877E+03  0.00000000000E+00 0. -1.
         23    2    1    2    0    0  0.14654183697E+03  0.14660833261E+01 -0.12906846789E+03  0.23191087329E+03  0.12508926557E+03 0.  0.
          5    1    3    3  502    0  0.16289874108E+02  0.21282413140E+02 -0.90632315987E+02  0.94604387894E+02  0.41800000000E+01 0.  1.
         -5    1    3    3    0  502  0.13025196287E+03 -0.19816329814E+02 -0.38436151902E+02  0.13730648539E+03  0.41800000000E+01 0.  1.
        -11    1    1    2    0    0 -0.18465693302E+02 -0.25283703786E+02 -0.51858670208E+02  0.60576969072E+02  0.00000000000E+00 0.  1.
         11    1    1    2    0    0 -0.12807614367E+03  0.23817620460E+02 -0.58400925526E+03  0.59836242182E+03  0.00000000000E+00 0. -1.
</event>
<event>
 7    1  0.5109948E-006  0.1106943E+03  0.7561462E-02  0.1259290E+00
         -1   -1    0    0    0  501 -0.00000000000E+00  0.00000000000E+00  0.33165740272E+02  0.33165740272E+02  0.00000000000E+00 0.  1.
          1   -1    0    0  501    0  0.00000000000E+00 -0.00000000000E+00 -0.42627021856E+03  0.42627021856E+03  0.00000000000E+00 0. -1.
         23    2    1    2    0    0  0.25139709912E+02  0.29534580701E+02 -0.16434719908E+03  0.21014778859E+03  0.12509114570E+03 0.  0.
          5    1    3    3  502    0 -0.42334111519E+02 -0.18351944998E+02 -0.42943931699E+02  0.63171390305E+02  0.41800000000E+01 0. -1.
         -5    1    3    3    0  502  0.67473821431E+02  0.47886525699E+02 -0.12140326738E+03  0.14697639829E+03  0.41800000000E+01 0. -1.
        -11    1    1    2    0    0 -0.52853603538E+02 -0.16202236746E+01 -0.83800006348E+02  0.99088695600E+02  0.00000000000E+00 0.  1.
         11    1    1    2    0    0  0.27713893627E+02 -0.27914357026E+02 -0.14495727286E+03  0.15019947464E+03  0.00000000000E+00 0. -1.
</event>
<event>
 7    1  0.5109948E-006  0.1700319E+03  0.7561462E-02  0.1177815E+00
         -2   -1    0    0    0  501 -0.00000000000E+00  0.00000000000E+00  0.60291117722E+02  0.60291117722E+02  0.00000000000E+00 0.  1.
          2   -1    0    0  501    0  0.00000000000E+00 -0.00000000000E+00 -0.55089959004E+03  0.55089959004E+03  0.00000000000E+00 0. -1.
         23    2    1    2    0    0 -0.50736797822E+02  0.13434502045E+03 -0.21559361770E+03  0.28766478541E+03  0.12509042170E+03 0.  0.
          5    1    3    3  502    0  0.45930644879E+01 -0.16539742821E+02  0.12681950343E+01  0.17712708789E+02  0.41800000000E+01 0.  1.
         -5    1    3    3    0  502 -0.55329862310E+02  0.15088476327E+03 -0.21686181273E+03  0.26995207662E+03  0.41800000000E+01 0.  1.
        -11    1    1    2    0    0  0.68498708069E+02 -0.84859924754E+02 -0.13241855859E+03  0.17154577959E+03  0.00000000000E+00 0.  1.
         11    1    1    2    0    0 -0.17761910246E+02 -0.49485095699E+02 -0.14259629603E+03  0.15198014276E+03  0.00000000000E+00 0. -1.
</event>
<event>
 7    1  0.5109948E-006  0.1037740E+03  0.7561462E-02  0.1272554E+00
         -1   -1    0    0    0  501 -0.00000000000E+00  0.00000000000E+00  0.10818493410E+03  0.10818493410E+03  0.00000000000E+00 0.  1.
          1   -1    0    0  501    0  0.00000000000E+00 -0.00000000000E+00 -0.15243079954E+03  0.15243079954E+03  0.00000000000E+00 0. -1.
         23    2    1    2    0    0  0.65263155973E+02  0.19574288974E+02 -0.29559513696E+02  0.14547594275E+03  0.12508817991E+03 0.  0.
          5    1    3    3  502    0 -0.29391720666E+02 -0.18603988021E+02 -0.25340784624E+02  0.43238979860E+02  0.41800000000E+01 0.  1.
         -5    1    3    3    0  502  0.94654876639E+02  0.38178276995E+02 -0.42187290720E+01  0.10223696289E+03  0.41800000000E+01 0.  1.
        -11    1    1    2    0    0 -0.49334383093E+02 -0.65097745017E+01  0.35342281737E+02  0.61035525701E+02  0.00000000000E+00 0.  1.
         11    1    1    2    0    0 -0.15928772880E+02 -0.13064514472E+02 -0.50028633481E+02  0.54104265191E+02  0.00000000000E+00 0. -1.
</event>
<event>
 7    1  0.5109948E-006  0.1013145E+03  0.7561462E-02  0.1277556E+00
          1   -1    0    0  501    0  0.00000000000E+00  0.00000000000E+00  0.25819835069E+03  0.25819835069E+03  0.00000000000E+00 0. -1.
         -1   -1    0    0    0  501 -0.00000000000E+00 -0.00000000000E+00 -0.50598299146E+02  0.50598299146E+02  0.00000000000E+00 0.  1.
         23    2    1    2    0    0  0.16520958433E+01  0.34601111319E+01  0.64589460549E+02  0.14083343856E+03  0.12509019632E+03 0.  0.
          5    1    3    3  502    0  0.51014721070E+02 -0.32294934186E+02  0.15540051405E+02  0.62485439405E+02  0.41800000000E+01 0. -1.
         -5    1    3    3    0  502 -0.49362625227E+02  0.35755045318E+02  0.49049409144E+02  0.78347999160E+02  0.41800000000E+01 0. -1.
        -11    1    1    2    0    0 -0.76726958474E+00  0.38767553244E+02  0.35966599058E+02  0.52887693606E+02  0.00000000000E+00 0.  1.
         11    1    1    2    0    0 -0.88482625857E+00 -0.42227664376E+02  0.10704399194E+03  0.11507551767E+03  0.00000000000E+00 0. -1.
</event>
<event>
 7    1  0.5109948E-006  0.1050930E+03  0.7561462E-02  0.1269936E+00
         -1   -1    0    0    0  501 -0.00000000000E+00  0.00000000000E+00  0.46834213699E+02  0.46834213699E+02  0.00000000000E+00 0.  1.
          1   -1    0    0  501    0  0.00000000000E+00 -0.00000000000E+00 -0.30886367623E+03  0.30886367623E+03  0.00000000000E+00 0. -1.
         23    2    1    2    0    0  0.39288798915E+02  0.87530315364E+01 -0.10093378627E+03  0.16569401612E+03  0.12508657995E+03 0.  0.
          5    1    3    3  502    0  0.78021333637E+02  0.30697679842E+02 -0.81292481631E+02  0.11685724633E+03  0.41800000000E+01 0. -1.
         -5    1    3    3    0  502 -0.38732534721E+02 -0.21944648306E+02 -0.19641304638E+02  0.48836769786E+02  0.41800000000E+01 0. -1.
        -11    1    1    2    0    0 -0.86543255515E+01 -0.38119310932E+02 -0.22599637633E+02  0.45152218526E+02  0.00000000000E+00 0.  1.
         11    1    1    2    0    0 -0.30634473364E+02  0.29366279395E+02 -0.13849603863E+03  0.14485165529E+03  0.00000000000E+00 0. -1.
</event>
<event>
 7    1  0.5109948E-006  0.2938745E+03  0.7561462E-02  0.1088343E+00
          4   -1    0    0  501    0  0.00000000000E+00  0.00000000000E+00  0.93913501282E+03  0.93913501282E+03  0.00000000000E+00 0.  1.
         -4   -1    0    0    0  501 -0.00000000000E+00 -0.00000000000E+00 -0.96911864537E+02  0.96911864537E+02  0.00000000000E+00 0. -1.
         23    2    1    2    0    0  0.16862634221E+03  0.22300813671E+03  0.40034170226E+03  0.50407155209E+03  0.12508868346E+03 0.  0.
          5    1    3    3  502    0  0.35643228153E+02  0.11779693527E+03  0.24435563802E+03  0.27363060484E+03  0.41800000000E+01 0.  1.
         -5    1    3    3    0  502  0.13298311405E+03  0.10521120144E+03  0.15598606424E+03  0.23044094725E+03  0.41800000000E+01 0.  1.
        -11    1    1    2    0    0 -0.38884579932E+02 -0.12908702176E+03  0.17806561820E+03  0.22334465324E+03  0.00000000000E+00 0.  1.
         11    1    1    2    0    0 -0.12974176227E+03 -0.93921114954E+02  0.26381582781E+03  0.30863067203E+03  0.00000000000E+00 0. -1.
</event>
<event>
 7    1  0.5109948E-006  0.1032015E+03  0.7561462E-02  0.1273704E+00
         -1   -1    0    0    0  501 -0.00000000000E+00  0.00000000000E+00  0.18942513633E+03  0.18942513633E+03  0.00000000000E+00 0.  1.
          1   -1    0    0  501    0  0.00000000000E+00 -0.00000000000E+00 -0.80884423051E+02  0.80884423051E+02  0.00000000000E+00 0. -1.
         23    2    1    2    0    0 -0.39138235676E+02 -0.45839778444E+02  0.54038742695E+02  0.14899926910E+03  0.12509000639E+03 0.  0.
          5    1    3    3  502    0 -0.42355182012E+02  0.23066455108E+02  0.62849646601E+02  0.79332044423E+02  0.41800000000E+01 0.  1.
         -5    1    3    3    0  502  0.32169463357E+01 -0.68906233552E+02 -0.88109039054E+01  0.69667224673E+02  0.41800000000E+01 0.  1.
        -11    1    1    2    0    0 -0.13254049414E+02  0.32089438876E+02  0.57381238386E+02  0.67067193410E+02  0.00000000000E+00 0.  1.
         11    1    1    2    0    0  0.52392285090E+02  0.13750339568E+02 -0.28792678050E+01  0.54243096872E+02  0.00000000000E+00 0. -1.
</event>
<event>
 7    1  0.5109948E-006  0.1344458E+03  0.7561462E-02  0.1221004E+00
          1   -1    0    0  501    0  0.00000000000E+00  0.00000000000E+00  0.39096605084E+03  0.39096605084E+03  0.00000000000E+00 0. -1.
         -1   -1    0    0    0  501 -0.00000000000E+00 -0.00000000000E+00 -0.74644023260E+02  0.74644023260E+02  0.00000000000E+00 0.  1.
         23    2    1    2    0    0  0.57038147168E+02  0.11393567913E+03  0.12383826182E+03  0.21729558469E+03  0.12508703699E+03 0.  0.
          5    1    3    3  502    0  0.55300183889E+02  0.77536888496E+02  0.14605531409E+03  0.17441246111E+03  0.41800000000E+01 0.  1.
         -5    1    3    3    0  502  0.17379632784E+01  0.36398790637E+02 -0.22217052273E+02  0.42883123579E+02  0.41800000000E+01 0.  1.
        -11    1    1    2    0    0 -0.49658536881E+02 -0.43364086560E+02  0.15417032854E+03  0.16767499662E+03  0.00000000000E+00 0. -1.
         11    1    1    2    0    0 -0.73796102867E+01 -0.70571592573E+02  0.38313437217E+02  0.80639492791E+02  0.00000000000E+00 0.  1.
</event>
<event>
 7    1  0.5109948E-006  0.9244563E+02  0.7561462E-02  0.1297035E+00
         -2   -1    0    0    0  501 -0.00000000000E+00  0.00000000000E+00  0.74418721663E+02  0.74418721663E+02  0.00000000000E+00 0.  1.
          2   -1    0    0  501    0  0.00000000000E+00 -0.00000000000E+00 -0.17107364455E+03  0.17107364455E+03  0.00000000000E+00 0. -1.
         23    2    1    2    0    0  0.18221013473E+02 -0.24181996175E+02 -0.44889728234E+02  0.13632336204E+03  0.12510874097E+03 0.  0.
          5    1    3    3  502    0 -0.34528789329E+02  0.32157015098E+02 -0.87359238994E+00  0.47376644839E+02  0.41800000000E+01 0.  1.
         -5    1    3    3    0  502  0.52749802801E+02 -0.56339011273E+02 -0.44016135844E+02  0.88946717204E+02  0.41800000000E+01 0.  1.
        -11    1    1    2    0    0  0.17960017930E+02  0.27257231250E+01 -0.63051771584E+02  0.65616443903E+02  0.00000000000E+00 0. -1.
         11    1    1    2    0    0 -0.36181031402E+02  0.21456273050E+02  0.11286576934E+02  0.43552560263E+02  0.00000000000E+00 0.  1.
</event>
<event>
 7    1  0.5109948E-006  0.7341403E+02  0.7561462E-02  0.1348854E+00
          2   -1    0    0  501    0  0.00000000000E+00  0.00000000000E+00  0.25381901113E+03  0.25381901113E+03  0.00000000000E+00 0. -1.
         -2   -1    0    0    0  501 -0.00000000000E+00 -0.00000000000E+00 -0.53191449074E+02  0.53191449074E+02  0.00000000000E+00 0.  1.
         23    2    1    2    0    0 -0.14213783047E+02 -0.13618966386E+02  0.67582664113E+02  0.14354671666E+03  0.12510289965E+03 0.  0.
          5    1    3    3  502    0 -0.17657874933E+02 -0.48012585588E+02  0.88949267761E+02  0.10269592766E+03  0.41800000000E+01 0. -1.
         -5    1    3    3    0  502  0.34440918859E+01  0.34393619202E+02 -0.21366603648E+02  0.40850789003E+02  0.41800000000E+01 0. -1.
        -11    1    1    2    0    0  0.34673235397E+02  0.18986928547E+02  0.13066306554E+02  0.41634902131E+02  0.00000000000E+00 0.  1.
         11    1    1    2    0    0 -0.20459452350E+02 -0.53679621607E+01  0.11997859139E+03  0.12182884142E+03  0.00000000000E+00 0. -1.
</event>
<event>
 7    1  0.5109948E-006  0.1330416E+03  0.7561462E-02  0.1223011E+00
          2   -1    0    0  501    0  0.00000000000E+00  0.00000000000E+00  0.49388815540E+03  0.49388815540E+03  0.00000000000E+00 0. -1.
         -2   -1    0    0    0  501 -0.00000000000E+00 -0.00000000000E+00 -0.44926767610E+02  0.44926767610E+02  0.00000000000E+00 0.  1.
         23    2    1    2    0    0 -0.10305163210E+03  0.37017511765E+01  0.18567639170E+03  0.24160814338E+03  0.11517565140E+03 0.  0.
          5    1    3    3  502    0 -0.33622041154E+02 -0.49631668763E+02  0.11201438653E+03  0.12711585025E+03  0.41800000000E+01 0. -1.
         -5    1    3    3    0  502 -0.69429590945E+02  0.53333419940E+02  0.73662005169E+02  0.11449229313E+03  0.41800000000E+01 0.  1.
        -11    1    1    2    0    0  0.24835465656E+02  0.24795749804E+02  0.20719997694E+02  0.40754728157E+02  0.00000000000E+00 0.  1.
         11    1    1    2    0    0  0.78216166443E+02 -0.28497500981E+02  0.24256499840E+03  0.25645205147E+03  0.00000000000E+00 0. -1.
</event>
<event>
 7    1  0.5109948E-006  0.9376979E+02  0.7561462E-02  0.1293971E+00
          1   -1    0    0  501    0  0.00000000000E+00  0.00000000000E+00  0.30392494570E+02  0.30392494570E+02  0.00000000000E+00 0. -1.
         -1   -1    0    0    0  501 -0.00000000000E+00 -0.00000000000E+00 -0.55223382167E+03  0.55223382167E+03  0.00000000000E+00 0.  1.
         23    2    1    2    0    0  0.42507671782E+02  0.21091365053E+02 -0.40289948258E+03  0.42453140214E+03  0.12508865057E+03 0.  0.
          5    1    3    3  502    0  0.58629954955E+02  0.29620648268E+02 -0.40025775671E+03  0.40563357680E+03  0.41800000000E+01 0.  1.
         -5    1    3    3    0  502 -0.16122283172E+02 -0.85292832153E+01 -0.26417258652E+01  0.18897825335E+02  0.41800000000E+01 0.  1.
        -11    1    1    2    0    0 -0.70257381717E+02 -0.25830729914E+02 -0.96278631346E+02  0.12195450442E+03  0.00000000000E+00 0.  1.
         11    1    1    2    0    0  0.27749709934E+02  0.47393648611E+01 -0.22663213179E+02  0.36140409687E+02  0.00000000000E+00 0. -1.
</event>
<event>
 7    1  0.5109948E-006  0.1327141E+03  0.7561462E-02  0.1223483E+00
          2   -1    0    0  501    0  0.00000000000E+00  0.00000000000E+00  0.10003577641E+03  0.10003577641E+03  0.00000000000E+00 0. -1.
         -2   -1    0    0    0  501 -0.00000000000E+00 -0.00000000000E+00 -0.27967376979E+03  0.27967376979E+03  0.00000000000E+00 0.  1.
         23    2    1    2    0    0 -0.80918908818E+02  0.63858057696E+02 -0.17933820984E+03  0.24172862512E+03  0.12507922833E+03 0.  0.
          5    1    3    3  502    0 -0.25981392545E+01  0.69835037028E+02 -0.37202974624E+02  0.79279356993E+02  0.41800000000E+01 0.  1.
         -5    1    3    3    0  502 -0.78320769563E+02 -0.59769793315E+01 -0.14213523521E+03  0.16244926813E+03  0.41800000000E+01 0.  1.
        -11    1    1    2    0    0  0.67680389876E+02 -0.19448264047E+02  0.36025700411E+02  0.79099438926E+02  0.00000000000E+00 0. -1.
         11    1    1    2    0    0  0.13238518942E+02 -0.44409793649E+02 -0.36325483962E+02  0.58881482155E+02  0.00000000000E+00 0.  1.
</event>
<event>
 7    1  0.5109948E-006  0.8756117E+02  0.7561462E-02  0.1308867E+00
         -1   -1    0    0    0  501 -0.00000000000E+00  0.00000000000E+00  0.26462423119E+03  0.26462423119E+03  0.00000000000E+00 0.  1.
          1   -1    0    0  501    0  0.00000000000E+00 -0.00000000000E+00 -0.52122250708E+02  0.52122250708E+02  0.00000000000E+00 0. -1.
         23    2    1    2    0    0 -0.34759541419E+01 -0.29654245299E+02  0.16544323328E+03  0.20881055259E+03  0.12385042154E+03 0.  0.
          5    1    3    3  502    0  0.41080320979E+02 -0.24476757420E+01  0.70220417480E+01  0.41956708148E+02  0.41800000000E+01 0. -1.
         -5    1    3    3    0  502 -0.44556275121E+02 -0.27206569557E+02  0.15842119153E+03  0.16685384444E+03  0.41800000000E+01 0.  1.
        -11    1    1    2    0    0 -0.27612222450E+02  0.40013250760E+02 -0.23226221330E+01  0.48671240364E+02  0.00000000000E+00 0.  1.
         11    1    1    2    0    0  0.31088176592E+02 -0.10359005460E+02  0.49381369336E+02  0.59264688942E+02  0.00000000000E+00 0. -1.
</event>
<event>
 7    1  0.5109948E-006  0.9417546E+02  0.7561462E-02  0.1293044E+00
          2   -1    0    0  501    0  0.00000000000E+00  0.00000000000E+00  0.14879026930E+03  0.14879026930E+03  0.00000000000E+00 0. -1.
         -2   -1    0    0    0  501 -0.00000000000E+00 -0.00000000000E+00 -0.84415942670E+02  0.84415942670E+02  0.00000000000E+00 0.  1.
         23    2    1    2    0    0 -0.26191988706E+02 -0.26772221915E+02  0.18440224732E+02  0.13187024630E+03  0.12508776052E+03 0.  0.
          5    1    3    3  502    0  0.79779929651E+01  0.43449366597E+02 -0.14965313466E+02  0.46828718076E+02  0.41800000000E+01 0. -1.
         -5    1    3    3    0  502 -0.34169981671E+02 -0.70221588512E+02  0.33405538198E+02  0.85041528225E+02  0.41800000000E+01 0. -1.
        -11    1    1    2    0    0 -0.16917943915E+02  0.63602647346E+01  0.50290069096E+02  0.53439319264E+02  0.00000000000E+00 0. -1.
         11    1    1    2    0    0  0.43109932620E+02  0.20411957180E+02 -0.43559671988E+01  0.47896646404E+02  0.00000000000E+00 0.  1.
</event>
<event>
 7    1  0.5109948E-006  0.1512255E+03  0.7561462E-02  0.1198975E+00
         -2   -1    0    0    0  501 -0.00000000000E+00  0.00000000000E+00  0.29053145131E+02  0.29053145131E+02  0.00000000000E+00 0.  1.
          2   -1    0    0  501    0  0.00000000000E+00 -0.00000000000E+00 -0.79354596521E+03  0.79354596521E+03  0.00000000000E+00 0. -1.
         23    2    1    2    0    0  0.69135578136E+02 -0.80472293664E+02 -0.39988577948E+03  0.43221745353E+03  0.12509105601E+03 0.  0.
          5    1    3    3  502    0  0.67022786490E+02 -0.11276064088E+03 -0.32752052860E+03  0.35283733518E+03  0.41800000000E+01 0. -1.
         -5    1    3    3    0  502  0.21127916460E+01  0.32288347216E+02 -0.72365250874E+02  0.79380118346E+02  0.41800000000E+01 0. -1.
        -11    1    1    2    0    0  0.13334184117E+02  0.48221308180E+02 -0.15374351266E+03  0.16167919691E+03  0.00000000000E+00 0. -1.
         11    1    1    2    0    0 -0.82469762253E+02  0.32250985485E+02 -0.21086352794E+03  0.22870245991E+03  0.00000000000E+00 0.  1.
</event>
<event>
 7    1  0.5109948E-006  0.1640831E+03  0.7561462E-02  0.1184163E+00
          2   -1    0    0  501    0  0.00000000000E+00  0.00000000000E+00  0.13230672898E+04  0.13230672898E+04  0.00000000000E+00 0. -1.
         -2   -1    0    0    0  501 -0.00000000000E+00 -0.00000000000E+00 -0.28345873779E+02  0.28345873779E+02  0.00000000000E+00 0.  1.
         23    2    1    2    0    0 -0.73684102456E+02 -0.13630271790E+03  0.53913049947E+03  0.57473208653E+03  0.12508995949E+03 0.  0.
          5    1    3    3  502    0 -0.17650862302E+02 -0.37062112242E+02  0.36014953425E+03  0.36250560344E+03  0.41800000000E+01 0.  1.
         -5    1    3    3    0  502 -0.56033240154E+02 -0.99240605659E+02  0.17898096521E+03  0.21222648308E+03  0.41800000000E+01 0.  1.
        -11    1    1    2    0    0  0.57889283373E+02  0.14406508320E+03  0.72454801907E+03  0.74099645698E+03  0.00000000000E+00 0.  1.
         11    1    1    2    0    0  0.15794819082E+02 -0.77623652959E+01  0.31042897448E+02  0.35684620031E+02  0.00000000000E+00 0. -1.
</event>
<event>
 7    1  0.5109948E-006  0.9655560E+02  0.7561462E-02  0.1287710E+00
         -2   -1    0    0    0  501 -0.00000000000E+00  0.00000000000E+00  0.50656071774E+02  0.50656071774E+02  0.00000000000E+00 0.  1.
          2   -1    0    0  501    0  0.00000000000E+00 -0.00000000000E+00 -0.32331762866E+03  0.32331762866E+03  0.00000000000E+00 0. -1.
         23    2    1    2    0    0 -0.68600721849E+01 -0.50399405841E+02 -0.11767590979E+03  0.17911076601E+03  0.12508351632E+03 0.  0.
          5    1    3    3  502    0 -0.30887749184E+02 -0.23546676817E+02 -0.13382039341E+03  0.13940541285E+03  0.41800000000E+01 0. -1.
         -5    1    3    3    0  502  0.24027676999E+02 -0.26852729023E+02  0.16144483619E+02  0.39705353157E+02  0.41800000000E+01 0. -1.
        -11    1    1    2    0    0 -0.44865807989E+02  0.48417049899E+02 -0.79458477100E+02  0.10329956936E+03  0.00000000000E+00 0. -1.
         11    1    1    2    0    0  0.51725880174E+02  0.19823559416E+01 -0.75527169995E+02  0.91563365066E+02  0.00000000000E+00 0.  1.
</event>
<event>
 7    1  0.5109948E-006  0.1316931E+03  0.7561462E-02  0.1224965E+00
         -2   -1    0    0    0  501 -0.00000000000E+00  0.00000000000E+00  0.46342522737E+02  0.46342522737E+02  0.00000000000E+00 0. -1.
          2   -1    0    0  501    0  0.00000000000E+00 -0.00000000000E+00 -0.49618817766E+03  0.49618817766E+03  0.00000000000E+00 0.  1.
         23    2    1    2    0    0 -0.74195625614E+02 -0.50130219692E+02 -0.14598245044E+03  0.21207244341E+03  0.12508323481E+03 0.  0.
          5    1    3    3  502    0  0.17866639991E+02  0.14185543591E+02 -0.76518510799E+02  0.79956246575E+02  0.41800000000E+01 0.  1.
         -5    1    3    3    0  502 -0.92062265605E+02 -0.64315763283E+02 -0.69463939637E+02  0.13211619683E+03  0.41800000000E+01 0.  1.
        -11    1    1    2    0    0 -0.94149953146E+01 -0.17765719753E+02 -0.29395350576E+02  0.35613895751E+02  0.00000000000E+00 0. -1.
         11    1    1    2    0    0  0.83610620928E+02  0.67895939445E+02 -0.27446785392E+03  0.29484436124E+03  0.00000000000E+00 0.  1.
</event>
<event>
 7    1  0.5109948E-006  0.8273500E+02  0.7561462E-02  0.1321464E+00
         -2   -1    0    0    0  501 -0.00000000000E+00  0.00000000000E+00  0.71888259082E+02  0.71888259082E+02  0.00000000000E+00 0.  1.
          2   -1    0    0  501    0  0.00000000000E+00 -0.00000000000E+00 -0.18128178071E+03  0.18128178071E+03  0.00000000000E+00 0. -1.
         23    2    1    2    0    0  0.28546836385E+02  0.11707166092E+02 -0.44389781862E+02  0.13627044570E+03  0.12508877661E+03 0.  0.
          5    1    3    3  502    0  0.33932827076E+02  0.34044676264E+02 -0.80154346751E+02  0.93555696985E+02  0.41800000000E+01 0.  1.
         -5    1    3    3    0  502 -0.53859906915E+01 -0.22337510172E+02  0.35764564889E+02  0.42714748719E+02  0.41800000000E+01 0.  1.
        -11    1    1    2    0    0 -0.59001864428E+02  0.48513040643E+01 -0.55031426976E+02  0.80828294007E+02  0.00000000000E+00 0. -1.
         11    1    1    2    0    0  0.30455028043E+02 -0.16558470156E+02 -0.99723127888E+01  0.36071300079E+02  0.00000000000E+00 0.  1.
</event>
<event>
 7    1  0.5109948E-006  0.9253118E+02  0.7561462E-02  0.1296835E+00
         -1   -1    0    0    0  501 -0.00000000000E+00  0.00000000000E+00  0.11831337373E+03  0.11831337373E+03  0.00000000000E+00 0.  1.
          1   -1    0    0  501    0  0.00000000000E+00 -0.00000000000E+00 -0.12213464518E+03  0.12213464518E+03  0.00000000000E+00 0. -1.
         23    2    1    2    0    0  0.17277064582E+02  0.15612032915E+02  0.44045642827E+02  0.13464389452E+03  0.12508687839E+03 0.  0.
          5    1    3    3  502    0  0.20591342034E+00 -0.47784222298E+02 -0.10596277680E+02  0.49123597197E+02  0.41800000000E+01 0.  1.
         -5    1    3    3    0  502  0.17071151162E+02  0.63396255212E+02  0.54641920508E+02  0.85520297320E+02  0.41800000000E+01 0.  1.
        -11    1    1    2    0    0 -0.33904374818E+02  0.14527772229E+02  0.10227585753E+02  0.38277490880E+02  0.00000000000E+00 0.  1.
         11    1    1    2    0    0  0.16627310236E+02 -0.30139805144E+02 -0.58094500034E+02  0.67526633516E+02  0.00000000000E+00 0. -1.
</event>
<event>
 7    1  0.5109948E-006  0.9142055E+02  0.7561462E-02  0.1299448E+00
         -1   -1    0    0    0  501 -0.00000000000E+00  0.00000000000E+00  0.77714111122E+03  0.77714111122E+03  0.00000000000E+00 0.  1.
          1   -1    0    0  501    0  0.00000000000E+00 -0.00000000000E+00 -0.18639120153E+02  0.18639120153E+02  0.00000000000E+00 0. -1.
         23    2    1    2    0    0 -0.27878476857E+02  0.38191705168E+02  0.51035762188E+03  0.52758657766E+03  0.12508748496E+03 0.  0.
          5    1    3    3  502    0 -0.22158205596E+02 -0.42282591758E+02  0.26422890154E+03  0.26853898870E+03  0.41800000000E+01 0. -1.
         -5    1    3    3    0  502 -0.57202712603E+01  0.80474296925E+02  0.24612872034E+03  0.25904758896E+03  0.41800000000E+01 0. -1.
        -11    1    1    2    0    0 -0.49218904766E+01 -0.88519185477E+01 -0.49700724546E+01  0.11281980679E+02  0.00000000000E+00 0. -1.
         11    1    1    2    0    0  0.32800367333E+02 -0.29339786620E+02  0.25311444164E+03  0.25691167304E+03  0.00000000000E+00 0.  1.
</event>
<event>
 6    1  0.5109948E-006  0.2178866E+03  0.7561462E-02  0.1135469E+00
          1   -1    0    0  501    0  0.00000000000E+00  0.00000000000E+00  0.12103954077E+04  0.12103954077E+04  0.00000000000E+00 0. -1.
         -1   -1    0    0    0  501 -0.00000000000E+00 -0.00000000000E+00 -0.46583247722E+02  0.46583247722E+02  0.00000000000E+00 0.  1.
          5    1    1    2  502    0  0.61615435874E+02  0.38088098164E+02  0.18458597548E+03  0.19833461600E+03  0.41800000000E+01 0. -1.
         -5    1    1    2    0  502 -0.17332277114E+03  0.67570025484E+02  0.27219739711E+03  0.32972016428E+03  0.41800000000E+01 0.  1.
        -11    1    1    2    0    0  0.12678609385E+03 -0.97887112379E+02  0.64827791205E+03  0.66777305397E+03  0.00000000000E+00 0. -1.
         11    1    1    2    0    0 -0.15078758588E+02 -0.77710112690E+01  0.58750875377E+02  0.61150821207E+02  0.00000000000E+00 0.  1.
</event>
<event>
 7    1  0.5109948E-006  0.1135615E+03  0.7561462E-02  0.1254113E+00
          1   -1    0    0  501    0  0.00000000000E+00  0.00000000000E+00  0.53035106975E+03  0.53035106975E+03  0.00000000000E+00 0. -1.
         -1   -1    0    0    0  501 -0.00000000000E+00 -0.00000000000E+00 -0.30463803067E+02  0.30463803067E+02  0.00000000000E+00 0.  1.
         23    2    1    2    0    0  0.79600141713E+01 -0.43284318660E+02  0.16734826525E+03  0.21351868517E+03  0.12509153835E+03 0.  0.
          5    1    3    3  502    0 -0.25189273038E+02  0.37174071377E+02  0.49486460295E+02  0.66953664661E+02  0.41800000000E+01 0. -1.
         -5    1    3    3    0  502  0.33149287210E+02 -0.80458390038E+02  0.11786180495E+03  0.14656502051E+03  0.41800000000E+01 0. -1.
        -11    1    1    2    0    0  0.37748042928E+02  0.12368688733E+02  0.19681112607E+03  0.20077977625E+03  0.00000000000E+00 0. -1.
         11    1    1    2    0    0 -0.45708057099E+02  0.30915629928E+02  0.13572787536E+03  0.14651641139E+03  0.00000000000E+00 0.  1.
</event>
<event>
 7    1  0.5109948E-006  0.1670151E+03  0.7561462E-02  0.1180997E+00
          2   -1    0    0  501    0  0.00000000000E+00  0.00000000000E+00  0.37144164550E+02  0.37144164550E+02  0.00000000000E+00 0. -1.
         -2   -1    0    0    0  501 -0.00000000000E+00 -0.00000000000E+00 -0.96827399573E+03  0.96827399573E+03  0.00000000000E+00 0.  1.
         23    2    1    2    0    0  0.13795066018E+03  0.69899631626E+02 -0.54411645254E+03  0.57933305612E+03  0.12509089831E+03 0.  0.
          5    1    3    3  502    0  0.10267365549E+03  0.76394750724E+02 -0.52088723711E+03  0.53639446646E+03  0.41800000000E+01 0.  1.
         -5    1    3    3    0  502  0.35277004691E+02 -0.64951190982E+01 -0.23229215434E+02  0.42938589657E+02  0.41800000000E+01 0.  1.
        -11    1    1    2    0    0 -0.98517621641E+02 -0.82474943939E+02 -0.22734136224E+03  0.26113585188E+03  0.00000000000E+00 0. -1.
         11    1    1    2    0    0 -0.39433038535E+02  0.12575312313E+02 -0.15967201639E+03  0.16494925227E+03  0.00000000000E+00 0.  1.
</event>
<event>
 7    1  0.5109948E-006  0.1391214E+03  0.7561462E-02  0.1214516E+00
          2   -1    0    0  501    0  0.00000000000E+00  0.00000000000E+00  0.27919448767E+03  0.27919448767E+03  0.00000000000E+00 0. -1.
         -2   -1    0    0    0  501 -0.00000000000E+00 -0.00000000000E+00 -0.75718616059E+02  0.75718616059E+02  0.00000000000E+00 0.  1.
         23    2    1    2    0    0  0.89512800222E+02  0.38990425797E+02  0.93139559980E+02  0.18399805942E+03  0.12509002171E+03 0.  0.
          5    1    3    3  502    0 -0.27037041011E+02 -0.13657194925E+02  0.14881889926E+02  0.34006817075E+02  0.41800000000E+01 0. -1.
         -5    1    3    3    0  502  0.11654984123E+03  0.52647620721E+02  0.78257670054E+02  0.14999124235E+03  0.41800000000E+01 0. -1.
        -11    1    1    2    0    0 -0.20067330868E+02 -0.45726771307E+02  0.13806466117E+02  0.51809785649E+02  0.00000000000E+00 0.  1.
         11    1    1    2    0    0 -0.69445469354E+02  0.67363455102E+01  0.96529845513E+02  0.11910525866E+03  0.00000000000E+00 0. -1.
</event>
<event>
 7    1  0.5109948E-006  0.8702275E+02  0.7561462E-02  0.1310226E+00
          2   -1    0    0  501    0  0.00000000000E+00  0.00000000000E+00  0.15634921305E+03  0.15634921305E+03  0.00000000000E+00 0.  1.
         -2   -1    0    0    0  501 -0.00000000000E+00 -0.00000000000E+00 -0.96180134960E+02  0.96180134960E+02  0.00000000000E+00 0. -1.
         23    2    1    2    0    0  0.38181706079E+02  0.38140379924E+00 -0.11509857846E+02  0.13130899244E+03  0.12510630088E+03 0.  0.
          5    1    3    3  502    0  0.54399350653E+01  0.38584465108E+02  0.42203233704E+02  0.57592874353E+02  0.41800000000E+01 0.  1.
         -5    1    3    3    0  502  0.32741771014E+02 -0.38203061309E+02 -0.53713091550E+02  0.73716118091E+02  0.41800000000E+01 0.  1.
        -11    1    1    2    0    0 -0.56407551665E+02  0.17274235414E+02  0.75225386949E+02  0.95598482914E+02  0.00000000000E+00 0.  1.
         11    1    1    2    0    0  0.18225845586E+02 -0.17655639214E+02 -0.35464510132E+01  0.25621872651E+02  0.00000000000E+00 0. -1.
</event>
<event>
 7    1  0.5109948E-006  0.1266565E+03  0.7561462E-02  0.1232503E+00
         -1   -1    0    0    0  501 -0.00000000000E+00  0.00000000000E+00  0.57575780918E+03  0.57575780918E+03  0.00000000000E+00 0.  1.
          1   -1    0    0  501    0  0.00000000000E+00 -0.00000000000E+00 -0.57849281043E+02  0.57849281043E+02  0.00000000000E+00 0. -1.
         23    2    1    2    0    0  0.37563326958E+02  0.12039370976E+03  0.40341999822E+03  0.44079500444E+03  0.12508753775E+03 0.  0.
          5    1    3    3  502    0  0.21956295653E+02  0.89635917178E+02  0.10294418315E+03  0.13831722168E+03  0.41800000000E+01 0.  1.
         -5    1    3    3    0  502  0.15607031305E+02  0.30757792577E+02  0.30047581506E+03  0.30247778277E+03  0.41800000000E+01 0.  1.
        -11    1    1    2    0    0 -0.30396142594E+02 -0.91347807571E+02  0.12785263701E+03  0.16004575666E+03  0.00000000000E+00 0.  1.
         11    1    1    2    0    0 -0.71671843640E+01 -0.29045902185E+02 -0.13364107096E+02  0.32766329118E+02  0.00000000000E+00 0. -1.
</event>
<event>
 7    1  0.5109948E-006  0.9106896E+02  0.7561462E-02  0.1300284E+00
         -1   -1    0    0    0  501 -0.00000000000E+00  0.00000000000E+00  0.14711482037E+03  0.14711482037E+03  0.00000000000E+00 0.  1.
          1   -1    0    0  501    0  0.00000000000E+00 -0.00000000000E+00 -0.93918653691E+02  0.93918653691E+02  0.00000000000E+00 0. -1.
         23    2    1    2    0    0  0.21121644908E+02 -0.34676197755E+02  0.51608098339E+02  0.14127689173E+03  0.12508877546E+03 0.  0.
          5    1    3    3  502    0  0.26906330794E+02  0.28964194328E+02  0.64677171696E+02  0.75917614086E+02  0.41800000000E+01 0. -1.
         -5    1    3    3    0  502 -0.57846858864E+01 -0.63640392083E+02 -0.13069073356E+02  0.65359277640E+02  0.41800000000E+01 0. -1.
        -11    1    1    2    0    0 -0.31891974400E+02 -0.91790127631E+01  0.31366220921E+02  0.45663903920E+02  0.00000000000E+00 0.  1.
         11    1    1    2    0    0  0.10770329492E+02  0.43855210518E+02 -0.29778152581E+02  0.54092678415E+02  0.00000000000E+00 0. -1.
</event>
<event>
 7    1  0.5109948E-006  0.8317807E+02  0.7561462E-02  0.1320267E+00
         -1   -1    0    0    0  501 -0.00000000000E+00  0.00000000000E+00  0.33841614486E+02  0.33841614486E+02  0.00000000000E+00 0.  1.
          1   -1    0    0  501    0  0.00000000000E+00 -0.00000000000E+00 -0.36033228746E+03  0.36033228746E+03  0.00000000000E+00 0. -1.
         23    2    1    2    0    0 -0.15298931424E+02  0.96585495654E+01 -0.17417551183E+03  0.21520104685E+03  0.12508811598E+03 0.  0.
          5    1    3    3  502    0 -0.29430300898E+02  0.56829816360E+02 -0.49272479286E+02  0.80876574195E+02  0.41800000000E+01 0. -1.
         -5    1    3    3    0  502  0.14131369475E+02 -0.47171266795E+02 -0.12490303254E+03  0.13432447265E+03  0.41800000000E+01 0. -1.
        -11    1    1    2    0    0 -0.11656490014E+02 -0.20633121620E+02  0.20676061084E+00  0.23698991902E+02  0.00000000000E+00 0.  1.
         11    1    1    2    0    0  0.26955421438E+02  0.10974572055E+02 -0.15252192176E+03  0.15527386320E+03  0.00000000000E+00 0. -1.
</event>
<event>
 7    1  0.5109948E-006  0.1039511E+03  0.7561462E-02  0.1272200E+00
         -2   -1    0    0    0  501 -0.00000000000E+00  0.00000000000E+00  0.18324921897E+03  0.18324921897E+03  0.00000000000E+00 0.  1.
          2   -1    0    0  501    0  0.00000000000E+00 -0.00000000000E+00 -0.82961056687E+02  0.82961056687E+02  0.00000000000E+00 0. -1.
         23    2    1    2    0    0 -0.24445322747E+02  0.45365152827E+02  0.73763233672E+02  0.15409404670E+03  0.12509352378E+03 0.  0.
          5    1    3    3  502    0  0.32352146201E+02  0.13993665344E+02  0.81229880809E+02  0.88646770780E+02  0.41800000000E+01 0. -1.
         -5    1    3    3    0  502 -0.56797468947E+02  0.31371487482E+02 -0.74666471370E+01  0.65447275918E+02  0.41800000000E+01 0. -1.
        -11    1    1    2    0    0  0.60209260043E+02 -0.19640621803E+02  0.63107717436E+01  0.63645383648E+02  0.00000000000E+00 0.  1.
         11    1    1    2    0    0 -0.35763937296E+02 -0.25724531023E+02  0.20214156868E+02  0.48470845311E+02  0.00000000000E+00 0. -1.
</event>
<event>
 7    1  0.5109948E-006  0.1683630E+03  0.7561462E-02  0.1179566E+00
          1   -1    0    0  501    0  0.00000000000E+00  0.00000000000E+00  0.27589058793E+03  0.27589058793E+03  0.00000000000E+00 0. -1.
         -1   -1    0    0    0  501 -0.00000000000E+00 -0.00000000000E+00 -0.12346078356E+03  0.12346078356E+03  0.00000000000E+00 0.  1.
         23    2    1    2    0    0  0.29852281505E+02  0.14466707680E+03  0.61313159658E+02  0.20305099261E+03  0.12510267875E+03 0.  0.
          5    1    3    3  502    0  0.19605028923E+01  0.15475939121E+03  0.72646262909E+02  0.17102416395E+03  0.41800000000E+01 0.  1.
         -5    1    3    3    0  502  0.27891778613E+02 -0.10092314417E+02 -0.11333103250E+02  0.32026828656E+02  0.41800000000E+01 0.  1.
        -11    1    1    2    0    0  0.80814337703E+01 -0.18291307346E+02 -0.16584294636E+02  0.25979228718E+02  0.00000000000E+00 0.  1.
         11    1    1    2    0    0 -0.37933715276E+02 -0.12637576945E+03  0.10770093935E+03  0.17032115017E+03  0.00000000000E+00 0. -1.
</event>
<event>
 7    1  0.5109948E-006  0.1122305E+03  0.7561462E-02  0.1256494E+00
          2   -1    0    0  501    0  0.00000000000E+00  0.00000000000E+00  0.70892310707E+03  0.70892310707E+03  0.00000000000E+00 0. -1.
         -2   -1    0    0    0  501 -0.00000000000E+00 -0.00000000000E+00 -0.20884052214E+02  0.20884052214E+02  0.00000000000E+00 0.  1.
         23    2    1    2    0    0 -0.49997253993E+02  0.15832219752E+02  0.40710291579E+03  0.42910453393E+03  0.12509009712E+03 0.  0.
          5    1    3    3  502    0 -0.70778224469E+02 -0.21699656279E+02  0.34882264605E+03  0.35661624043E+03  0.41800000000E+01 0. -1.
         -5    1    3    3    0  502  0.20780970476E+02  0.37531876031E+02  0.58280269741E+02  0.72488293492E+02  0.41800000000E+01 0. -1.
        -11    1    1    2    0    0  0.60437283209E+02  0.24747662043E+02  0.16869763595E+03  0.18089777322E+03  0.00000000000E+00 0.  1.
         11    1    1    2    0    0 -0.10440029216E+02 -0.40579881795E+02  0.11223850311E+03  0.11980485214E+03  0.00000000000E+00 0. -1.
</event>
<event>
 7    1  0.5109948E-006  0.1369475E+03  0.7561462E-02  0.1217496E+00
         -2   -1    0    0    0  501 -0.00000000000E+00  0.00000000000E+00  0.51923475304E+02  0.51923475304E+02  0.00000000000E+00 0. -1.
          2   -1    0    0  501    0  0.00000000000E+00 -0.00000000000E+00 -0.61543370467E+03  0.61543370467E+03  0.00000000000E+00 0.  1.
         23    2    1    2    0    0  0.62436003507E+02  0.93926661335E+02 -0.13741005876E+03  0.21736922259E+03  0.12508949771E+03 0.  0.
          5    1    3    3  502    0  0.26821747045E+02 -0.17274942359E+01 -0.10755529342E+03  0.11094144354E+03  0.41800000000E+01 0.  1.
         -5    1    3    3    0  502  0.35614256462E+02  0.95654155571E+02 -0.29854765341E+02  0.10642777906E+03  0.41800000000E+01 0.  1.
        -11    1    1    2    0    0 -0.86113400960E+02 -0.71500158164E+02 -0.32195478721E+03  0.34085579862E+03  0.00000000000E+00 0.  1.
         11    1    1    2    0    0  0.23677397453E+02 -0.22426503171E+02 -0.10414538339E+03  0.10913215877E+03  0.00000000000E+00 0. -1.
</event>
<event>
 7    1  0.5109948E-006  0.1323221E+03  0.7561462E-02  0.1224050E+00
          1   -1    0    0  501    0  0.00000000000E+00  0.00000000000E+00  0.16598136887E+03  0.16598136887E+03  0.00000000000E+00 0. -1.
         -1   -1    0    0    0  501 -0.00000000000E+00 -0.00000000000E+00 -0.14526477735E+03  0.14526477735E+03  0.00000000000E+00 0.  1.
         23    2    1    2    0    0 -0.86283898835E+02  0.66553361114E+02 -0.56151069455E+01  0.16599199027E+03  0.12509016882E+03 0.  0.
          5    1    3    3  502    0 -0.11172049837E+02  0.53641901362E+02  0.47797988616E+02  0.72831232278E+02  0.41800000000E+01 0.  1.
         -5    1    3    3    0  502 -0.75111848997E+02  0.12911459751E+02 -0.53413095562E+02  0.93160757995E+02  0.41800000000E+01 0.  1.
        -11    1    1    2    0    0  0.78469550414E+02 -0.83571748840E+02  0.40702703265E+02  0.12164874681E+03  0.00000000000E+00 0. -1.
         11    1    1    2    0    0  0.78143484207E+01  0.17018387726E+02 -0.14371004790E+02  0.23605409141E+02  0.00000000000E+00 0.  1.
</event>
<event>
 7    1  0.5109948E-006  0.1985997E+03  0.7561462E-02  0.1150926E+00
         -1   -1    0    0    0  501 -0.00000000000E+00  0.00000000000E+00  0.86676385549E+02  0.86676385549E+02  0.00000000000E+00 0.  1.
          1   -1    0    0  501    0  0.00000000000E+00 -0.00000000000E+00 -0.75221229169E+03  0.75221229169E+03  0.00000000000E+00 0. -1.
         23    2    1    2    0    0  0.14922936042E+03  0.92589334681E+02 -0.96380645011E+02  0.23617127217E+03  0.12508178987E+03 0.  0.
          5    1    3    3  502    0  0.14423333866E+03  0.11811160201E+03 -0.70814561617E+02  0.19946373366E+03  0.41800000000E+01 0. -1.
         -5    1    3    3    0  502  0.49960217547E+01 -0.25522267326E+02 -0.25566083394E+02  0.36707538503E+02  0.41800000000E+01 0. -1.
        -11    1    1    2    0    0 -0.50281408408E+02 -0.21350920178E+01 -0.27343872509E+03  0.27803150006E+03  0.00000000000E+00 0.  1.
         11    1    1    2    0    0 -0.98947952008E+02 -0.90454242663E+02 -0.29571653604E+03  0.32468590501E+03  0.00000000000E+00 0. -1.
</event>
<event>
 7    1  0.5109948E-006  0.1670938E+03  0.7561462E-02  0.1180913E+00
          2   -1    0    0  501    0  0.00000000000E+00  0.00000000000E+00  0.70781991245E+03  0.70781991245E+03  0.00000000000E+00 0.  1.
         -2   -1    0    0    0  501 -0.00000000000E+00 -0.00000000000E+00 -0.42872608141E+02  0.42872608141E+02  0.00000000000E+00 0. -1.
         23    2    1    2    0    0  0.27391618101E+02  0.13305413836E+03  0.37716999151E+03  0.41995152062E+03  0.12509345587E+03 0.  0.
          5    1    3    3  502    0 -0.40022499568E+02  0.52611831700E+02  0.75080990431E+02  0.10012208962E+03  0.41800000000E+01 0.  1.
         -5    1    3    3    0  502  0.67414117668E+02  0.80442306663E+02  0.30208900108E+03  0.31982943100E+03  0.41800000000E+01 0.  1.
        -11    1    1    2    0    0  0.32874285005E+02 -0.36770516596E+02  0.92580573468E+02  0.10489972397E+03  0.00000000000E+00 0.  1.
         11    1    1    2    0    0 -0.60265903106E+02 -0.96283621767E+02  0.19519673933E+03  0.22584127600E+03  0.00000000000E+00 0. -1.
</event>
<event>
 7    1  0.5109948E-006  0.1275999E+03  0.7561462E-02  0.1231061E+00
          2   -1    0    0  501    0  0.00000000000E+00  0.00000000000E+00  0.55305071742E+02  0.55305071742E+02  0.00000000000E+00 0. -1.
         -2   -1    0    0    0  501 -0.00000000000E+00 -0.00000000000E+00 -0.47466354234E+03  0.47466354234E+03  0.00000000000E+00 0.  1.
         23    2    1    2    0    0 -0.10086444525E+03 -0.62736809275E+02 -0.25282914135E+03  0.30607128110E+03  0.12509001097E+03 0.  0.
          5    1    3    3  502    0 -0.20527148560E+02 -0.48423702668E+02 -0.20437490403E+03  0.21107532448E+03  0.41800000000E+01 0.  1.
         -5    1    3    3    0  502 -0.80337296688E+02 -0.14313106606E+02 -0.48454237323E+02  0.94995956621E+02  0.41800000000E+01 0.  1.
        -11    1    1    2    0    0  0.29700168020E+02  0.30607268020E+02 -0.30849868195E+01  0.42760051213E+02  0.00000000000E+00 0. -1.
         11    1    1    2    0    0  0.71164277227E+02  0.32129541255E+02 -0.16344434243E+03  0.18113728177E+03  0.00000000000E+00 0.  1.
</event>
<event>
 7    1  0.5109948E-006  0.9277001E+02  0.7561462E-02  0.1296279E+00
          1   -1    0    0  501    0  0.00000000000E+00  0.00000000000E+00  0.22761614787E+03  0.22761614787E+03  0.00000000000E+00 0. -1.
         -1   -1    0    0    0  501 -0.00000000000E+00 -0.00000000000E+00 -0.60403521033E+02  0.60403521033E+02  0.00000000000E+00 0.  1.
         23    2    1    2    0    0  0.24675803099E+02 -0.27756116582E+02  0.64098743057E+02  0.14538255398E+03  0.12509252925E+03 0.  0.
          5    1    3    3  502    0  0.21804449323E+02 -0.55002472609E+02 -0.15325267501E+02  0.61262078217E+02  0.41800000000E+01 0.  1.
         -5    1    3    3    0  502  0.28713537766E+01  0.27246356027E+02  0.79424010558E+02  0.84120475762E+02  0.41800000000E+01 0.  1.
        -11    1    1    2    0    0 -0.52885275818E+02  0.41412516845E+02  0.68343630777E+02  0.95826409813E+02  0.00000000000E+00 0.  1.
         11    1    1    2    0    0  0.28209472719E+02 -0.13656400263E+02  0.34770253006E+02  0.46810705114E+02  0.00000000000E+00 0. -1.
</event>
<event>
 7    1  0.5109948E-006  0.1022739E+03  0.7561462E-02  0.1275586E+00
         -1   -1    0    0    0  501 -0.00000000000E+00  0.00000000000E+00  0.46599273975E+02  0.46599273975E+02  0.00000000000E+00 0.  1.
          1   -1    0    0  501    0  0.00000000000E+00 -0.00000000000E+00 -0.33952323983E+03  0.33952323983E+03  0.00000000000E+00 0. -1.
         23    2    1    2    0    0  0.78685094158E+01 -0.22203913179E+02 -0.61803369817E+02  0.13698012983E+03  0.11995404223E+03 0.  0.
          5    1    3    3  502    0  0.54019698710E+02  0.21740993457E+02 -0.29824163445E+02  0.65557240412E+02  0.41800000000E+01 0. -1.
         -5    1    3    3    0  502 -0.46151189295E+02 -0.43944906636E+02 -0.31979206372E+02  0.71422889417E+02  0.41800000000E+01 0.  1.
        -11    1    1    2    0    0 -0.38849405115E+02  0.31437686786E+02 -0.19197669086E+03  0.19837503437E+03  0.00000000000E+00 0.  1.
         11    1    1    2    0    0  0.30980895699E+02 -0.92337736067E+01 -0.39143905181E+02  0.50767349607E+02  0.00000000000E+00 0. -1.
</event>
<event>
 7    1  0.5109948E-006  0.1165750E+03  0.7561462E-02  0.1248857E+00
         -2   -1    0    0    0  501 -0.00000000000E+00  0.00000000000E+00  0.13804889347E+03  0.13804889347E+03  0.00000000000E+00 0. -1.
          2   -1    0    0  501    0  0.00000000000E+00 -0.00000000000E+00 -0.30463997130E+03  0.30463997130E+03  0.00000000000E+00 0.  1.
         23    2    1    2    0    0 -0.42168069005E+02  0.33313099822E+02  0.93046115461E+02  0.16191130716E+03  0.12111888012E+03 0.  0.
          5    1    3    3  502    0 -0.40912928510E+02 -0.37549188257E+02  0.64954514687E+02  0.85559164537E+02  0.41800000000E+01 0. -1.
         -5    1    3    3    0  502 -0.12551404948E+01  0.70862288080E+02  0.28091600774E+02  0.76352142626E+02  0.41800000000E+01 0.  1.
        -11    1    1    2    0    0  0.71595222603E+02 -0.21490842852E+02 -0.17048363908E+03  0.18615156035E+03  0.00000000000E+00 0.  1.
         11    1    1    2    0    0 -0.29427153598E+02 -0.11822256971E+02 -0.89153554211E+02  0.94625997259E+02  0.00000000000E+00 0. -1.
</event>
<event>
 7    1  0.5109948E-006  0.1191914E+03  0.7561462E-02  0.1244437E+00
         -1   -1    0    0    0  501 -0.00000000000E+00  0.00000000000E+00  0.84364467771E+02  0.84364467771E+02  0.00000000000E+00 0.  1.
          1   -1    0    0  501    0  0.00000000000E+00 -0.00000000000E+00 -0.23656732311E+03  0.23656732311E+03  0.00000000000E+00 0. -1.
         23    2    1    2    0    0 -0.83027437082E+02  0.25029992822E+02 -0.93665479464E+02  0.17872012897E+03  0.12509039374E+03 0.  0.
          5    1    3    3  502    0 -0.79444353413E+02 -0.71457533433E+01 -0.11478457133E+03  0.13984075692E+03  0.41800000000E+01 0.  1.
         -5    1    3    3    0  502 -0.35830836685E+01  0.32175746166E+02  0.21119091865E+02  0.38879372051E+02  0.41800000000E+01 0.  1.
        -11    1    1    2    0    0  0.36507528004E+02  0.34557061042E+02 -0.40346654692E+02  0.64458068646E+02  0.00000000000E+00 0. -1.
         11    1    1    2    0    0  0.46519909078E+02 -0.59587053864E+02 -0.18190721184E+02  0.77753593268E+02  0.00000000000E+00 0.  1.
</event>
<event>
 7    1  0.5109948E-006  0.9334351E+02  0.7561462E-02  0.1294951E+00
         -1   -1    0    0    0  501 -0.00000000000E+00  0.00000000000E+00  0.48553890211E+02  0.48553890211E+02  0.00000000000E+00 0.  1.
          1   -1    0    0  501    0  0.00000000000E+00 -0.00000000000E+00 -0.18981268979E+03  0.18981268979E+03  0.00000000000E+00 0. -1.
         23    2    1    2    0    0  0.11746341706E+02 -0.16329620512E+01 -0.82230575440E+02  0.15017506430E+03  0.12510011708E+03 0.  0.
          5    1    3    3  502    0 -0.17264552273E+02 -0.57167946465E+02 -0.56488493414E+02  0.82308329812E+02  0.41800000000E+01 0. -1.
         -5    1    3    3    0  502  0.29010893979E+02  0.55534984414E+02 -0.25742082025E+02  0.67866734490E+02  0.41800000000E+01 0. -1.
        -11    1    1    2    0    0 -0.13012007620E+02  0.31527117799E+02 -0.22005487562E+02  0.40589567402E+02  0.00000000000E+00 0.  1.
         11    1    1    2    0    0  0.12656659139E+01 -0.29894155748E+02 -0.37022736578E+02  0.47601948298E+02  0.00000000000E+00 0. -1.
</event>
<event>
 7    1  0.5109948E-006  0.1254152E+03  0.7561462E-02  0.1234422E+00
          1   -1    0    0  501    0  0.00000000000E+00  0.00000000000E+00  0.78168089972E+03  0.78168089972E+03  0.00000000000E+00 0. -1.
         -1   -1    0    0    0  501 -0.00000000000E+00 -0.00000000000E+00 -0.50521163007E+02  0.50521163007E+02  0.00000000000E+00 0.  1.
         23    2    1    2    0    0 -0.74713326769E+02  0.61302240469E+02  0.99649307255E+02  0.18686116560E+03  0.12508822842E+03 0.  0.
          5    1    3    3  502    0 -0.36171567092E+02  0.69449225861E+02 -0.12901116377E+01  0.78426488042E+02  0.41800000000E+01 0. -1.
         -5    1    3    3    0  502 -0.38541759677E+02 -0.81469853915E+01  0.10093941889E+03  0.10843467755E+03  0.41800000000E+01 0. -1.
        -11    1    1    2    0    0  0.84867986970E+02 -0.76675781243E+02  0.55175323696E+03  0.56348326075E+03  0.00000000000E+00 0.  1.
         11    1    1    2    0    0 -0.10154660201E+02  0.15373540774E+02  0.79757192491E+02  0.81857636381E+02  0.00000000000E+00 0. -1.
</event>
<event>
 7    1  0.5109948E-006  0.1038693E+03  0.7561462E-02  0.1272364E+00
         -2   -1    0    0    0  501 -0.00000000000E+00  0.00000000000E+00  0.33428633279E+03  0.33428633279E+03  0.00000000000E+00 0.  1.
          2   -1    0    0  501    0  0.00000000000E+00 -0.00000000000E+00 -0.52013124978E+02  0.52013124978E+02  0.00000000000E+00 0. -1.
         23    2    1    2    0    0 -0.28335358484E+02 -0.50510433992E+01  0.25775257172E+03  0.28794588075E+03  0.12509211180E+03 0.  0.
          5    1    3    3  502    0  0.44464974368E+02 -0.27166631426E+01  0.46862945523E+02  0.64792918343E+02  0.41800000000E+01 0.  1.
         -5    1    3    3    0  502 -0.72800332852E+02 -0.23343802566E+01  0.21088962620E+03  0.22315296241E+03  0.41800000000E+01 0.  1.
        -11    1    1    2    0    0  0.41242582271E+02  0.37108181813E+02  0.30456401661E+02  0.63289494800E+02  0.00000000000E+00 0.  1.
         11    1    1    2    0    0 -0.12907223788E+02 -0.32057138414E+02 -0.59357655629E+01  0.35064082221E+02  0.00000000000E+00 0. -1.
</event>
<event>
 7    1  0.5109948E-006  0.1114346E+03  0.7561462E-02  0.1257936E+00
         -2   -1    0    0    0  501 -0.00000000000E+00  0.00000000000E+00  0.16820235420E+02  0.16820235420E+02  0.00000000000E+00 0. -1.
          2   -1    0    0  501    0  0.00000000000E+00 -0.00000000000E+00 -0.10133321114E+04  0.10133321114E+04  0.00000000000E+00 0.  1.
         23    2    1    2    0    0  0.29397259867E+02 -0.65606022638E+02 -0.49770020375E+03  0.51819235346E+03  0.12509785484E+03 0.  0.
          5    1    3    3  502    0 -0.34419733274E+02 -0.20741544188E+02 -0.33802518882E+03  0.34043124176E+03  0.41800000000E+01 0. -1.
         -5    1    3    3    0  502  0.63816993141E+02 -0.44864478450E+02 -0.15967501493E+03  0.17776111170E+03  0.41800000000E+01 0. -1.
        -11    1    1    2    0    0 -0.18038771467E+02 -0.14681465166E+02 -0.42021953270E+02  0.48029025100E+02  0.00000000000E+00 0.  1.
         11    1    1    2    0    0 -0.11358488400E+02  0.80287487804E+02 -0.45678971893E+03  0.46393096822E+03  0.00000000000E+00 0. -1.
</event>
<event>
 7    1  0.5109948E-006  0.1675307E+03  0.7561462E-02  0.1180448E+00
         -2   -1    0    0    0  501 -0.00000000000E+00  0.00000000000E+00  0.16129422949E+03  0.16129422949E+03  0.00000000000E+00 0.  1.
          2   -1    0    0  501    0  0.00000000000E+00 -0.00000000000E+00 -0.21070122518E+03  0.21070122518E+03  0.00000000000E+00 0. -1.
         23    2    1    2    0    0  0.12745589242E+03 -0.73252490617E+02 -0.42720730481E+01  0.19307142381E+03  0.12508953669E+03 0.  0.
          5    1    3    3  502    0 -0.30931335622E+00 -0.58726384855E+02 -0.22703679138E+02  0.63101611701E+02  0.41800000000E+01 0. -1.
         -5    1    3    3    0  502  0.12776520578E+03 -0.14526105762E+02  0.18431606089E+02  0.12996981211E+03  0.41800000000E+01 0. -1.
        -11    1    1    2    0    0 -0.67567121871E+02  0.31676187645E+02  0.24062905620E+02  0.78407399195E+02  0.00000000000E+00 0. -1.
         11    1    1    2    0    0 -0.59888770551E+02  0.41576302972E+02 -0.69197828262E+02  0.10051663167E+03  0.00000000000E+00 0.  1.
</event>
<event>
 7    1  0.5109948E-006  0.1172098E+03  0.7561462E-02  0.1247772E+00
         -1   -1    0    0    0  501 -0.00000000000E+00  0.00000000000E+00  0.76885290655E+02  0.76885290655E+02  0.00000000000E+00 0. -1.
          1   -1    0    0  501    0  0.00000000000E+00 -0.00000000000E+00 -0.25526791627E+03  0.25526791627E+03  0.00000000000E+00 0.  1.
         23    2    1    2    0    0  0.83367430984E+02 -0.20771363808E+02 -0.70415655875E+02  0.16730351804E+03  0.12510205615E+03 0.  0.
          5    1    3    3  502    0 -0.43309322089E+01 -0.53651617597E+02 -0.77642038506E+01  0.54543636714E+02  0.41800000000E+01 0.  1.
         -5    1    3    3    0  502  0.87698363193E+02  0.32880253788E+02 -0.62651452025E+02  0.11275988133E+03  0.41800000000E+01 0.  1.
        -11    1    1    2    0    0 -0.49038631904E+02  0.18001570446E+02 -0.11794284612E+03  0.12899363903E+03  0.00000000000E+00 0.  1.
         11    1    1    2    0    0 -0.34328799080E+02  0.27697933626E+01  0.99758763866E+01  0.35856049855E+02  0.00000000000E+00 0. -1.
</event>
<event>
 7    1  0.5109948E-006  0.1004004E+03  0.7561462E-02  0.1279456E+00
         -2   -1    0    0    0  501 -0.00000000000E+00  0.00000000000E+00  0.18382850090E+02  0.18382850090E+02  0.00000000000E+00 0.  1.
          2   -1    0    0  501    0  0.00000000000E+00 -0.00000000000E+00 -0.94832081937E+03  0.94832081937E+03  0.00000000000E+00 0. -1.
         23    2    1    2    0    0  0.20557027251E+01 -0.73299270981E+02 -0.46384169754E+03  0.48597737680E+03  0.12509149187E+03 0.  0.
          5    1    3    3  502    0  0.20830974456E+02 -0.40845811572E+02 -0.41592014492E+02  0.62045772534E+02  0.41800000000E+01 0.  1.
         -5    1    3    3    0  502 -0.18775271730E+02 -0.32453459408E+02 -0.42224968305E+03  0.42393160426E+03  0.41800000000E+01 0.  1.
        -11    1    1    2    0    0 -0.44634439061E+02  0.54621451943E+02 -0.25549713175E+03  0.26505569319E+03  0.00000000000E+00 0. -1.
         11    1    1    2    0    0  0.42578736336E+02  0.18677819038E+02 -0.21059913999E+03  0.21567059948E+03  0.00000000000E+00 0.  1.
</event>
<event>
 6    1  0.5109948E-006  0.1287030E+03  0.7561462E-02  0.1229393E+00
          2   -1    0    0  501    0  0.00000000000E+00  0.00000000000E+00  0.50528725235E+03  0.50528725235E+03  0.00000000000E+00 0. -1.
         -2   -1    0    0    0  501 -0.00000000000E+00 -0.00000000000E+00 -0.58808788342E+02  0.58808788342E+02  0.00000000000E+00 0.  1.
          5    1    1    2  502    0 -0.74090836715E+02  0.18103951213E+02  0.18018200567E+02  0.78481418733E+02  0.41800000000E+01 0. -1.
         -5    1    1    2    0  502  0.86878939974E+02 -0.35110336801E+02  0.75174663395E+02  0.12020560876E+03  0.41800000000E+01 0.  1.
        -11    1    1    2    0    0  0.34735760521E+02 -0.45604748086E+01  0.21027281412E+03  0.21317135677E+03  0.00000000000E+00 0.  1.
         11    1    1    2    0    0 -0.47523863780E+02  0.21566860396E+02  0.14301278592E+03  0.15223765642E+03  0.00000000000E+00 0. -1.
</event>
<event>
 7    1  0.5109948E-006  0.1070506E+03  0.7561462E-02  0.1266131E+00
         -1   -1    0    0    0  501 -0.00000000000E+00  0.00000000000E+00  0.29575364137E+02  0.29575364137E+02  0.00000000000E+00 0.  1.
          1   -1    0    0  501    0  0.00000000000E+00 -0.00000000000E+00 -0.42075156384E+03  0.42075156384E+03  0.00000000000E+00 0. -1.
         23    2    1    2    0    0  0.13540272716E+02  0.15318161073E+02 -0.18370779065E+03  0.22319073040E+03  0.12509022644E+03 0.  0.
          5    1    3    3  502    0  0.45046665853E+02 -0.40503164851E+02 -0.70648769618E+02  0.93158088838E+02  0.41800000000E+01 0.  1.
         -5    1    3    3    0  502 -0.31506393137E+02  0.55821325924E+02 -0.11305902103E+03  0.13003264157E+03  0.41800000000E+01 0.  1.
        -11    1    1    2    0    0 -0.11892945298E+02 -0.51535117196E+02 -0.92106933268E+02  0.10621204079E+03  0.00000000000E+00 0.  1.
         11    1    1    2    0    0 -0.16473274180E+01  0.36216956122E+02 -0.11536147579E+03  0.12092415678E+03  0.00000000000E+00 0. -1.
</event>
<event>
 7    1  0.5109948E-006  0.1715596E+03  0.7561462E-02  0.1176231E+00
         -1   -1    0    0    0  501 -0.00000000000E+00  0.00000000000E+00  0.53476179178E+03  0.53476179178E+03  0.00000000000E+00 0.  1.
          1   -1    0    0  501    0  0.00000000000E+00 -0.00000000000E+00 -0.71257320241E+02  0.71257320241E+02  0.00000000000E+00 0. -1.
         23    2    1    2    0    0  0.94915954754E+02 -0.12219159577E+03  0.31664308782E+03  0.37396505154E+03  0.12508872918E+03 0.  0.
          5    1    3    3  502    0  0.48635879397E+02 -0.23068297375E+02  0.22441693311E+03  0.23082033570E+03  0.41800000000E+01 0. -1.
         -5    1    3    3    0  502  0.46280075357E+02 -0.99123298394E+02  0.92226154708E+02  0.14314471584E+03  0.41800000000E+01 0. -1.
        -11    1    1    2    0    0 -0.29749461592E+02  0.10923158179E+03  0.91064593671E+02  0.14529049916E+03  0.00000000000E+00 0. -1.
         11    1    1    2    0    0 -0.65166493162E+02  0.12960013981E+02  0.55796790053E+02  0.86763561324E+02  0.00000000000E+00 0.  1.
</event>
<event>
 6    1  0.5109948E-006  0.1811666E+03  0.7561462E-02  0.1166679E+00
          2   -1    0    0  501    0  0.00000000000E+00  0.00000000000E+00  0.63338813057E+03  0.63338813057E+03  0.00000000000E+00 0. -1.
         -2   -1    0    0    0  501 -0.00000000000E+00 -0.00000000000E+00 -0.55820164432E+02  0.55820164432E+02  0.00000000000E+00 0.  1.
          5    1    1    2  502    0 -0.14316686461E+03 -0.17677943249E+02  0.15694643788E+03  0.21321096961E+03  0.41800000000E+01 0. -1.
         -5    1    1    2    0  502  0.79705725169E+02  0.55067424238E+02  0.14260523243E+03  0.17245042347E+03  0.41800000000E+01 0.  1.
        -11    1    1    2    0    0  0.67743973741E+02 -0.64538473466E+02  0.22849457910E+03  0.24690936234E+03  0.00000000000E+00 0.  1.
         11    1    1    2    0    0 -0.42828343017E+01  0.27148992477E+02  0.49521716730E+02  0.56637539584E+02  0.00000000000E+00 0. -1.
</event>
<event>
 7    1  0.5109948E-006  0.1336125E+03  0.7561462E-02  0.1222192E+00
         -2   -1    0    0    0  501 -0.00000000000E+00  0.00000000000E+00  0.64025783088E+02  0.64025783088E+02  0.00000000000E+00 0. -1.
          2   -1    0    0  501    0  0.00000000000E+00 -0.00000000000E+00 -0.49279251526E+03  0.49279251526E+03  0.00000000000E+00 0.  1.
         23    2    1    2    0    0  0.73696535636E+02 -0.36472260259E+02 -0.48553683196E+02  0.15737423742E+03  0.12509110808E+03 0.  0.
          5    1    3    3  502    0 -0.12105932246E+02  0.34344731736E+02 -0.20231177254E+01  0.36710755902E+02  0.41800000000E+01 0.  1.
         -5    1    3    3    0  502  0.85802467881E+02 -0.70816991995E+02 -0.46530565471E+02  0.12066348152E+03  0.41800000000E+01 0.  1.
        -11    1    1    2    0    0 -0.69924691047E+02 -0.11719449913E+02 -0.17956720527E+03  0.19305747624E+03  0.00000000000E+00 0. -1.
         11    1    1    2    0    0 -0.37718445890E+01  0.48191710172E+02 -0.20064584370E+03  0.20638658468E+03  0.00000000000E+00 0.  1.
</event>
<event>
 7    1  0.5109948E-006  0.8087182E+02  0.7561462E-02  0.1326595E+00
          2   -1    0    0  501    0  0.00000000000E+00  0.00000000000E+00  0.66180615952E+03  0.66180615952E+03  0.00000000000E+00 0. -1.
         -2   -1    0    0    0  501 -0.00000000000E+00 -0.00000000000E+00 -0.23725853135E+02  0.23725853135E+02  0.00000000000E+00 0.  1.
         23    2    1    2    0    0 -0.35889465696E+02  0.44431023361E+02  0.28526109127E+03  0.31667421210E+03  0.12508595777E+03 0.  0.
          5    1    3    3  502    0 -0.96830823582E+01  0.12058192088E+02  0.27241776649E+03  0.27288839106E+03  0.41800000000E+01 0. -1.
         -5    1    3    3    0  502 -0.26206383338E+02  0.32372831274E+02  0.12843324784E+02  0.43785821037E+02  0.41800000000E+01 0. -1.
        -11    1    1    2    0    0  0.27957574625E+02 -0.70910049705E+02  0.21040529498E+03  0.22378616866E+03  0.00000000000E+00 0.  1.
         11    1    1    2    0    0  0.79318910713E+01  0.26479026344E+02  0.14241392014E+03  0.14507163190E+03  0.00000000000E+00 0. -1.
</event>
<event>
 7    1  0.5109948E-006  0.9299408E+02  0.7561462E-02  0.1295759E+00
          2   -1    0    0  501    0  0.00000000000E+00  0.00000000000E+00  0.35916383623E+03  0.35916383623E+03  0.00000000000E+00 0. -1.
         -2   -1    0    0    0  501 -0.00000000000E+00 -0.00000000000E+00 -0.53026607130E+02  0.53026607130E+02  0.00000000000E+00 0.  1.
         23    2    1    2    0    0 -0.54291244911E+02 -0.47317350540E+02  0.10827337582E+03  0.18043861324E+03  0.12509395789E+03 0.  0.
          5    1    3    3  502    0 -0.28538972130E+02 -0.70070107001E+02  0.12165615329E+03  0.14332475312E+03  0.41800000000E+01 0.  1.
         -5    1    3    3    0  502 -0.25752272781E+02  0.22752756460E+02 -0.13382777469E+02  0.37113860116E+02  0.41800000000E+01 0.  1.
        -11    1    1    2    0    0  0.79628744610E+01  0.20671419052E+02 -0.43667292520E+01  0.22578380360E+02  0.00000000000E+00 0.  1.
         11    1    1    2    0    0  0.46328370450E+02  0.26645931489E+02  0.20223058253E+03  0.20917344976E+03  0.00000000000E+00 0. -1.
</event>
<event>
 7    1  0.5109948E-006  0.8732581E+02  0.7561462E-02  0.1309460E+00
          1   -1    0    0  501    0  0.00000000000E+00  0.00000000000E+00  0.41279489380E+02  0.41279489380E+02  0.00000000000E+00 0. -1.
         -1   -1    0    0    0  501 -0.00000000000E+00 -0.00000000000E+00 -0.35492587738E+03  0.35492587738E+03  0.00000000000E+00 0.  1.
         23    2    1    2    0    0  0.91682789856E+01  0.86684497933E-01 -0.25788639875E+03  0.28676971991E+03  0.12508961886E+03 0.  0.
          5    1    3    3  502    0 -0.13650293734E+02  0.35542229847E+02 -0.16520462582E+02  0.41713051979E+02  0.41800000000E+01 0. -1.
         -5    1    3    3    0  502  0.22818572720E+02 -0.35455545349E+02 -0.24136593616E+03  0.24505666793E+03  0.41800000000E+01 0. -1.
        -11    1    1    2    0    0 -0.12478400749E+02 -0.46144746292E+02 -0.31793870806E+02  0.57409914792E+02  0.00000000000E+00 0. -1.
         11    1    1    2    0    0  0.33101217631E+01  0.46058061795E+02 -0.23966118444E+02  0.52025732053E+02  0.00000000000E+00 0.  1.
</event>
<event>
 7    1  0.5109948E-006  0.8518862E+02  0.7561462E-02  0.1314940E+00
         -2   -1    0    0    0  501 -0.00000000000E+00  0.00000000000E+00  0.47496164933E+02  0.47496164933E+02  0.00000000000E+00 0.  1.
          2   -1    0    0  501    0  0.00000000000E+00 -0.00000000000E+00 -0.27748660157E+03  0.27748660157E+03  0.00000000000E+00 0. -1.
         23    2    1    2    0    0  0.29482604445E+02  0.21820093757E+02 -0.14150532470E+03  0.19242088497E+03  0.12512673415E+03 0.  0.
          5    1    3    3  502    0  0.61338065498E+02 -0.32077040143E+01 -0.20724607647E+02  0.64958674604E+02  0.41800000000E+01 0.  1.
         -5    1    3    3    0  502 -0.31855461053E+02  0.25027797771E+02 -0.12078071705E+03  0.12746221037E+03  0.41800000000E+01 0.  1.
        -11    1    1    2    0    0 -0.39076512037E+02 -0.34540791532E+02 -0.10801018987E+02  0.53260699243E+02  0.00000000000E+00 0.  1.
         11    1    1    2    0    0  0.95939075920E+01  0.12720697775E+02 -0.77684092955E+02  0.79301182293E+02  0.00000000000E+00 0. -1.
</event>
<event>
 7    1  0.5109948E-006  0.1202097E+03  0.7561462E-02  0.1242752E+00
          2   -1    0    0  501    0  0.00000000000E+00  0.00000000000E+00  0.10184187635E+03  0.10184187635E+03  0.00000000000E+00 0.  1.
         -2   -1    0    0    0  501 -0.00000000000E+00 -0.00000000000E+00 -0.21194103354E+03  0.21194103354E+03  0.00000000000E+00 0. -1.
         23    2    1    2    0    0 -0.69851702434E+02 -0.30306571162E+02 -0.12796430769E+03  0.19447322849E+03  0.12508886428E+03 0.  0.
          5    1    3    3  502    0 -0.18216490743E+02 -0.64320987032E+02 -0.11196074059E+03  0.13046727460E+03  0.41800000000E+01 0. -1.
         -5    1    3    3    0  502 -0.51635211692E+02  0.34014415870E+02 -0.16003567100E+02  0.64005953890E+02  0.41800000000E+01 0. -1.
        -11    1    1    2    0    0  0.36943636244E+02  0.57790247837E+02  0.29830962392E+02  0.74795931181E+02  0.00000000000E+00 0.  1.
         11    1    1    2    0    0  0.32908066190E+02 -0.27483676675E+02 -0.11965811888E+02  0.44513750213E+02  0.00000000000E+00 0. -1.
</event>
<event>
 7    1  0.5109948E-006  0.1018621E+03  0.7561462E-02  0.1276428E+00
         -1   -1    0    0    0  501 -0.00000000000E+00  0.00000000000E+00  0.13151619221E+03  0.13151619221E+03  0.00000000000E+00 0.  1.
          1   -1    0    0  501    0  0.00000000000E+00 -0.00000000000E+00 -0.10357482226E+03  0.10357482226E+03  0.00000000000E+00 0. -1.
         23    2    1    2    0    0 -0.22887790130E+02 -0.39255391721E+01  0.52878922707E+02  0.13768606084E+03  0.12498803978E+03 0.  0.
          5    1    3    3  502    0 -0.17026878260E+02 -0.58217437320E+02  0.56230913546E+02  0.82816499743E+02  0.41800000000E+01 0. -1.
         -5    1    3    3    0  502 -0.58609118701E+01  0.54291898148E+02 -0.33519908394E+01  0.54869561097E+02  0.41800000000E+01 0. -1.
        -11    1    1    2    0    0 -0.30339857914E+02  0.14913306003E+02  0.67755970722E+01  0.34479303790E+02  0.00000000000E+00 0.  1.
         11    1    1    2    0    0  0.53227648044E+02 -0.10987766831E+02 -0.31713149828E+02  0.62925649844E+02  0.00000000000E+00 0. -1.
</event>
<event>
 7    1  0.5109948E-006  0.7818965E+02  0.7561462E-02  0.1334269E+00
          2   -1    0    0  501    0  0.00000000000E+00  0.00000000000E+00  0.15002396712E+03  0.15002396712E+03  0.00000000000E+00 0.  1.
         -2   -1    0    0    0  501 -0.00000000000E+00 -0.00000000000E+00 -0.92727617205E+02  0.92727617205E+02  0.00000000000E+00 0. -1.
         23    2    1    2    0    0  0.50593641264E+02  0.34110158104E+02  0.85847075854E+01  0.13942981749E+03  0.12507500701E+03 0.  0.
          5    1    3    3  502    0  0.45779586084E+02  0.55575218502E+02  0.53125188586E+02  0.89577527740E+02  0.41800000000E+01 0.  1.
         -5    1    3    3    0  502  0.48140551794E+01 -0.21465060398E+02 -0.44540481001E+02  0.49852289746E+02  0.41800000000E+01 0.  1.
        -11    1    1    2    0    0 -0.10621626126E+02 -0.12571586018E+02  0.55066731485E+02  0.57473547246E+02  0.00000000000E+00 0.  1.
         11    1    1    2    0    0 -0.39972015137E+02 -0.21538572086E+02 -0.63550891556E+01  0.45848219593E+02  0.00000000000E+00 0. -1.
</event>
<event>
 7    1  0.5109948E-006  0.1104421E+03  0.7561462E-02  0.1259753E+00
          1   -1    0    0  501    0  0.00000000000E+00  0.00000000000E+00  0.47092303585E+03  0.47092303585E+03  0.00000000000E+00 0. -1.
         -1   -1    0    0    0  501 -0.00000000000E+00 -0.00000000000E+00 -0.38673644261E+02  0.38673644261E+02  0.00000000000E+00 0.  1.
         23    2    1    2    0    0  0.23413697806E+02  0.71160699562E+02  0.16688263011E+03  0.22160781035E+03  0.12509261756E+03 0.  0.
          5    1    3    3  502    0  0.43119707045E+02  0.84186733345E+02  0.60054350010E+02  0.11211918909E+03  0.41800000000E+01 0. -1.
         -5    1    3    3    0  502 -0.19706009239E+02 -0.13026033783E+02  0.10682828010E+03  0.10948862126E+03  0.41800000000E+01 0. -1.
        -11    1    1    2    0    0  0.10040595323E+02 -0.67860269987E+02  0.22620312571E+03  0.23637614913E+03  0.00000000000E+00 0. -1.
         11    1    1    2    0    0 -0.33454293129E+02 -0.33004295753E+01  0.39163635768E+02  0.51612720629E+02  0.00000000000E+00 0.  1.
</event>
<event>
 7    1  0.5109948E-006  0.1648793E+03  0.7561462E-02  0.1183296E+00
          2   -1    0    0  501    0  0.00000000000E+00  0.00000000000E+00  0.96340823434E+03  0.96340823434E+03  0.00000000000E+00 0.  1.
         -2   -1    0    0    0  501 -0.00000000000E+00 -0.00000000000E+00 -0.35142072550E+02  0.35142072550E+02  0.00000000000E+00 0. -1.
         23    2    1    2    0    0  0.98238364143E+02  0.11108990584E+03  0.49438035048E+03  0.53108438747E+03  0.12508777839E+03 0.  0.
          5    1    3    3  502    0  0.44021209924E+02 -0.34319145693E+01  0.41307315632E+02  0.60608676652E+02  0.41800000000E+01 0. -1.
         -5    1    3    3    0  502  0.54217154219E+02  0.11452182041E+03  0.45307303485E+03  0.47047571082E+03  0.41800000000E+01 0. -1.
        -11    1    1    2    0    0 -0.46240623350E+01 -0.42068679715E+02  0.45952432357E+02  0.62472248279E+02  0.00000000000E+00 0. -1.
         11    1    1    2    0    0 -0.93614301808E+02 -0.69021226128E+02  0.38793337894E+03  0.40499367113E+03  0.00000000000E+00 0.  1.
</event>
<event>
 7    1  0.5109948E-006  0.1030581E+03  0.7561462E-02  0.1273993E+00
         -1   -1    0    0    0  501 -0.00000000000E+00  0.00000000000E+00  0.15230586028E+03  0.15230586028E+03  0.00000000000E+00 0.  1.
          1   -1    0    0  501    0  0.00000000000E+00 -0.00000000000E+00 -0.10065089160E+03  0.10065089160E+03  0.00000000000E+00 0. -1.
         23    2    1    2    0    0 -0.46568135265E+01 -0.21950019711E+02  0.97571794461E+02  0.16022275641E+03  0.12509031665E+03 0.  0.
          5    1    3    3  502    0 -0.49279743173E+02 -0.52142872767E+02  0.66351273726E+02  0.97812760889E+02  0.41800000000E+01 0.  1.
         -5    1    3    3    0  502  0.44622929646E+02  0.30192853056E+02  0.31220520735E+02  0.62409995520E+02  0.41800000000E+01 0.  1.
        -11    1    1    2    0    0  0.16337649615E+02  0.48513946729E+02 -0.33448989801E+02  0.61150279974E+02  0.00000000000E+00 0. -1.
         11    1    1    2    0    0 -0.11680836089E+02 -0.26563927018E+02 -0.12467835982E+02  0.31583715494E+02  0.00000000000E+00 0.  1.
</event>
<event>
 7    1  0.5109948E-006  0.1421041E+03  0.7561462E-02  0.1210525E+00
         -2   -1    0    0    0  501 -0.00000000000E+00  0.00000000000E+00  0.99888298890E+02  0.99888298890E+02  0.00000000000E+00 0.  1.
          2   -1    0    0  501    0  0.00000000000E+00 -0.00000000000E+00 -0.29396779058E+03  0.29396779058E+03  0.00000000000E+00 0. -1.
         23    2    1    2    0    0  0.90325519041E+02  0.93204022268E+02 -0.12983833524E+03  0.22215058290E+03  0.12508876459E+03 0.  0.
          5    1    3    3  502    0  0.70512582937E+02  0.70342377873E+02 -0.15383525962E+03  0.18331075795E+03  0.41800000000E+01 0. -1.
         -5    1    3    3    0  502  0.19812936104E+02  0.22861644395E+02  0.23996924389E+02  0.38839824944E+02  0.41800000000E+01 0. -1.
        -11    1    1    2    0    0 -0.17418352855E+02  0.15349701306E+02  0.49872485069E+01  0.23746262739E+02  0.00000000000E+00 0.  1.
         11    1    1    2    0    0 -0.72907166186E+02 -0.10855372357E+03 -0.69228404963E+02  0.14795924384E+03  0.00000000000E+00 0. -1.
</event>
<event>
 7    1  0.5109948E-006  0.1199282E+03  0.7561462E-02  0.1243215E+00
         -2   -1    0    0    0  501 -0.00000000000E+00  0.00000000000E+00  0.38160024885E+02  0.38160024885E+02  0.00000000000E+00 0.  1.
          2   -1    0    0  501    0  0.00000000000E+00 -0.00000000000E+00 -0.44382801045E+03  0.44382801045E+03  0.00000000000E+00 0. -1.
         23    2    1    2    0    0  0.42469739416E+02 -0.41725953459E+02 -0.15056516646E+03  0.20460247458E+03  0.12509024461E+03 0.  0.
          5    1    3    3  502    0  0.82563399683E+02 -0.53804426567E+01 -0.76374892105E+02  0.11267768490E+03  0.41800000000E+01 0.  1.
         -5    1    3    3    0  502 -0.40093660267E+02 -0.36345510802E+02 -0.74190274353E+02  0.91924789680E+02  0.41800000000E+01 0.  1.
        -11    1    1    2    0    0 -0.20964926736E+02 -0.25001652413E+02 -0.12944121149E+03  0.13349021690E+03  0.00000000000E+00 0.  1.
         11    1    1    2    0    0 -0.21504812679E+02  0.66727605871E+02 -0.12566160762E+03  0.14389534386E+03  0.00000000000E+00 0. -1.
</event>
<event>
 7    1  0.5109948E-006  0.1131424E+03  0.7561462E-02  0.1254859E+00
         -1   -1    0    0    0  501 -0.00000000000E+00  0.00000000000E+00  0.70293770664E+02  0.70293770664E+02  0.00000000000E+00 0.  1.
          1   -1    0    0  501    0  0.00000000000E+00 -0.00000000000E+00 -0.29581884749E+03  0.29581884749E+03  0.00000000000E+00 0. -1.
         23    2    1    2    0    0  0.38622506063E+02 -0.73346451883E+02 -0.68580118242E+02  0.16499735293E+03  0.12509793714E+03 0.  0.
          5    1    3    3  502    0  0.33576843194E+02  0.22336689570E+02 -0.54705360982E+02  0.68091710362E+02  0.41800000000E+01 0.  1.
         -5    1    3    3    0  502  0.50456628684E+01 -0.95683141453E+02 -0.13874757260E+02  0.96905642566E+02  0.41800000000E+01 0.  1.
        -11    1    1    2    0    0 -0.23922440897E+02  0.12024469460E+02  0.50795691290E+01  0.27252028673E+02  0.00000000000E+00 0.  1.
         11    1    1    2    0    0 -0.14700065166E+02  0.61321982422E+02 -0.16202452771E+03  0.17386323655E+03  0.00000000000E+00 0. -1.
</event>
<event>
 7    1  0.5109948E-006  0.9352338E+02  0.7561462E-02  0.1294537E+00
          4   -1    0    0  501    0  0.00000000000E+00  0.00000000000E+00  0.76777192486E+02  0.76777192486E+02  0.00000000000E+00 0. -1.
         -4   -1    0    0    0  501 -0.00000000000E+00 -0.00000000000E+00 -0.17822077163E+03  0.17822077163E+03  0.00000000000E+00 0.  1.
         23    2    1    2    0    0 -0.31472516116E+02 -0.20536157014E+02 -0.71987384964E+02  0.14913810510E+03  0.12509091807E+03 0.  0.
          5    1    3    3  502    0 -0.64867904738E+02  0.57916115788E+01 -0.82444093242E+02  0.10514698636E+03  0.41800000000E+01 0.  1.
         -5    1    3    3    0  502  0.33395388622E+02 -0.26327768593E+02  0.10456708277E+02  0.43991118744E+02  0.41800000000E+01 0.  1.
        -11    1    1    2    0    0  0.52777538660E+02  0.56778348948E+01  0.14300358121E+02  0.54974599939E+02  0.00000000000E+00 0. -1.
         11    1    1    2    0    0 -0.21305022544E+02  0.14858322120E+02 -0.43756552300E+02  0.50885259074E+02  0.00000000000E+00 0.  1.
</event>
<event>
 7    1  0.5109948E-006  0.9975132E+02  0.7561462E-02  0.1280820E+00
         -1   -1    0    0    0  501 -0.00000000000E+00  0.00000000000E+00  0.35909834548E+02  0.35909834548E+02  0.00000000000E+00 0.  1.
          1   -1    0    0  501    0  0.00000000000E+00 -0.00000000000E+00 -0.44063282004E+03  0.44063282004E+03  0.00000000000E+00 0. -1.
         23    2    1    2    0    0  0.23071458180E+02 -0.55401673440E+02 -0.18671740545E+03  0.23262231917E+03  0.12509243094E+03 0.  0.
          5    1    3    3  502    0 -0.34271440364E+02 -0.57794816731E+02 -0.48702714397E+02  0.83091511331E+02  0.41800000000E+01 0.  1.
         -5    1    3    3    0  502  0.57342898545E+02  0.23931432909E+01 -0.13801469105E+03  0.14953080784E+03  0.41800000000E+01 0.  1.
        -11    1    1    2    0    0  0.94887420184E+01  0.34881182075E+02 -0.19657058318E+03  0.19986677377E+03  0.00000000000E+00 0. -1.
         11    1    1    2    0    0 -0.32560200199E+02  0.20520491365E+02 -0.21434996874E+02  0.44053561648E+02  0.00000000000E+00 0.  1.
</event>
<event>
 7    1  0.5109948E-006  0.1198028E+03  0.7561462E-02  0.1243423E+00
          1   -1    0    0  501    0  0.00000000000E+00  0.00000000000E+00  0.36491234208E+03  0.36491234208E+03  0.00000000000E+00 0. -1.
         -1   -1    0    0    0  501 -0.00000000000E+00 -0.00000000000E+00 -0.45696077322E+02  0.45696077322E+02  0.00000000000E+00 0.  1.
         23    2    1    2    0    0 -0.63919321393E+02  0.30182151429E+02  0.20001201898E+03  0.24626987378E+03  0.12508957224E+03 0.  0.
          5    1    3    3  502    0 -0.53821000563E+02  0.77149139065E+02  0.14734009170E+03  0.17485784164E+03  0.41800000000E+01 0. -1.
         -5    1    3    3    0  502 -0.10098320830E+02 -0.46966987636E+02  0.52671927281E+02  0.71412032142E+02  0.41800000000E+01 0. -1.
        -11    1    1    2    0    0  0.46419919397E+02 -0.51704323601E+02  0.39460090913E+02  0.79907726603E+02  0.00000000000E+00 0. -1.
         11    1    1    2    0    0  0.17499401996E+02  0.21522172172E+02  0.79744154863E+02  0.84430819018E+02  0.00000000000E+00 0.  1.
</event>
<event>
 7    1  0.5109948E-006  0.1416726E+03  0.7561462E-02  0.1211096E+00
         -2   -1    0    0    0  501 -0.00000000000E+00  0.00000000000E+00  0.99199833572E+02  0.99199833572E+02  0.00000000000E+00 0.  1.
          2   -1    0    0  501    0  0.00000000000E+00 -0.00000000000E+00 -0.25698175661E+03  0.25698175661E+03  0.00000000000E+00 0. -1.
         23    2    1    2    0    0  0.15055314952E+02  0.91860275234E+02 -0.56150414280E+01  0.15602698033E+03  0.12509163532E+03 0.  0.
          5    1    3    3  502    0 -0.25575786517E+02  0.10869870577E+03 -0.41911638950E+01  0.11182382460E+03  0.41800000000E+01 0. -1.
         -5    1    3    3    0  502  0.40631101469E+02 -0.16838430537E+02 -0.14238775330E+01  0.44203155733E+02  0.41800000000E+01 0. -1.
        -11    1    1    2    0    0 -0.51310375929E+02 -0.45596540394E+02 -0.61855994290E+02  0.92401099579E+02  0.00000000000E+00 0.  1.
         11    1    1    2    0    0  0.36255060977E+02 -0.46263734841E+02 -0.90310887317E+02  0.10775351027E+03  0.00000000000E+00 0. -1.
</event>
<event>
 7    1  0.5109948E-006  0.9372677E+02  0.7561462E-02  0.1294070E+00
          1   -1    0    0  501    0  0.00000000000E+00  0.00000000000E+00  0.10724012739E+03  0.10724012739E+03  0.00000000000E+00 0.  1.
         -1   -1    0    0    0  501 -0.00000000000E+00 -0.00000000000E+00 -0.15534792413E+03  0.15534792413E+03  0.00000000000E+00 0. -1.
         23    2    1    2    0    0 -0.63728864463E+01  0.45849798584E+02 -0.81162638089E+02  0.15613337822E+03  0.12508972884E+03 0.  0.
          5    1    3    3  502    0  0.13250513949E+01  0.76984081423E+02 -0.97307305608E+01  0.77720422483E+02  0.41800000000E+01 0.  1.
         -5    1    3    3    0  502 -0.76979378412E+01 -0.31134282839E+02 -0.71431907528E+02  0.78412955741E+02  0.41800000000E+01 0.  1.
        -11    1    1    2    0    0 -0.20638773333E+02 -0.46614501201E+02 -0.13401121156E+02  0.52711106374E+02  0.00000000000E+00 0. -1.
         11    1    1    2    0    0  0.27011659780E+02  0.76470261767E+00  0.46455962505E+02  0.53743566931E+02  0.00000000000E+00 0.  1.
</event>
<event>
 7    1  0.5109948E-006  0.1229637E+03  0.7561462E-02  0.1238286E+00
          1   -1    0    0  501    0  0.00000000000E+00  0.00000000000E+00  0.38043194617E+03  0.38043194617E+03  0.00000000000E+00 0. -1.
         -1   -1    0    0    0  501 -0.00000000000E+00 -0.00000000000E+00 -0.56994109829E+02  0.56994109829E+02  0.00000000000E+00 0.  1.
         23    2    1    2    0    0 -0.28859052693E+02  0.70865907767E+02  0.82389667441E+02  0.16819639954E+03  0.12508856747E+03 0.  0.
          5    1    3    3  502    0 -0.33986552549E+02 -0.17171033457E+02  0.68974363300E+02  0.78897815793E+02  0.41800000000E+01 0.  1.
         -5    1    3    3    0  502  0.51274998565E+01  0.88036941224E+02  0.13415304141E+02  0.89298583751E+02  0.41800000000E+01 0.  1.
        -11    1    1    2    0    0 -0.33562132731E+02 -0.23309698550E+02  0.70322263949E+02  0.81332524902E+02  0.00000000000E+00 0.  1.
         11    1    1    2    0    0  0.62421185423E+02 -0.47556209216E+02  0.17072590495E+03  0.18789713155E+03  0.00000000000E+00 0. -1.
</event>
<event>
 7    1  0.5109948E-006  0.4424596E+03  0.7561462E-02  0.1029995E+00
         -1   -1    0    0    0  501 -0.00000000000E+00  0.00000000000E+00  0.21687707872E+04  0.21687707872E+04  0.00000000000E+00 0.  1.
          1   -1    0    0  501    0  0.00000000000E+00 -0.00000000000E+00 -0.92847365023E+02  0.92847365023E+02  0.00000000000E+00 0. -1.
         23    2    1    2    0    0 -0.18804773613E+03 -0.39073480590E+03  0.11456050726E+04  0.12312989939E+04  0.12510231989E+03 0.  0.
          5    1    3    3  502    0 -0.10701670936E+03 -0.31577785987E+03  0.94774549622E+03  0.10046926052E+04  0.41800000000E+01 0.  1.
         -5    1    3    3    0  502 -0.81031026771E+02 -0.74956946029E+02  0.19785957640E+03  0.22660638877E+03  0.41800000000E+01 0.  1.
        -11    1    1    2    0    0  0.40952214764E+02  0.17616638126E+03  0.42762452334E+03  0.46429991464E+03  0.00000000000E+00 0. -1.
         11    1    1    2    0    0  0.14709552136E+03  0.21456842465E+03  0.50269382623E+03  0.56601924366E+03  0.00000000000E+00 0.  1.
</event>
<event>
 7    1  0.5109948E-006  0.1064304E+03  0.7561462E-02  0.1267327E+00
          2   -1    0    0  501    0  0.00000000000E+00  0.00000000000E+00  0.83213715387E+03  0.83213715387E+03  0.00000000000E+00 0.  1.
         -2   -1    0    0    0  501 -0.00000000000E+00 -0.00000000000E+00 -0.26427722747E+02  0.26427722747E+02  0.00000000000E+00 0. -1.
         23    2    1    2    0    0  0.23247386846E+02  0.82289222707E+02  0.28881278528E+03  0.32614646957E+03  0.12508691980E+03 0.  0.
          5    1    3    3  502    0 -0.15344209530E+02  0.38595930587E+02  0.25547157544E+03  0.25885959299E+03  0.41800000000E+01 0.  1.
         -5    1    3    3    0  502  0.38591596377E+02  0.43693292120E+02  0.33341209838E+02  0.67286876586E+02  0.41800000000E+01 0.  1.
        -11    1    1    2    0    0 -0.29039055372E+02 -0.94658738277E+02  0.50399951764E+03  0.51363319329E+03  0.00000000000E+00 0.  1.
         11    1    1    2    0    0  0.57916685255E+01  0.12369515570E+02  0.12897128197E+02  0.18785213746E+02  0.00000000000E+00 0. -1.
</event>
<event>
 7    1  0.5109948E-006  0.1274001E+03  0.7561462E-02  0.1231365E+00
          1   -1    0    0  501    0  0.00000000000E+00  0.00000000000E+00  0.12682843090E+04  0.12682843090E+04  0.00000000000E+00 0. -1.
         -1   -1    0    0    0  501 -0.00000000000E+00 -0.00000000000E+00 -0.17647621193E+02  0.17647621193E+02  0.00000000000E+00 0.  1.
         23    2    1    2    0    0 -0.49724992818E+02 -0.87361404958E+02  0.60468067631E+03  0.62561330352E+03  0.12509474510E+03 0.  0.
          5    1    3    3  502    0 -0.61620592765E+02 -0.89245066153E+02  0.60307598525E+03  0.61276414359E+03  0.41800000000E+01 0.  1.
         -5    1    3    3    0  502  0.11895599948E+02  0.18836611945E+01  0.16046910661E+01  0.12849159935E+02  0.41800000000E+01 0.  1.
        -11    1    1    2    0    0  0.63398984585E+02  0.97636946404E+02  0.60198208239E+03  0.61313524778E+03  0.00000000000E+00 0.  1.
         11    1    1    2    0    0 -0.13673991767E+02 -0.10275541445E+02  0.43973929110E+02  0.47183378897E+02  0.00000000000E+00 0. -1.
</event>
<event>
 7    1  0.5109948E-006  0.1039268E+03  0.7561462E-02  0.1272249E+00
         -2   -1    0    0    0  501 -0.00000000000E+00  0.00000000000E+00  0.33240203072E+02  0.33240203072E+02  0.00000000000E+00 0.  1.
          2   -1    0    0  501    0  0.00000000000E+00 -0.00000000000E+00 -0.47136183104E+03  0.47136183104E+03  0.00000000000E+00 0. -1.
         23    2    1    2    0    0 -0.26397430221E+02 -0.18372110360E+02 -0.13582494321E+03  0.18743229869E+03  0.12509233643E+03 0.  0.
          5    1    3    3  502    0  0.47811629891E+01 -0.66487904362E+02 -0.47159735164E+02  0.81761934705E+02  0.41800000000E+01 0. -1.
         -5    1    3    3    0  502 -0.31178593210E+02  0.48115794002E+02 -0.88665208046E+02  0.10567036399E+03  0.41800000000E+01 0. -1.
        -11    1    1    2    0    0  0.32007939114E+02 -0.24519121676E+02 -0.22507574054E+03  0.22865866368E+03  0.00000000000E+00 0. -1.
         11    1    1    2    0    0 -0.56105088930E+01  0.42891232036E+02 -0.77220944219E+02  0.88511071746E+02  0.00000000000E+00 0.  1.
</event>
<event>
 7    1  0.5109948E-006  0.1085089E+03  0.7561462E-02  0.1263356E+00
         -2   -1    0    0    0  501 -0.00000000000E+00  0.00000000000E+00  0.39181680628E+03  0.39181680628E+03  0.00000000000E+00 0.  1.
          2   -1    0    0  501    0  0.00000000000E+00 -0.00000000000E+00 -0.35223985852E+02  0.35223985852E+02  0.00000000000E+00 0. -1.
         23    2    1    2    0    0  0.92242609655E+00  0.35814215251E+02  0.25154529284E+03  0.28320819474E+03  0.12509331850E+03 0.  0.
          5    1    3    3  502    0  0.24250613353E+02 -0.41280941164E+02  0.11471622745E+03  0.12437641895E+03  0.41800000000E+01 0. -1.
         -5    1    3    3    0  502 -0.23328187257E+02  0.77095156415E+02  0.13682906539E+03  0.15883177578E+03  0.41800000000E+01 0. -1.
        -11    1    1    2    0    0 -0.16868182016E+02 -0.58325825583E+02  0.98124864642E+02  0.11539032263E+03  0.00000000000E+00 0.  1.
         11    1    1    2    0    0  0.15945755919E+02  0.22511610332E+02  0.69226629428E+01  0.28442274765E+02  0.00000000000E+00 0. -1.
</event>
<event>
 7    1  0.5109948E-006  0.1025521E+03  0.7561462E-02  0.1275019E+00
         -1   -1    0    0    0  501 -0.00000000000E+00  0.00000000000E+00  0.42893202023E+02  0.42893202023E+02  0.00000000000E+00 0.  1.
          1   -1    0    0  501    0  0.00000000000E+00 -0.00000000000E+00 -0.44007627065E+03  0.44007627065E+03  0.00000000000E+00 0. -1.
         23    2    1    2    0    0  0.24309033499E+02 -0.32269748265E-01 -0.76341460297E+02  0.14855834192E+03  0.12510248695E+03 0.  0.
          5    1    3    3  502    0  0.19776750914E+02  0.53903163551E+02 -0.34489703844E+01  0.57671819065E+02  0.41800000000E+01 0. -1.
         -5    1    3    3    0  502  0.45322825849E+01 -0.53935433300E+02 -0.72892489912E+02  0.90886522853E+02  0.41800000000E+01 0. -1.
        -11    1    1    2    0    0  0.40426509789E+01  0.42223566041E+02 -0.17099450705E+03  0.17617688270E+03  0.00000000000E+00 0. -1.
         11    1    1    2    0    0 -0.28351684478E+02 -0.42191296293E+02 -0.14984710128E+03  0.15823424806E+03  0.00000000000E+00 0.  1.
</event>
<event>
 7    1  0.5109948E-006  0.1215436E+03  0.7561462E-02  0.1240572E+00
          4   -1    0    0  501    0  0.00000000000E+00  0.00000000000E+00  0.73591024305E+02  0.73591024305E+02  0.00000000000E+00 0. -1.
         -4   -1    0    0    0  501 -0.00000000000E+00 -0.00000000000E+00 -0.29726122421E+03  0.29726122421E+03  0.00000000000E+00 0.  1.
         23    2    1    2    0    0 -0.44523060875E+02  0.64059341262E+02 -0.21235625284E+03  0.25524905703E+03  0.11819898833E+03 0.  0.
          5    1    3    3  502    0 -0.53033520343E+01 -0.27709956772E+02 -0.10416449997E+03  0.10799853101E+03  0.41800000000E+01 0. -1.
         -5    1    3    3    0  502 -0.39219708841E+02  0.91769298034E+02 -0.10819175287E+03  0.14725052602E+03  0.41800000000E+01 0.  1.
        -11    1    1    2    0    0  0.46448195825E+02  0.39755632383E+01 -0.67056609487E-01  0.46618070478E+02  0.00000000000E+00 0.  1.
         11    1    1    2    0    0 -0.19251349497E+01 -0.68034904500E+02 -0.11246890450E+02  0.68985121002E+02  0.00000000000E+00 0. -1.
</event>
<event>
 7    1  0.5109948E-006  0.2122057E+03  0.7561462E-02  0.1139831E+00
          1   -1    0    0  501    0  0.00000000000E+00  0.00000000000E+00  0.12788014359E+04  0.12788014359E+04  0.00000000000E+00 0. -1.
         -1   -1    0    0    0  501 -0.00000000000E+00 -0.00000000000E+00 -0.40676828078E+02  0.40676828078E+02  0.00000000000E+00 0.  1.
         23    2    1    2    0    0  0.31684932110E+02 -0.19572642033E+03  0.57510735697E+03  0.62105439642E+03  0.12508926707E+03 0.  0.
          5    1    3    3  502    0 -0.23674358428E+02 -0.26248829383E+01  0.22416151420E+02  0.32974558403E+02  0.41800000000E+01 0.  1.
         -5    1    3    3    0  502  0.55359290538E+02 -0.19310153739E+03  0.55269120555E+03  0.58807983802E+03  0.41800000000E+01 0.  1.
        -11    1    1    2    0    0 -0.33960875612E+02  0.16307881434E+03  0.63108603506E+03  0.65270025617E+03  0.00000000000E+00 0. -1.
         11    1    1    2    0    0  0.22759435019E+01  0.32647605983E+02  0.31931215758E+02  0.45723611352E+02  0.00000000000E+00 0.  1.
</event>
<event>
 7    1  0.5109948E-006  0.1229919E+03  0.7561462E-02  0.1238241E+00
          1   -1    0    0  501    0  0.00000000000E+00  0.00000000000E+00  0.42703132304E+03  0.42703132304E+03  0.00000000000E+00 0. -1.
         -1   -1    0    0    0  501 -0.00000000000E+00 -0.00000000000E+00 -0.51787644048E+02  0.51787644048E+02  0.00000000000E+00 0.  1.
         23    2    1    2    0    0 -0.22114125441E+01 -0.92746551605E+02  0.13966655250E+03  0.20919406905E+03  0.12509436223E+03 0.  0.
          5    1    3    3  502    0  0.28037818584E+02 -0.13299869095E+02  0.11699538816E+03  0.12111316626E+03  0.41800000000E+01 0.  1.
         -5    1    3    3    0  502 -0.30249231128E+02 -0.79446682510E+02  0.22671164332E+02  0.88080902798E+02  0.41800000000E+01 0.  1.
        -11    1    1    2    0    0  0.36542191927E+01  0.11109385625E+03  0.21489333664E+03  0.24193872023E+03  0.00000000000E+00 0. -1.
         11    1    1    2    0    0 -0.14428066486E+01 -0.18347304641E+02  0.20683789855E+02  0.27686177804E+02  0.00000000000E+00 0.  1.
</event>
<event>
 7    1  0.5109948E-006  0.9414709E+02  0.7561462E-02  0.1293109E+00
         -2   -1    0    0    0  501 -0.00000000000E+00  0.00000000000E+00  0.17190249701E+03  0.17190249701E+03  0.00000000000E+00 0. -1.
          2   -1    0    0  501    0  0.00000000000E+00 -0.00000000000E+00 -0.68578482421E+02  0.68578482421E+02  0.00000000000E+00 0.  1.
         23    2    1    2    0    0 -0.48777117350E+01 -0.10846064552E+02  0.64809375788E+02  0.14138467620E+03  0.12509173548E+03 0.  0.
          5    1    3    3  502    0  0.45906595358E+02 -0.76825536505E+01 -0.12831541347E+02  0.48461923005E+02  0.41800000000E+01 0. -1.
         -5    1    3    3    0  502 -0.50784307093E+02 -0.31635109020E+01  0.77640917135E+02  0.92922753197E+02  0.41800000000E+01 0. -1.
        -11    1    1    2    0    0 -0.31252673638E+01  0.50225833760E+02  0.27872193379E+02  0.57526175231E+02  0.00000000000E+00 0.  1.
         11    1    1    2    0    0  0.80029790988E+01 -0.39379769208E+02  0.10642445424E+02  0.41570128000E+02  0.00000000000E+00 0. -1.
</event>
<event>
 7    1  0.5109948E-006  0.9272796E+02  0.7561462E-02  0.1296377E+00
         -2   -1    0    0    0  501 -0.00000000000E+00  0.00000000000E+00  0.48111693458E+02  0.48111693458E+02  0.00000000000E+00 0.  1.
          2   -1    0    0  501    0  0.00000000000E+00 -0.00000000000E+00 -0.33352224803E+03  0.33352224803E+03  0.00000000000E+00 0. -1.
         23    2    1    2    0    0 -0.65857158452E+02  0.58084111581E+01 -0.12084836622E+03  0.18233780221E+03  0.11946482135E+03 0.  0.
          5    1    3    3  502    0 -0.54956382985E+02  0.19702811294E+02 -0.14252007394E+03  0.15407092094E+03  0.41800000000E+01 0. -1.
         -5    1    3    3    0  502 -0.10900775467E+02 -0.13894400136E+02  0.21671707726E+02  0.28266881270E+02  0.41800000000E+01 0.  1.
        -11    1    1    2    0    0  0.74905547280E+02 -0.31709402070E+02 -0.14253698036E+03  0.16411312551E+03  0.00000000000E+00 0. -1.
         11    1    1    2    0    0 -0.90483888275E+01  0.25900990912E+02 -0.22025207990E+02  0.35183013765E+02  0.00000000000E+00 0.  1.
</event>
<event>
 7    1  0.5109948E-006  0.1541043E+03  0.7561462E-02  0.1195518E+00
         -2   -1    0    0    0  501 -0.00000000000E+00  0.00000000000E+00  0.31900019725E+03  0.31900019725E+03  0.00000000000E+00 0.  1.
          2   -1    0    0  501    0  0.00000000000E+00 -0.00000000000E+00 -0.81069178909E+02  0.81069178909E+02  0.00000000000E+00 0. -1.
         23    2    1    2    0    0 -0.10834919383E+03  0.20216158319E+02  0.18125841418E+03  0.24627652343E+03  0.12509705200E+03 0.  0.
          5    1    3    3  502    0  0.10737240834E+02 -0.33757173459E+02  0.44442782535E+02  0.56986563505E+02  0.41800000000E+01 0. -1.
         -5    1    3    3    0  502 -0.11908643466E+03  0.53973331778E+02  0.13681563165E+03  0.18928995992E+03  0.41800000000E+01 0. -1.
        -11    1    1    2    0    0  0.41158135064E+02 -0.52885090261E+02  0.36932649731E+02  0.76516961975E+02  0.00000000000E+00 0.  1.
         11    1    1    2    0    0  0.67191058762E+02  0.32668931942E+02  0.19739954428E+02  0.77275890759E+02  0.00000000000E+00 0. -1.
</event>
<event>
 7    1  0.5109948E-006  0.8323880E+02  0.7561462E-02  0.1320104E+00
         -2   -1    0    0    0  501 -0.00000000000E+00  0.00000000000E+00  0.46026505173E+02  0.46026505173E+02  0.00000000000E+00 0.  1.
          2   -1    0    0  501    0  0.00000000000E+00 -0.00000000000E+00 -0.27562028597E+03  0.27562028597E+03  0.00000000000E+00 0. -1.
         23    2    1    2    0    0 -0.22049361825E+02  0.13834019231E+02 -0.97939323302E+02  0.16098939802E+03  0.12509164953E+03 0.  0.
          5    1    3    3  502    0  0.28991555757E+02 -0.17009555948E+02 -0.95308860399E+02  0.10114883375E+03  0.41800000000E+01 0. -1.
         -5    1    3    3    0  502 -0.51040917581E+02  0.30843575179E+02 -0.26304629030E+01  0.59840564272E+02  0.41800000000E+01 0. -1.
        -11    1    1    2    0    0  0.24575377912E+02 -0.39777484425E+02 -0.12542564803E+03  0.13385735187E+03  0.00000000000E+00 0. -1.
         11    1    1    2    0    0 -0.25260160873E+01  0.25943465194E+02 -0.62288094666E+01  0.26800041248E+02  0.00000000000E+00 0.  1.
</event>
<event>
 7    1  0.5109948E-006  0.1087172E+03  0.7561462E-02  0.1262964E+00
         -1   -1    0    0    0  501 -0.00000000000E+00  0.00000000000E+00  0.53784871643E+02  0.53784871643E+02  0.00000000000E+00 0.  1.
          1   -1    0    0  501    0  0.00000000000E+00 -0.00000000000E+00 -0.29241744849E+03  0.29241744849E+03  0.00000000000E+00 0. -1.
         23    2    1    2    0    0 -0.18682367732E+02  0.36734956006E+02 -0.66382025038E+02  0.14748582741E+03  0.12508800176E+03 0.  0.
          5    1    3    3  502    0  0.42396218810E+01 -0.41199225276E+02 -0.49021545938E+02  0.64311234813E+02  0.41800000000E+01 0.  1.
         -5    1    3    3    0  502 -0.22921989613E+02  0.77934181282E+02 -0.17360479100E+02  0.83174592602E+02  0.41800000000E+01 0.  1.
        -11    1    1    2    0    0  0.27793754579E+02 -0.61817527726E+02 -0.14746579196E+03  0.16229620860E+03  0.00000000000E+00 0.  1.
         11    1    1    2    0    0 -0.91113868469E+01  0.25082571720E+02 -0.24784759847E+02  0.36420284115E+02  0.00000000000E+00 0. -1.
</event>
<event>
 7    1  0.5109948E-006  0.8774157E+02  0.7561462E-02  0.1308415E+00
         -2   -1    0    0    0  501 -0.00000000000E+00  0.00000000000E+00  0.20988962631E+03  0.20988962631E+03  0.00000000000E+00 0.  1.
          2   -1    0    0  501    0  0.00000000000E+00 -0.00000000000E+00 -0.66988794242E+02  0.66988794242E+02  0.00000000000E+00 0. -1.
         23    2    1    2    0    0  0.56520647003E+01  0.36117563163E+02  0.11945518792E+03  0.17678699089E+03  0.12509066322E+03 0.  0.
          5    1    3    3  502    0  0.34558078620E+02  0.35231505023E+02  0.13492246690E+03  0.14372565609E+03  0.41800000000E+01 0.  1.
         -5    1    3    3    0  502 -0.28906013920E+02  0.88605813954E+00 -0.15467278985E+02  0.33061334803E+02  0.41800000000E+01 0.  1.
        -11    1    1    2    0    0 -0.19504423820E+02  0.26331457711E+02  0.13115867424E+02  0.35295809836E+02  0.00000000000E+00 0.  1.
         11    1    1    2    0    0  0.13852359120E+02 -0.62449020873E+02  0.10329776732E+02  0.64795619825E+02  0.00000000000E+00 0. -1.
</event>
<event>
 7    1  0.5109948E-006  0.1496155E+03  0.7561462E-02  0.1200946E+00
         -2   -1    0    0    0  501 -0.00000000000E+00  0.00000000000E+00  0.14205855609E+03  0.14205855609E+03  0.00000000000E+00 0.  1.
          2   -1    0    0  501    0  0.00000000000E+00 -0.00000000000E+00 -0.20347943566E+03  0.20347943566E+03  0.00000000000E+00 0. -1.
         23    2    1    2    0    0 -0.12137931395E+03 -0.13177478984E+02  0.14790476844E+02  0.17542074792E+03  0.12508835593E+03 0.  0.
          5    1    3    3  502    0 -0.17302760692E+02 -0.36315620527E+02 -0.38776816742E+02  0.56029668377E+02  0.41800000000E+01 0.  1.
         -5    1    3    3    0  502 -0.10407655326E+03  0.23138141543E+02  0.53567293586E+02  0.11939107954E+03  0.41800000000E+01 0.  1.
        -11    1    1    2    0    0  0.42392005350E+02  0.49481181004E+02 -0.33188274503E+02  0.73122711627E+02  0.00000000000E+00 0.  1.
         11    1    1    2    0    0  0.78987308600E+02 -0.36303702020E+02 -0.43023081917E+02  0.96994532206E+02  0.00000000000E+00 0. -1.
</event>
<event>
 7    1  0.5109948E-006  0.6489386E+02  0.7561462E-02  0.1378371E+00
         -2   -1    0    0    0  501 -0.00000000000E+00  0.00000000000E+00  0.64070920861E+02  0.64070920861E+02  0.00000000000E+00 0.  1.
          2   -1    0    0  501    0  0.00000000000E+00 -0.00000000000E+00 -0.20139014886E+03  0.20139014886E+03  0.00000000000E+00 0. -1.
         23    2    1    2    0    0 -0.18135917074E+01 -0.13921053284E+02 -0.41703876417E+02  0.13260193610E+03  0.12508787036E+03 0.  0.
          5    1    3    3  502    0  0.25298103737E+01 -0.32636250929E+02 -0.81656834319E+02  0.88072900522E+02  0.41800000000E+01 0.  1.
         -5    1    3    3    0  502 -0.43434020811E+01  0.18715197645E+02  0.39952957902E+02  0.44529035580E+02  0.41800000000E+01 0.  1.
        -11    1    1    2    0    0 -0.29282383856E+02  0.30166959447E+02 -0.14483690591E+02  0.44466625009E+02  0.00000000000E+00 0.  1.
         11    1    1    2    0    0  0.31095975563E+02 -0.16245906163E+02 -0.81131660995E+02  0.88392508614E+02  0.00000000000E+00 0. -1.
</event>
<event>
 7    1  0.5109948E-006  0.6916045E+02  0.7561462E-02  0.1362971E+00
          2   -1    0    0  501    0  0.00000000000E+00  0.00000000000E+00  0.11345705754E+04  0.11345705754E+04  0.00000000000E+00 0. -1.
         -2   -1    0    0    0  501 -0.00000000000E+00 -0.00000000000E+00 -0.10871741423E+02  0.10871741423E+02  0.00000000000E+00 0.  1.
         23    2    1    2    0    0  0.17108506158E+02  0.68880859560E+01  0.60898807887E+03  0.62197563785E+03  0.12508823754E+03 0.  0.
          5    1    3    3  502    0  0.23193386463E+02  0.18399656524E+02  0.60748232887E+03  0.60821766895E+03  0.41800000000E+01 0. -1.
         -5    1    3    3    0  502 -0.60848803056E+01 -0.11511570568E+02  0.15057499974E+01  0.13757968903E+02  0.41800000000E+01 0. -1.
        -11    1    1    2    0    0  0.32486657136E+02  0.20181386735E+02  0.17970418804E+03  0.18372878507E+03  0.00000000000E+00 0.  1.
         11    1    1    2    0    0 -0.49595163294E+02 -0.27069472691E+02  0.33500656702E+03  0.33973789386E+03  0.00000000000E+00 0. -1.
</event>
<event>
 7    1  0.5109948E-006  0.1227123E+03  0.7561462E-02  0.1238688E+00
          1   -1    0    0  501    0  0.00000000000E+00  0.00000000000E+00  0.23091967511E+03  0.23091967511E+03  0.00000000000E+00 0. -1.
         -1   -1    0    0    0  501 -0.00000000000E+00 -0.00000000000E+00 -0.15087197517E+03  0.15087197517E+03  0.00000000000E+00 0.  1.
         23    2    1    2    0    0 -0.65314746561E+02  0.33490042330E+02 -0.93561396569E+02  0.17259464445E+03  0.12509027665E+03 0.  0.
          5    1    3    3  502    0  0.35333212896E+02  0.15312716133E+01 -0.77149379594E+01  0.36438625030E+02  0.41800000000E+01 0.  1.
         -5    1    3    3    0  502 -0.10064795946E+03  0.31958770717E+02 -0.85846458610E+02  0.13615601942E+03  0.41800000000E+01 0.  1.
        -11    1    1    2    0    0  0.73982099655E+02 -0.47764752077E+01  0.15983671365E+03  0.17619290796E+03  0.00000000000E+00 0. -1.
         11    1    1    2    0    0 -0.86673530943E+01 -0.28713567123E+02  0.13772382850E+02  0.33004097866E+02  0.00000000000E+00 0.  1.
</event>
<event>
 7    1  0.5109948E-006  0.1146703E+03  0.7561462E-02  0.1252158E+00
          3   -1    0    0  501    0  0.00000000000E+00  0.00000000000E+00  0.15370360622E+03  0.15370360622E+03  0.00000000000E+00 0. -1.
         -3   -1    0    0    0  501 -0.00000000000E+00 -0.00000000000E+00 -0.13610659258E+03  0.13610659258E+03  0.00000000000E+00 0.  1.
         23    2    1    2    0    0  0.36880230244E+02 -0.85834740141E+02 -0.10743521670E+02  0.15649117982E+03  0.12508521938E+03 0.  0.
          5    1    3    3  502    0  0.22025560578E+02 -0.81023031879E+02 -0.60890990549E+02  0.10380290046E+03  0.41800000000E+01 0.  1.
         -5    1    3    3    0  502  0.14854669666E+02 -0.48117082620E+01  0.50147468879E+02  0.52688279363E+02  0.41800000000E+01 0.  1.
        -11    1    1    2    0    0  0.29778548676E+02  0.25796343608E+02  0.16944614641E+02  0.42887448865E+02  0.00000000000E+00 0.  1.
         11    1    1    2    0    0 -0.66658778921E+02  0.60038396532E+02  0.11395920661E+02  0.90431570113E+02  0.00000000000E+00 0. -1.
</event>
<event>
 7    1  0.5109948E-006  0.4322307E+03  0.7561462E-02  0.1033158E+00
         -1   -1    0    0    0  501 -0.00000000000E+00  0.00000000000E+00  0.19917932897E+03  0.19917932897E+03  0.00000000000E+00 0. -1.
          1   -1    0    0  501    0  0.00000000000E+00 -0.00000000000E+00 -0.99726777243E+03  0.99726777243E+03  0.00000000000E+00 0.  1.
         23    2    1    2    0    0 -0.13576000837E+03  0.40538792677E+03 -0.32016176260E+03  0.54856297382E+03  0.12509049112E+03 0.  0.
          5    1    3    3  502    0 -0.77731701228E+02  0.24072945006E+03 -0.11154627090E+03  0.27650122686E+03  0.41800000000E+01 0. -1.
         -5    1    3    3    0  502 -0.58028307145E+02  0.16465847671E+03 -0.20861549170E+03  0.27206174696E+03  0.41800000000E+01 0. -1.
        -11    1    1    2    0    0  0.98439884894E+02 -0.15463673513E+03 -0.18392390664E+03  0.25967466997E+03  0.00000000000E+00 0.  1.
         11    1    1    2    0    0  0.37320123479E+02 -0.25075119165E+03 -0.29400277422E+03  0.38820945761E+03  0.00000000000E+00 0. -1.
</event>
<event>
 7    1  0.5109948E-006  0.1249778E+03  0.7561462E-02  0.1235104E+00
          2   -1    0    0  501    0  0.00000000000E+00  0.00000000000E+00  0.56117017216E+03  0.56117017216E+03  0.00000000000E+00 0. -1.
         -2   -1    0    0    0  501 -0.00000000000E+00 -0.00000000000E+00 -0.31848372452E+02  0.31848372452E+02  0.00000000000E+00 0.  1.
         23    2    1    2    0    0  0.65207201844E+02 -0.39691412352E+02  0.25635427224E+03  0.29528169258E+03  0.12508548153E+03 0.  0.
          5    1    3    3  502    0 -0.11042186777E+02 -0.64828092065E+02  0.12409697621E+03  0.14050673762E+03  0.41800000000E+01 0.  1.
         -5    1    3    3    0  502  0.76249388621E+02  0.25136679713E+02  0.13225729602E+03  0.15477495496E+03  0.41800000000E+01 0.  1.
        -11    1    1    2    0    0 -0.77817211118E+02  0.20105858959E+02  0.25755842717E+03  0.26980753755E+03  0.00000000000E+00 0. -1.
         11    1    1    2    0    0  0.12610009274E+02  0.19585553393E+02  0.15409100297E+02  0.27929314485E+02  0.00000000000E+00 0.  1.
</event>
<event>
 7    1  0.5109948E-006  0.2126645E+03  0.7561462E-02  0.1139473E+00
         -2   -1    0    0    0  501 -0.00000000000E+00  0.00000000000E+00  0.16177404730E+03  0.16177404730E+03  0.00000000000E+00 0.  1.
          2   -1    0    0  501    0  0.00000000000E+00 -0.00000000000E+00 -0.39082817455E+03  0.39082817455E+03  0.00000000000E+00 0. -1.
         23    2    1    2    0    0 -0.17503203213E+03  0.55750619412E+02  0.28786058488E+02  0.22410447934E+03  0.12509930719E+03 0.  0.
          5    1    3    3  502    0 -0.83793294759E+02  0.91367301487E+02  0.11707991049E+02  0.12459474099E+03  0.41800000000E+01 0. -1.
         -5    1    3    3    0  502 -0.91238737372E+02 -0.35616682075E+02  0.17078067439E+02  0.99509738351E+02  0.41800000000E+01 0. -1.
        -11    1    1    2    0    0  0.62120507359E+02  0.22286921177E+02 -0.75649002632E+02  0.10039141342E+03  0.00000000000E+00 0. -1.
         11    1    1    2    0    0  0.11291152477E+03 -0.78037540589E+02 -0.18219118311E+03  0.22810632909E+03  0.00000000000E+00 0.  1.
</event>
<event>
 7    1  0.5109948E-006  0.1094989E+03  0.7561462E-02  0.1261501E+00
          2   -1    0    0  501    0  0.00000000000E+00  0.00000000000E+00  0.40871970156E+03  0.40871970156E+03  0.00000000000E+00 0.  1.
         -2   -1    0    0    0  501 -0.00000000000E+00 -0.00000000000E+00 -0.41252993877E+02  0.41252993877E+02  0.00000000000E+00 0. -1.
         23    2    1    2    0    0  0.67934477012E+02  0.96207087209E+01  0.16857399279E+03  0.22084483973E+03  0.12509037128E+03 0.  0.
          5    1    3    3  502    0  0.57390522617E+02  0.50290865087E+02  0.41548823790E+02  0.86986322808E+02  0.41800000000E+01 0.  1.
         -5    1    3    3    0  502  0.10543954395E+02 -0.40670156366E+02  0.12702516900E+03  0.13385851692E+03  0.41800000000E+01 0.  1.
        -11    1    1    2    0    0  0.15738091563E+02  0.20506760089E+01  0.89572398238E+02  0.90967616898E+02  0.00000000000E+00 0.  1.
         11    1    1    2    0    0 -0.83672568575E+02 -0.11671384730E+02  0.10932031666E+03  0.13816023881E+03  0.00000000000E+00 0. -1.
</event>
<event>
 7    1  0.5160638E-006  0.1370346E+03  0.7561462E-02  0.1217376E+00
          2   -1    0    0  501    0  0.00000000000E+00  0.00000000000E+00  0.10465853311E+04  0.10465853311E+04  0.00000000000E+00 0. -1.
         -2   -1    0    0    0  501 -0.00000000000E+00 -0.00000000000E+00 -0.19143034754E+02  0.19143034754E+02  0.00000000000E+00 0.  1.
         23    2    1    2    0    0  0.10815356951E+02  0.89655064323E+02  0.56570863198E+03  0.58636910288E+03  0.12508983173E+03 0.  0.
          5    1    3    3  502    0 -0.33449349522E+02 -0.16971909162E+02  0.17016491116E+03  0.17429995432E+03  0.41800000000E+01 0. -1.
         -5    1    3    3    0  502  0.44264706473E+02  0.10662697348E+03  0.39554372082E+03  0.41206914856E+03  0.41800000000E+01 0. -1.
        -11    1    1    2    0    0 -0.45838835422E+02 -0.53816722610E+02  0.18344005398E+03  0.19659016219E+03  0.00000000000E+00 0.  1.
         11    1    1    2    0    0  0.35023478471E+02 -0.35838341713E+02  0.27829361040E+03  0.28276910081E+03  0.00000000000E+00 0. -1.
</event>
<event>
 7    1  0.5109948E-006  0.8511642E+02  0.7561462E-02  0.1315128E+00
         -4   -1    0    0    0  501 -0.00000000000E+00  0.00000000000E+00  0.32743626360E+02  0.32743626360E+02  0.00000000000E+00 0. -1.
          4   -1    0    0  501    0  0.00000000000E+00 -0.00000000000E+00 -0.42240052964E+03  0.42240052964E+03  0.00000000000E+00 0.  1.
         23    2    1    2    0    0 -0.43593195542E+02  0.30665712811E+02 -0.20410732870E+03  0.24525086876E+03  0.12508970524E+03 0.  0.
          5    1    3    3  502    0  0.21541480299E+01 -0.30334612837E+02 -0.38617412492E+01  0.30938883871E+02  0.41800000000E+01 0. -1.
         -5    1    3    3    0  502 -0.45747343572E+02  0.61000325648E+02 -0.20024558745E+03  0.21431198489E+03  0.41800000000E+01 0. -1.
        -11    1    1    2    0    0 -0.35261281385E+01 -0.11972369177E+02  0.44478635853E+01  0.13249705424E+02  0.00000000000E+00 0.  1.
         11    1    1    2    0    0  0.47119323681E+02 -0.18693343634E+02 -0.18999743817E+03  0.19664358182E+03  0.00000000000E+00 0. -1.
</event>
<event>
 7    1  0.5109948E-006  0.1220453E+03  0.7561462E-02  0.1239761E+00
          2   -1    0    0  501    0  0.00000000000E+00  0.00000000000E+00  0.60109412746E+02  0.60109412746E+02  0.00000000000E+00 0.  1.
         -2   -1    0    0    0  501 -0.00000000000E+00 -0.00000000000E+00 -0.26420146605E+03  0.26420146605E+03  0.00000000000E+00 0. -1.
         23    2    1    2    0    0  0.45016267408E+02 -0.40757795365E+02 -0.13618238045E+03  0.19462920673E+03  0.12508886902E+03 0.  0.
          5    1    3    3  502    0 -0.22640707492E+02  0.29296250727E+02 -0.61181927519E+02  0.71634995619E+02  0.41800000000E+01 0.  1.
         -5    1    3    3    0  502  0.67656974900E+02 -0.70054046092E+02 -0.75000452931E+02  0.12299421111E+03  0.41800000000E+01 0.  1.
        -11    1    1    2    0    0 -0.42476121967E+02 -0.21107766911E+02 -0.38717292420E+02  0.61227342697E+02  0.00000000000E+00 0. -1.
         11    1    1    2    0    0 -0.25401454403E+01  0.61865562276E+02 -0.29192380438E+02  0.68454329376E+02  0.00000000000E+00 0.  1.
</event>
<event>
 7    1  0.5109948E-006  0.1058877E+03  0.7561462E-02  0.1268380E+00
          2   -1    0    0  501    0  0.00000000000E+00  0.00000000000E+00  0.22581582148E+03  0.22581582148E+03  0.00000000000E+00 0. -1.
         -2   -1    0    0    0  501 -0.00000000000E+00 -0.00000000000E+00 -0.67068293672E+02  0.67068293672E+02  0.00000000000E+00 0.  1.
         23    2    1    2    0    0 -0.22256787820E+02  0.10477337353E+02  0.26096088736E+02  0.13012306071E+03  0.12508343567E+03 0.  0.
          5    1    3    3  502    0 -0.28899475350E+02  0.61153932394E+02  0.37696436947E+02  0.77546611024E+02  0.41800000000E+01 0.  1.
         -5    1    3    3    0  502  0.66426875308E+01 -0.50676595041E+02 -0.11600348211E+02  0.52576449682E+02  0.41800000000E+01 0.  1.
        -11    1    1    2    0    0 -0.46539820601E+01 -0.47072705148E+02  0.82478143385E+02  0.95079667937E+02  0.00000000000E+00 0. -1.
         11    1    1    2    0    0  0.26910769880E+02  0.36595367795E+02  0.50173295687E+02  0.67681386508E+02  0.00000000000E+00 0.  1.
</event>
<event>
 7    1  0.5109948E-006  0.1181377E+03  0.7561462E-02  0.1246201E+00
         -1   -1    0    0    0  501 -0.00000000000E+00  0.00000000000E+00  0.17955185941E+03  0.17955185941E+03  0.00000000000E+00 0.  1.
          1   -1    0    0  501    0  0.00000000000E+00 -0.00000000000E+00 -0.11098858475E+03  0.11098858475E+03  0.00000000000E+00 0. -1.
         23    2    1    2    0    0  0.24608783637E+02  0.77116098464E+02  0.67219920451E+02  0.16345995031E+03  0.12509257682E+03 0.  0.
          5    1    3    3  502    0 -0.49882768836E+02  0.30003070735E+02  0.41290386761E+02  0.71490162394E+02  0.41800000000E+01 0.  1.
         -5    1    3    3    0  502  0.74491552473E+02  0.47113027729E+02  0.25929533690E+02  0.91969787915E+02  0.41800000000E+01 0.  1.
        -11    1    1    2    0    0 -0.14340205547E+02 -0.27465249115E+01  0.40040092541E+02  0.42619172973E+02  0.00000000000E+00 0.  1.
         11    1    1    2    0    0 -0.10268578090E+02 -0.74369573552E+02 -0.38696738339E+02  0.84461320878E+02  0.00000000000E+00 0. -1.
</event>
<event>
 7    1  0.5109948E-006  0.1054534E+03  0.7561462E-02  0.1269229E+00
         -1   -1    0    0    0  501 -0.00000000000E+00  0.00000000000E+00  0.22712146725E+03  0.22712146725E+03  0.00000000000E+00 0.  1.
          1   -1    0    0  501    0  0.00000000000E+00 -0.00000000000E+00 -0.94967604113E+02  0.94967604113E+02  0.00000000000E+00 0. -1.
         23    2    1    2    0    0 -0.40350087222E+01 -0.96554365345E+02  0.10924011168E+03  0.19214585924E+03  0.12509037717E+03 0.  0.
          5    1    3    3  502    0 -0.30753294527E-01 -0.11481075281E+02 -0.28013100713E+02  0.30561777549E+02  0.41800000000E+01 0.  1.
         -5    1    3    3    0  502 -0.40042554277E+01 -0.85073290064E+02  0.13725321240E+03  0.16158408169E+03  0.41800000000E+01 0.  1.
        -11    1    1    2    0    0  0.31744645816E+02  0.49186604897E+02  0.41771695662E+02  0.71916056606E+02  0.00000000000E+00 0.  1.
         11    1    1    2    0    0 -0.27709637094E+02  0.47367760448E+02 -0.18857944205E+02  0.58027155517E+02  0.00000000000E+00 0. -1.
</event>
<event>
 7    1  0.5109948E-006  0.1463027E+03  0.7561462E-02  0.1205091E+00
          1   -1    0    0  501    0  0.00000000000E+00  0.00000000000E+00  0.44271940656E+03  0.44271940656E+03  0.00000000000E+00 0. -1.
         -1   -1    0    0    0  501 -0.00000000000E+00 -0.00000000000E+00 -0.69850164910E+02  0.69850164910E+02  0.00000000000E+00 0.  1.
         23    2    1    2    0    0 -0.68721584742E+02 -0.11516815138E+03  0.15139223827E+03  0.23781117984E+03  0.12509271821E+03 0.  0.
          5    1    3    3  502    0 -0.90038717931E+01 -0.34041449633E+02 -0.18695890413E+02  0.40086141230E+02  0.41800000000E+01 0.  1.
         -5    1    3    3    0  502 -0.59717712949E+02 -0.81126701750E+02  0.17008812868E+03  0.19772503861E+03  0.41800000000E+01 0.  1.
        -11    1    1    2    0    0  0.45600265177E+02  0.12357589777E+03  0.15242317187E+03  0.20145274884E+03  0.00000000000E+00 0.  1.
         11    1    1    2    0    0  0.23121319565E+02 -0.84077463828E+01  0.69053831515E+02  0.73305642788E+02  0.00000000000E+00 0. -1.
</event>
<event>
 7    1  0.5109948E-006  0.2210785E+03  0.7561462E-02  0.1133082E+00
          2   -1    0    0  501    0  0.00000000000E+00  0.00000000000E+00  0.13928361690E+04  0.13928361690E+04  0.00000000000E+00 0. -1.
         -2   -1    0    0    0  501 -0.00000000000E+00 -0.00000000000E+00 -0.45213446543E+02  0.45213446543E+02  0.00000000000E+00 0.  1.
         23    2    1    2    0    0  0.15151427432E+03  0.13356329935E+03  0.40352259350E+03  0.46826574705E+03  0.12508635476E+03 0.  0.
          5    1    3    3  502    0  0.95527141372E+02  0.13503553666E+03  0.21346012015E+03  0.27007911100E+03  0.41800000000E+01 0.  1.
         -5    1    3    3    0  502  0.55987132943E+02 -0.14722373164E+01  0.19006247335E+03  0.19818663606E+03  0.41800000000E+01 0.  1.
        -11    1    1    2    0    0 -0.81860787105E+02 -0.12629096427E+03  0.68897526644E+03  0.70522160622E+03  0.00000000000E+00 0. -1.
         11    1    1    2    0    0 -0.69653487211E+02 -0.72723350741E+01  0.25512486256E+03  0.26456226231E+03  0.00000000000E+00 0.  1.
</event>
<event>
 7    1  0.5109948E-006  0.7222624E+02  0.7561462E-02  0.1352682E+00
         -1   -1    0    0    0  501 -0.00000000000E+00  0.00000000000E+00  0.97916088540E+02  0.97916088540E+02  0.00000000000E+00 0.  1.
          1   -1    0    0  501    0  0.00000000000E+00 -0.00000000000E+00 -0.14054487259E+03  0.14054487259E+03  0.00000000000E+00 0. -1.
         23    2    1    2    0    0 -0.12553786381E+02 -0.45553949870E+02 -0.19087821965E+02  0.13507297773E+03  0.12509038518E+03 0.  0.
          5    1    3    3  502    0  0.29575806539E+02 -0.32412808553E+02 -0.60201952313E+02  0.74612773391E+02  0.41800000000E+01 0.  1.
         -5    1    3    3    0  502 -0.42129592920E+02 -0.13141141317E+02  0.41114130348E+02  0.60460204342E+02  0.41800000000E+01 0.  1.
        -11    1    1    2    0    0 -0.99495912850E+01  0.16910491824E+02  0.31663037710E+02  0.37249255798E+02  0.00000000000E+00 0.  1.
         11    1    1    2    0    0  0.22503377666E+02  0.28643458046E+02 -0.55203999793E+02  0.66138727599E+02  0.00000000000E+00 0. -1.
</event>
<event>
 7    1  0.5109948E-006  0.1050079E+03  0.7561462E-02  0.1270104E+00
         -2   -1    0    0    0  501 -0.00000000000E+00  0.00000000000E+00  0.69981449767E+02  0.69981449767E+02  0.00000000000E+00 0.  1.
          2   -1    0    0  501    0  0.00000000000E+00 -0.00000000000E+00 -0.23213172491E+03  0.23213172491E+03  0.00000000000E+00 0. -1.
         23    2    1    2    0    0  0.45247327216E+02 -0.14783074750E+02 -0.32394984203E+02  0.13770840366E+03  0.12509320332E+03 0.  0.
          5    1    3    3  502    0  0.29131461030E+02 -0.65340328531E+02  0.62452184538E+01  0.71933828674E+02  0.41800000000E+01 0.  1.
         -5    1    3    3    0  502  0.16115866186E+02  0.50557253781E+02 -0.38640202657E+02  0.65774574983E+02  0.41800000000E+01 0.  1.
        -11    1    1    2    0    0 -0.40803382129E+02  0.41407120140E+02 -0.39711339449E+02  0.70402102755E+02  0.00000000000E+00 0.  1.
         11    1    1    2    0    0 -0.44439450862E+01 -0.26624045391E+02 -0.90043951491E+02  0.94002668265E+02  0.00000000000E+00 0. -1.
</event>
<event>
 7    1  0.5109948E-006  0.1453190E+03  0.7561462E-02  0.1206346E+00
         -1   -1    0    0    0  501 -0.00000000000E+00  0.00000000000E+00  0.55605942708E+02  0.55605942708E+02  0.00000000000E+00 0.  1.
          1   -1    0    0  501    0  0.00000000000E+00 -0.00000000000E+00 -0.51884175200E+03  0.51884175200E+03  0.00000000000E+00 0. -1.
         23    2    1    2    0    0  0.77020232378E+01  0.11655771493E+03 -0.14844754530E+03  0.22655975070E+03  0.12509046670E+03 0.  0.
          5    1    3    3  502    0  0.37085199826E+02  0.10834205902E+03 -0.15721216741E+03  0.19454164536E+03  0.41800000000E+01 0. -1.
         -5    1    3    3    0  502 -0.29383176588E+02  0.82156559108E+01  0.87646221084E+01  0.32018105334E+02  0.41800000000E+01 0. -1.
        -11    1    1    2    0    0 -0.46757141961E+02 -0.73594561641E+02 -0.22104935821E+03  0.23762409093E+03  0.00000000000E+00 0. -1.
         11    1    1    2    0    0  0.39055118723E+02 -0.42963153286E+02 -0.93738905775E+02  0.11026385307E+03  0.00000000000E+00 0.  1.
</event>
<event>
 7    1  0.5109948E-006  0.9831408E+02  0.7561462E-02  0.1283882E+00
         -1   -1    0    0    0  501 -0.00000000000E+00  0.00000000000E+00  0.46079280775E+02  0.46079280775E+02  0.00000000000E+00 0.  1.
          1   -1    0    0  501    0  0.00000000000E+00 -0.00000000000E+00 -0.26707631145E+03  0.26707631145E+03  0.00000000000E+00 0. -1.
         23    2    1    2    0    0 -0.16475146006E+01  0.97239560206E+01 -0.98963766282E+02  0.15980826692E+03  0.12509030944E+03 0.  0.
          5    1    3    3  502    0 -0.61879223852E+02  0.23126854123E+01 -0.66094273835E+02  0.90665937882E+02  0.41800000000E+01 0. -1.
         -5    1    3    3    0  502  0.60231709251E+02  0.74112706083E+01 -0.32869492448E+02  0.69142329040E+02  0.41800000000E+01 0. -1.
        -11    1    1    2    0    0 -0.35546580182E+02 -0.11481851063E+01 -0.10624739968E+03  0.11204190123E+03  0.00000000000E+00 0. -1.
         11    1    1    2    0    0  0.37194094782E+02 -0.85757709143E+01 -0.15785864714E+02  0.41305424078E+02  0.00000000000E+00 0.  1.
</event>
<event>
 7    1  0.5109948E-006  0.8883486E+02  0.7561462E-02  0.1305698E+00
         -2   -1    0    0    0  501 -0.00000000000E+00  0.00000000000E+00  0.16253227089E+02  0.16253227089E+02  0.00000000000E+00 0.  1.
          2   -1    0    0  501    0  0.00000000000E+00 -0.00000000000E+00 -0.86817511338E+03  0.86817511338E+03  0.00000000000E+00 0. -1.
         23    2    1    2    0    0  0.33538094046E+02 -0.76093712035E+01 -0.35178832941E+03  0.37495373789E+03  0.12511023366E+03 0.  0.
          5    1    3    3  502    0 -0.23356172918E+02  0.43046974137E-01 -0.28823455367E+03  0.28920951401E+03  0.41800000000E+01 0. -1.
         -5    1    3    3    0  502  0.56894266964E+02 -0.76524181777E+01 -0.63553775737E+02  0.85744223875E+02  0.41800000000E+01 0. -1.
        -11    1    1    2    0    0 -0.20141478510E+01  0.46374888635E+02 -0.27212430705E+03  0.27605493217E+03  0.00000000000E+00 0. -1.
         11    1    1    2    0    0 -0.31523946195E+02 -0.38765517432E+02 -0.22800924984E+03  0.23341967041E+03  0.00000000000E+00 0.  1.
</event>
<event>
 7    1  0.5109948E-006  0.1296596E+03  0.7561462E-02  0.1227962E+00
          1   -1    0    0  501    0  0.00000000000E+00  0.00000000000E+00  0.32705002748E+03  0.32705002748E+03  0.00000000000E+00 0. -1.
         -1   -1    0    0    0  501 -0.00000000000E+00 -0.00000000000E+00 -0.56426671248E+02  0.56426671248E+02  0.00000000000E+00 0.  1.
         23    2    1    2    0    0  0.30759116726E+02  0.66948743847E+02  0.19882590895E+03  0.24618678205E+03  0.12509169446E+03 0.  0.
          5    1    3    3  502    0  0.57922538678E+02  0.90936973384E+02  0.13682403624E+03  0.17424936989E+03  0.41800000000E+01 0. -1.
         -5    1    3    3    0  502 -0.27163421952E+02 -0.23988229537E+02  0.62001872711E+02  0.71937412159E+02  0.41800000000E+01 0. -1.
        -11    1    1    2    0    0  0.33549380454E+01  0.20657106882E+02  0.23935462316E+02  0.31794308144E+02  0.00000000000E+00 0. -1.
         11    1    1    2    0    0 -0.34114054771E+02 -0.87605850729E+02  0.47861984966E+02  0.10549560853E+03  0.00000000000E+00 0.  1.
</event>
<event>
 7    1  0.5109948E-006  0.1788198E+03  0.7561462E-02  0.1168950E+00
          2   -1    0    0  501    0  0.00000000000E+00  0.00000000000E+00  0.73285927396E+03  0.73285927396E+03  0.00000000000E+00 0. -1.
         -2   -1    0    0    0  501 -0.00000000000E+00 -0.00000000000E+00 -0.51656680465E+02  0.51656680465E+02  0.00000000000E+00 0.  1.
         23    2    1    2    0    0  0.11604105325E+03 -0.11114049264E+03  0.37219392458E+03  0.42425652365E+03  0.12509014840E+03 0.  0.
          5    1    3    3  502    0  0.11998016478E+03 -0.42350725958E+02  0.18352078501E+03  0.22335213198E+03  0.41800000000E+01 0. -1.
         -5    1    3    3    0  502 -0.39391115300E+01 -0.68789766683E+02  0.18867313956E+03  0.20090439167E+03  0.41800000000E+01 0. -1.
        -11    1    1    2    0    0 -0.85695740594E+02  0.73046992423E+02  0.11786435687E+03  0.16300806630E+03  0.00000000000E+00 0.  1.
         11    1    1    2    0    0 -0.30345312653E+02  0.38093500218E+02  0.19114431204E+03  0.19725136447E+03  0.00000000000E+00 0. -1.
</event>
<event>
 7    1  0.5109948E-006  0.1685693E+03  0.7561462E-02  0.1179348E+00
          2   -1    0    0  501    0  0.00000000000E+00  0.00000000000E+00  0.22292565434E+03  0.22292565434E+03  0.00000000000E+00 0. -1.
         -2   -1    0    0    0  501 -0.00000000000E+00 -0.00000000000E+00 -0.13027202948E+03  0.13027202948E+03  0.00000000000E+00 0.  1.
         23    2    1    2    0    0  0.10688757850E+03 -0.75608102199E+02  0.29839824756E+02  0.18352046488E+03  0.12509119207E+03 0.  0.
          5    1    3    3  502    0 -0.20986146028E+02 -0.42600552950E+02  0.17622222172E+02  0.50825589530E+02  0.41800000000E+01 0. -1.
         -5    1    3    3    0  502  0.12787372453E+03 -0.33007549249E+02  0.12217602584E+02  0.13269487535E+03  0.41800000000E+01 0. -1.
        -11    1    1    2    0    0 -0.65608278482E+02  0.91934125284E+02  0.40426878731E+02  0.11996108586E+03  0.00000000000E+00 0. -1.
         11    1    1    2    0    0 -0.41279300017E+02 -0.16326023085E+02  0.22386921369E+02  0.49716133076E+02  0.00000000000E+00 0.  1.
</event>
<event>
 7    1  0.5109948E-006  0.1851741E+03  0.7561462E-02  0.1162887E+00
         -1   -1    0    0    0  501 -0.00000000000E+00  0.00000000000E+00  0.16477846559E+02  0.16477846559E+02  0.00000000000E+00 0.  1.
          1   -1    0    0  501    0  0.00000000000E+00 -0.00000000000E+00 -0.27846129288E+04  0.27846129288E+04  0.00000000000E+00 0. -1.
         23    2    1    2    0    0 -0.13092048932E+03 -0.95267760999E+02 -0.20179164473E+04  0.20282631116E+04  0.12509332783E+03 0.  0.
          5    1    3    3  502    0 -0.10259771406E+02  0.28538280080E+02 -0.38510762992E+03  0.38632247587E+03  0.41800000000E+01 0. -1.
         -5    1    3    3    0  502 -0.12066071791E+03 -0.12380604108E+03 -0.16328088174E+04  0.16419406357E+04  0.41800000000E+01 0. -1.
        -11    1    1    2    0    0  0.12829147659E+03  0.79731627317E+02 -0.73682263813E+03  0.75214588706E+03  0.00000000000E+00 0. -1.
         11    1    1    2    0    0  0.26290127285E+01  0.15536133682E+02 -0.13395996785E+02  0.20681776702E+02  0.00000000000E+00 0.  1.
</event>
<event>
 7    1  0.5109948E-006  0.8944109E+02  0.7561462E-02  0.1304211E+00
          1   -1    0    0  501    0  0.00000000000E+00  0.00000000000E+00  0.43349914185E+03  0.43349914185E+03  0.00000000000E+00 0. -1.
         -1   -1    0    0    0  501 -0.00000000000E+00 -0.00000000000E+00 -0.34315951023E+02  0.34315951023E+02  0.00000000000E+00 0.  1.
         23    2    1    2    0    0  0.45286189087E+02  0.77723885334E+01  0.16079434498E+03  0.20883808846E+03  0.12508907574E+03 0.  0.
          5    1    3    3  502    0  0.49801864942E+02 -0.20493592791E+02  0.17008391880E+03  0.17845510621E+03  0.41800000000E+01 0.  1.
         -5    1    3    3    0  502 -0.45156758552E+01  0.28265981324E+02 -0.92895738250E+01  0.30382982251E+02  0.41800000000E+01 0.  1.
        -11    1    1    2    0    0 -0.70454390411E+02 -0.58786860605E+01  0.13317092004E+03  0.15077424854E+03  0.00000000000E+00 0.  1.
         11    1    1    2    0    0  0.25168201324E+02 -0.18937024730E+01  0.10521792580E+03  0.10820275587E+03  0.00000000000E+00 0. -1.
</event>
<event>
 7    1  0.5109948E-006  0.1589682E+03  0.7561462E-02  0.1189867E+00
          2   -1    0    0  501    0  0.00000000000E+00  0.00000000000E+00  0.16779623193E+04  0.16779623193E+04  0.00000000000E+00 0.  1.
         -2   -1    0    0    0  501 -0.00000000000E+00 -0.00000000000E+00 -0.19666816335E+02  0.19666816335E+02  0.00000000000E+00 0. -1.
         23    2    1    2    0    0  0.11253615649E+03  0.89932295105E+02  0.75300515616E+03  0.77679915432E+03  0.12509179322E+03 0.  0.
          5    1    3    3  502    0 -0.42340590607E+01  0.10905691237E+02  0.19055062560E+01  0.12568401313E+02  0.41800000000E+01 0.  1.
         -5    1    3    3    0  502  0.11677021555E+03  0.79026603868E+02  0.75109964990E+03  0.76423075300E+03  0.41800000000E+01 0.  1.
        -11    1    1    2    0    0  0.78548858238E+01 -0.27971019431E+02  0.96304636028E+02  0.10059155074E+03  0.00000000000E+00 0. -1.
         11    1    1    2    0    0 -0.12039104231E+03 -0.61961275674E+02  0.80898571081E+03  0.82023843061E+03  0.00000000000E+00 0.  1.
</event>
<event>
 7    1  0.5109948E-006  0.1273170E+03  0.7561462E-02  0.1231492E+00
          4   -1    0    0  501    0  0.00000000000E+00  0.00000000000E+00  0.84025265266E+02  0.84025265266E+02  0.00000000000E+00 0. -1.
         -4   -1    0    0    0  501 -0.00000000000E+00 -0.00000000000E+00 -0.19479142247E+03  0.19479142247E+03  0.00000000000E+00 0.  1.
         23    2    1    2    0    0  0.33523393876E+02 -0.58375499245E+02 -0.66237203421E+02  0.15673620668E+03  0.12508938612E+03 0.  0.
          5    1    3    3  502    0  0.37797108949E+01 -0.94687176162E+02 -0.46612646211E+02  0.10568897166E+03  0.41800000000E+01 0. -1.
         -5    1    3    3    0  502  0.29743682981E+02  0.36311676918E+02 -0.19624557210E+02  0.51047235024E+02  0.41800000000E+01 0. -1.
        -11    1    1    2    0    0 -0.48922101113E+02 -0.33509369283E+01 -0.27505082449E+02  0.56223930102E+02  0.00000000000E+00 0.  1.
         11    1    1    2    0    0  0.15398707237E+02  0.61726436173E+02 -0.17023871330E+02  0.65856550944E+02  0.00000000000E+00 0. -1.
</event>
<event>
 7    1  0.5109948E-006  0.1040037E+03  0.7561462E-02  0.1272095E+00
          2   -1    0    0  501    0  0.00000000000E+00  0.00000000000E+00  0.11973513834E+03  0.11973513834E+03  0.00000000000E+00 0. -1.
         -2   -1    0    0    0  501 -0.00000000000E+00 -0.00000000000E+00 -0.10202887660E+03  0.10202887660E+03  0.00000000000E+00 0.  1.
         23    2    1    2    0    0 -0.28839020135E+02 -0.58711673266E+01 -0.18342749515E+02  0.12981763924E+03  0.12509997326E+03 0.  0.
          5    1    3    3  502    0 -0.72248489810E+02  0.17108673964E+02 -0.28228879178E+02  0.79541769055E+02  0.41800000000E+01 0.  1.
         -5    1    3    3    0  502  0.43409469675E+02 -0.22979841291E+02  0.98861296630E+01  0.50275870186E+02  0.41800000000E+01 0.  1.
        -11    1    1    2    0    0 -0.15406788124E+02  0.30165539991E+02  0.17860000709E+02  0.38292408498E+02  0.00000000000E+00 0. -1.
         11    1    1    2    0    0  0.44245808260E+02 -0.24294372665E+02  0.18189010547E+02  0.53653967201E+02  0.00000000000E+00 0.  1.
</event>
<event>
 7    1  0.5109948E-006  0.8911772E+02  0.7561462E-02  0.1305002E+00
         -2   -1    0    0    0  501 -0.00000000000E+00  0.00000000000E+00  0.50343013927E+02  0.50343013927E+02  0.00000000000E+00 0.  1.
          2   -1    0    0  501    0  0.00000000000E+00 -0.00000000000E+00 -0.30901192234E+03  0.30901192234E+03  0.00000000000E+00 0. -1.
         23    2    1    2    0    0 -0.20953827447E+02 -0.40602085639E+02 -0.85479408235E+02  0.15824751687E+03  0.12509178678E+03 0.  0.
          5    1    3    3  502    0  0.22475482825E+02 -0.16530356863E+02  0.24590188212E+02  0.37423919925E+02  0.41800000000E+01 0. -1.
         -5    1    3    3    0  502 -0.43429310272E+02 -0.24071728776E+02 -0.11006959645E+03  0.12082359695E+03  0.41800000000E+01 0. -1.
        -11    1    1    2    0    0 -0.25985815454E+02  0.46114418885E+02 -0.71398312731E+02  0.88879251205E+02  0.00000000000E+00 0.  1.
         11    1    1    2    0    0  0.46939642901E+02 -0.55123332463E+01 -0.10179118745E+03  0.11222816819E+03  0.00000000000E+00 0. -1.
</event>
<event>
 7    1  0.5109948E-006  0.1541814E+03  0.7561462E-02  0.1195427E+00
         -2   -1    0    0    0  501 -0.00000000000E+00  0.00000000000E+00  0.51158297224E+02  0.51158297224E+02  0.00000000000E+00 0.  1.
          2   -1    0    0  501    0  0.00000000000E+00 -0.00000000000E+00 -0.56492520377E+03  0.56492520377E+03  0.00000000000E+00 0. -1.
         23    2    1    2    0    0 -0.12176054122E+03 -0.47497968738E+02 -0.26602760732E+03  0.32171445615E+03  0.12509123472E+03 0.  0.
          5    1    3    3  502    0 -0.14551591553E+03 -0.32183222756E+02 -0.19739305125E+03  0.24737043191E+03  0.41800000000E+01 0. -1.
         -5    1    3    3    0  502  0.23755374312E+02 -0.15314745982E+02 -0.68634556067E+02  0.74344024237E+02  0.41800000000E+01 0. -1.
        -11    1    1    2    0    0  0.73173303326E+02  0.29037788869E+02 -0.58387919228E+02  0.98013645039E+02  0.00000000000E+00 0.  1.
         11    1    1    2    0    0  0.48587237895E+02  0.18460179868E+02 -0.18935138000E+03  0.19635539981E+03  0.00000000000E+00 0. -1.
</event>
<event>
 7    1  0.5109948E-006  0.1244373E+03  0.7561462E-02  0.1235951E+00
         -2   -1    0    0    0  501 -0.00000000000E+00  0.00000000000E+00  0.54764998131E+02  0.54764998131E+02  0.00000000000E+00 0. -1.
          2   -1    0    0  501    0  0.00000000000E+00 -0.00000000000E+00 -0.40469869245E+03  0.40469869245E+03  0.00000000000E+00 0.  1.
         23    2    1    2    0    0  0.30991742033E+02 -0.69425696711E+02 -0.85201086991E+02  0.16937385620E+03  0.12509141657E+03 0.  0.
          5    1    3    3  502    0  0.69834418860E+02 -0.29236683232E+02 -0.84211998965E+02  0.11331708994E+03  0.41800000000E+01 0.  1.
         -5    1    3    3    0  502 -0.38842676827E+02 -0.40189013478E+02 -0.98908802625E+00  0.56056766251E+02  0.41800000000E+01 0.  1.
        -11    1    1    2    0    0  0.30415873354E+02  0.11294522108E+02 -0.96381337012E+02  0.10169588834E+03  0.00000000000E+00 0. -1.
         11    1    1    2    0    0 -0.61407615388E+02  0.58131174602E+02 -0.16835127032E+03  0.18839394604E+03  0.00000000000E+00 0.  1.
</event>
<event>
 7    1  0.5109948E-006  0.1137113E+03  0.7561462E-02  0.1253847E+00
         -1   -1    0    0    0  501 -0.00000000000E+00  0.00000000000E+00  0.28250714819E+03  0.28250714819E+03  0.00000000000E+00 0.  1.
          1   -1    0    0  501    0  0.00000000000E+00 -0.00000000000E+00 -0.52196344025E+02  0.52196344025E+02  0.00000000000E+00 0. -1.
         23    2    1    2    0    0 -0.49122719908E+02  0.45008073993E+02  0.11875732527E+03  0.17671100096E+03  0.11262640551E+03 0.  0.
          5    1    3    3  502    0 -0.20047221191E+02  0.81126016266E+02  0.84450014904E+02  0.11888060822E+03  0.41800000000E+01 0. -1.
         -5    1    3    3    0  502 -0.29075498718E+02 -0.36117942273E+02  0.34307310371E+02  0.57830392741E+02  0.41800000000E+01 0.  1.
        -11    1    1    2    0    0 -0.18351053171E+02 -0.13176047652E+02  0.67887314885E+02  0.71547584910E+02  0.00000000000E+00 0.  1.
         11    1    1    2    0    0  0.67473773079E+02 -0.31832026341E+02  0.43666164006E+02  0.86444906348E+02  0.00000000000E+00 0. -1.
</event>
<event>
 7    1  0.5109948E-006  0.1272768E+03  0.7561462E-02  0.1231553E+00
         -2   -1    0    0    0  501 -0.00000000000E+00  0.00000000000E+00  0.15554531745E+03  0.15554531745E+03  0.00000000000E+00 0.  1.
          2   -1    0    0  501    0  0.00000000000E+00 -0.00000000000E+00 -0.12206947629E+03  0.12206947629E+03  0.00000000000E+00 0. -1.
         23    2    1    2    0    0  0.24818934690E+02  0.72976150076E+02  0.47972085348E+02  0.15456627941E+03  0.12509162945E+03 0.  0.
          5    1    3    3  502    0  0.63386906903E+02  0.78860795043E+02  0.13166967981E+02  0.10211643554E+03  0.41800000000E+01 0. -1.
         -5    1    3    3    0  502 -0.38567972213E+02 -0.58846449669E+01  0.34805117366E+02  0.52449843869E+02  0.41800000000E+01 0. -1.
        -11    1    1    2    0    0 -0.54661552985E+02 -0.60967979402E+02 -0.30170063013E+02  0.87265185436E+02  0.00000000000E+00 0. -1.
         11    1    1    2    0    0  0.29842618294E+02 -0.12008170675E+02  0.15673818826E+02  0.35783328887E+02  0.00000000000E+00 0.  1.
</event>
<event>
 7    1  0.5109948E-006  0.1025150E+03  0.7561462E-02  0.1275094E+00
         -2   -1    0    0    0  501 -0.00000000000E+00  0.00000000000E+00  0.17678957326E+03  0.17678957326E+03  0.00000000000E+00 0.  1.
          2   -1    0    0  501    0  0.00000000000E+00 -0.00000000000E+00 -0.87589685888E+02  0.87589685888E+02  0.00000000000E+00 0. -1.
         23    2    1    2    0    0 -0.37611997618E+02 -0.80258459125E+01  0.10637669546E+03  0.16865877947E+03  0.12510278170E+03 0.  0.
          5    1    3    3  502    0 -0.16552791745E+02  0.56406332056E+02  0.28928556254E+02  0.65650612925E+02  0.41800000000E+01 0. -1.
         -5    1    3    3    0  502 -0.21059205873E+02 -0.64432177968E+02  0.77448139203E+02  0.10300816655E+03  0.41800000000E+01 0. -1.
        -11    1    1    2    0    0  0.57420013632E+02  0.99668691902E+01  0.12867098888E+02  0.59682147086E+02  0.00000000000E+00 0.  1.
         11    1    1    2    0    0 -0.19808016014E+02 -0.19410232777E+01 -0.30043906972E+02  0.36038332591E+02  0.00000000000E+00 0. -1.
</event>
<event>
 7    1  0.5109948E-006  0.1320712E+03  0.7561462E-02  0.1224414E+00
          3   -1    0    0  501    0  0.00000000000E+00  0.00000000000E+00  0.52252323782E+02  0.52252323782E+02  0.00000000000E+00 0. -1.
         -3   -1    0    0    0  501 -0.00000000000E+00 -0.00000000000E+00 -0.52248912283E+03  0.52248912283E+03  0.00000000000E+00 0.  1.
         23    2    1    2    0    0 -0.98728526419E+02  0.31560447493E+01 -0.38588747189E+03  0.41750789430E+03  0.12508564385E+03 0.  0.
          5    1    3    3  502    0 -0.52174176393E+02  0.57852484442E+02 -0.12919881188E+03  0.15092667103E+03  0.41800000000E+01 0. -1.
         -5    1    3    3    0  502 -0.46554350027E+02 -0.54696439693E+02 -0.25668866001E+03  0.26658122327E+03  0.41800000000E+01 0. -1.
        -11    1    1    2    0    0  0.64462000165E+02 -0.29562567665E+02 -0.88914511064E+02  0.11373251580E+03  0.00000000000E+00 0.  1.
         11    1    1    2    0    0  0.34266526255E+02  0.26406522916E+02  0.45651838984E+01  0.43501036517E+02  0.00000000000E+00 0. -1.
</event>
<event>
 7    1  0.5109948E-006  0.9012380E+02  0.7561462E-02  0.1302552E+00
         -2   -1    0    0    0  501 -0.00000000000E+00  0.00000000000E+00  0.50112581352E+03  0.50112581352E+03  0.00000000000E+00 0.  1.
          2   -1    0    0  501    0  0.00000000000E+00 -0.00000000000E+00 -0.25964107522E+02  0.25964107522E+02  0.00000000000E+00 0. -1.
         23    2    1    2    0    0  0.37853160184E+02 -0.39919872573E+01  0.31444044046E+03  0.33808510815E+03  0.11823684727E+03 0.  0.
          5    1    3    3  502    0  0.65000545441E+02 -0.30213029940E+02  0.11894896669E+03  0.13893965295E+03  0.41800000000E+01 0. -1.
         -5    1    3    3    0  502 -0.27147385257E+02  0.26221042683E+02  0.19549147378E+03  0.19914545520E+03  0.41800000000E+01 0.  1.
        -11    1    1    2    0    0 -0.29670035916E+02 -0.25959747529E+02  0.18708668322E+02  0.43637527353E+02  0.00000000000E+00 0.  1.
         11    1    1    2    0    0 -0.81831242679E+01  0.29951734787E+02  0.14201259721E+03  0.14536728554E+03  0.00000000000E+00 0. -1.
</event>
<event>
 7    1  0.5109948E-006  0.1005995E+03  0.7561462E-02  0.1279040E+00
          1   -1    0    0  501    0  0.00000000000E+00  0.00000000000E+00  0.67878885319E+02  0.67878885319E+02  0.00000000000E+00 0. -1.
         -1   -1    0    0    0  501 -0.00000000000E+00 -0.00000000000E+00 -0.24888706686E+03  0.24888706686E+03  0.00000000000E+00 0.  1.
         23    2    1    2    0    0  0.27103068325E+02  0.58993474869E+02 -0.13228596318E+03  0.19329027274E+03  0.12508695812E+03 0.  0.
          5    1    3    3  502    0 -0.22739392477E+01  0.85324610011E+02 -0.12727588752E+03  0.15330389368E+03  0.41800000000E+01 0.  1.
         -5    1    3    3    0  502  0.29377007572E+02 -0.26331135142E+02 -0.50100756532E+01  0.39986379053E+02  0.41800000000E+01 0.  1.
        -11    1    1    2    0    0  0.31772062798E+01 -0.40426408719E+02 -0.70845342063E+02  0.81629967865E+02  0.00000000000E+00 0.  1.
         11    1    1    2    0    0 -0.30280274604E+02 -0.18567066151E+02  0.22123123697E+02  0.41845711580E+02  0.00000000000E+00 0. -1.
</event>
<event>
 7    1  0.5109948E-006  0.1609130E+03  0.7561462E-02  0.1187670E+00
         -1   -1    0    0    0  501 -0.00000000000E+00  0.00000000000E+00  0.21694733123E+02  0.21694733123E+02  0.00000000000E+00 0.  1.
          1   -1    0    0  501    0  0.00000000000E+00 -0.00000000000E+00 -0.13586125832E+04  0.13586125832E+04  0.00000000000E+00 0. -1.
         23    2    1    2    0    0 -0.89774685626E+02 -0.93420982345E+02 -0.59791031470E+03  0.62444513478E+03  0.12509199736E+03 0.  0.
          5    1    3    3  502    0 -0.46309770073E+02 -0.11868029135E+03 -0.46911123312E+03  0.48611976693E+03  0.41800000000E+01 0.  1.
         -5    1    3    3    0  502 -0.43464915553E+02  0.25259309003E+02 -0.12879908158E+03  0.13832536785E+03  0.41800000000E+01 0.  1.
        -11    1    1    2    0    0  0.99320447222E+02  0.89136773770E+02 -0.72987109839E+03  0.74197151962E+03  0.00000000000E+00 0. -1.
         11    1    1    2    0    0 -0.95457615957E+01  0.42842085756E+01 -0.91364369787E+01  0.13890661907E+02  0.00000000000E+00 0.  1.
</event>
<event>
 7    1  0.5109948E-006  0.1752327E+03  0.7561462E-02  0.1172498E+00
         -3   -1    0    0    0  501 -0.00000000000E+00  0.00000000000E+00  0.50090068302E+03  0.50090068302E+03  0.00000000000E+00 0.  1.
          3   -1    0    0  501    0  0.00000000000E+00 -0.00000000000E+00 -0.73989360181E+02  0.73989360181E+02  0.00000000000E+00 0. -1.
         23    2    1    2    0    0  0.76253658113E+02 -0.13925275966E+03  0.22762338429E+03  0.30440950012E+03  0.12508711859E+03 0.  0.
          5    1    3    3  502    0 -0.25638150995E-01 -0.10783576479E+03  0.76822443866E+02  0.13246778139E+03  0.41800000000E+01 0. -1.
         -5    1    3    3    0  502  0.76279296264E+02 -0.31416994868E+02  0.15080094043E+03  0.17194171873E+03  0.41800000000E+01 0. -1.
        -11    1    1    2    0    0 -0.26509595834E+02  0.30847019645E+02  0.29847267693E+01  0.40782421288E+02  0.00000000000E+00 0. -1.
         11    1    1    2    0    0 -0.49744062280E+02  0.10840574002E+03  0.19630321177E+03  0.22969812179E+03  0.00000000000E+00 0.  1.
</event>
<event>
 7    1  0.5109948E-006  0.7659054E+02  0.7561462E-02  0.1339015E+00
          1   -1    0    0  501    0  0.00000000000E+00  0.00000000000E+00  0.20452907013E+02  0.20452907013E+02  0.00000000000E+00 0. -1.
         -1   -1    0    0    0  501 -0.00000000000E+00 -0.00000000000E+00 -0.69661940847E+03  0.69661940847E+03  0.00000000000E+00 0.  1.
         23    2    1    2    0    0 -0.49497567952E+02 -0.21231549894E+01 -0.41144913473E+03  0.43288877132E+03  0.12509109016E+03 0.  0.
          5    1    3    3  502    0 -0.33754586156E+02 -0.13244280975E+02 -0.21338457350E+02  0.42279844219E+02  0.41800000000E+01 0.  1.
         -5    1    3    3    0  502 -0.15742981796E+02  0.11121125986E+02 -0.39011067738E+03  0.39060892710E+03  0.41800000000E+01 0.  1.
        -11    1    1    2    0    0  0.73156836378E+02  0.36654740751E+01 -0.14862409182E+03  0.16569393193E+03  0.00000000000E+00 0. -1.
         11    1    1    2    0    0 -0.23659268426E+02 -0.15423190858E+01 -0.11609327491E+03  0.11848961224E+03  0.00000000000E+00 0.  1.
</event>
<event>
 7    1  0.5109948E-006  0.1205455E+03  0.7561462E-02  0.1242200E+00
          1   -1    0    0  501    0  0.00000000000E+00  0.00000000000E+00  0.80817149536E+02  0.80817149536E+02  0.00000000000E+00 0. -1.
         -1   -1    0    0    0  501 -0.00000000000E+00 -0.00000000000E+00 -0.22116417694E+03  0.22116417694E+03  0.00000000000E+00 0.  1.
         23    2    1    2    0    0  0.57821102526E+02 -0.45802317800E+02 -0.10829414699E+03  0.18115544152E+03  0.12509412259E+03 0.  0.
          5    1    3    3  502    0  0.26516096218E+02 -0.76915336833E+02 -0.22390050470E+02  0.84485851826E+02  0.41800000000E+01 0. -1.
         -5    1    3    3    0  502  0.31305006307E+02  0.31113019033E+02 -0.85904096517E+02  0.96669589694E+02  0.41800000000E+01 0. -1.
        -11    1    1    2    0    0 -0.76709545630E+02  0.54895773014E+02 -0.32746374302E+02  0.99851015596E+02  0.00000000000E+00 0.  1.
         11    1    1    2    0    0  0.18888443105E+02 -0.90934552145E+01  0.69349389061E+00  0.20974869354E+02  0.00000000000E+00 0. -1.
</event>
<event>
 7    1  0.5109948E-006  0.9259440E+02  0.7561462E-02  0.1296688E+00
          1   -1    0    0  501    0  0.00000000000E+00  0.00000000000E+00  0.57364492822E+02  0.57364492822E+02  0.00000000000E+00 0. -1.
         -1   -1    0    0    0  501 -0.00000000000E+00 -0.00000000000E+00 -0.23988209016E+03  0.23988209016E+03  0.00000000000E+00 0.  1.
         23    2    1    2    0    0  0.22595743659E+02  0.83382554110E+01 -0.14299637250E+03  0.19151178303E+03  0.12509478949E+03 0.  0.
          5    1    3    3  502    0  0.43259136950E-01  0.57253710548E+02 -0.26767208878E+02  0.63339917224E+02  0.41800000000E+01 0. -1.
         -5    1    3    3    0  502  0.22552484522E+02 -0.48915455137E+02 -0.11622916362E+03  0.12817186581E+03  0.41800000000E+01 0. -1.
        -11    1    1    2    0    0 -0.46690790962E+02 -0.14492225017E+02  0.10382013294E+02  0.49978402802E+02  0.00000000000E+00 0. -1.
         11    1    1    2    0    0  0.24095047303E+02  0.61539696061E+01 -0.49903238130E+02  0.55756397142E+02  0.00000000000E+00 0.  1.
</event>
<event>
 7    1  0.5109948E-006  0.1090526E+03  0.7561462E-02  0.1262334E+00
          1   -1    0    0  501    0  0.00000000000E+00  0.00000000000E+00  0.26860131656E+03  0.26860131656E+03  0.00000000000E+00 0. -1.
         -1   -1    0    0    0  501 -0.00000000000E+00 -0.00000000000E+00 -0.55709548348E+02  0.55709548348E+02  0.00000000000E+00 0.  1.
         23    2    1    2    0    0  0.42809997571E+02 -0.39130652214E+01  0.71521222016E+02  0.15036750255E+03  0.12508833940E+03 0.  0.
          5    1    3    3  502    0  0.86015809842E+01  0.52461111815E+02  0.64847971882E+02  0.83957651858E+02  0.41800000000E+01 0.  1.
         -5    1    3    3    0  502  0.34208416586E+02 -0.56374177036E+02  0.66732501341E+01  0.66409850694E+02  0.41800000000E+01 0.  1.
        -11    1    1    2    0    0  0.22413686594E+02  0.21598884886E+02  0.27526305543E+02  0.41552168077E+02  0.00000000000E+00 0.  1.
         11    1    1    2    0    0 -0.65223684164E+02 -0.17685819664E+02  0.11384424066E+03  0.13239119428E+03  0.00000000000E+00 0. -1.
</event>
<event>
 7    1  0.5109948E-006  0.1677570E+03  0.7561462E-02  0.1180207E+00
          2   -1    0    0  501    0  0.00000000000E+00  0.00000000000E+00  0.11207828217E+04  0.11207828217E+04  0.00000000000E+00 0. -1.
         -2   -1    0    0    0  501 -0.00000000000E+00 -0.00000000000E+00 -0.28750982271E+02  0.28750982271E+02  0.00000000000E+00 0.  1.
         23    2    1    2    0    0  0.12367205417E+03 -0.63492527122E+02  0.47581250918E+03  0.51123576233E+03  0.12505351982E+03 0.  0.
          5    1    3    3  502    0  0.12359904518E+03 -0.19058698603E+02  0.42762129950E+03  0.44555292182E+03  0.41800000000E+01 0. -1.
         -5    1    3    3    0  502  0.73008981372E-01 -0.44433828519E+02  0.48191209679E+02  0.65682840510E+02  0.41800000000E+01 0. -1.
        -11    1    1    2    0    0 -0.66698276701E+02  0.82137189460E+02  0.42023736614E+03  0.43335276843E+03  0.00000000000E+00 0. -1.
         11    1    1    2    0    0 -0.56973777465E+02 -0.18644662338E+02  0.19598196416E+03  0.20494527325E+03  0.00000000000E+00 0.  1.
</event>
<event>
 7    1  0.5109948E-006  0.9298880E+02  0.7561462E-02  0.1295771E+00
         -1   -1    0    0    0  501 -0.00000000000E+00  0.00000000000E+00  0.17018732446E+03  0.17018732446E+03  0.00000000000E+00 0.  1.
          1   -1    0    0  501    0  0.00000000000E+00 -0.00000000000E+00 -0.96158960946E+02  0.96158960946E+02  0.00000000000E+00 0. -1.
         23    2    1    2    0    0 -0.56515535552E+01 -0.63386144328E+02  0.64332820181E+02  0.15439066610E+03  0.12509205680E+03 0.  0.
          5    1    3    3  502    0  0.47228285048E+02 -0.18733228923E+02  0.67963541455E+02  0.84958578976E+02  0.41800000000E+01 0.  1.
         -5    1    3    3    0  502 -0.52879838603E+02 -0.44652915405E+02 -0.36307212741E+01  0.69432087120E+02  0.41800000000E+01 0.  1.
        -11    1    1    2    0    0 -0.57194347497E+01  0.23459997043E+02  0.49101162470E+02  0.54717525081E+02  0.00000000000E+00 0.  1.
         11    1    1    2    0    0  0.11370988305E+02  0.39926147285E+02 -0.39405619134E+02  0.57238094232E+02  0.00000000000E+00 0. -1.
</event>
<event>
 7    1  0.5109948E-006  0.8701677E+02  0.7561462E-02  0.1310241E+00
         -1   -1    0    0    0  501 -0.00000000000E+00  0.00000000000E+00  0.58573035466E+02  0.58573035466E+02  0.00000000000E+00 0.  1.
          1   -1    0    0  501    0  0.00000000000E+00 -0.00000000000E+00 -0.26630188966E+03  0.26630188966E+03  0.00000000000E+00 0. -1.
         23    2    1    2    0    0  0.13880634519E+02  0.40109977537E+02 -0.63048937699E+02  0.14679811364E+03  0.12559074532E+03 0.  0.
          5    1    3    3  502    0  0.53001588300E+02  0.43243724021E+02 -0.78684932966E+02  0.10434547956E+03  0.41800000000E+01 0.  1.
         -5    1    3    3    0  502 -0.39120953781E+02 -0.31337464836E+01  0.15635995267E+02  0.42452634073E+02  0.41800000000E+01 0.  1.
        -11    1    1    2    0    0 -0.31672036485E+02 -0.14459862932E+02 -0.14260261910E+03  0.14679139112E+03  0.00000000000E+00 0. -1.
         11    1    1    2    0    0  0.17791401966E+02 -0.25650114605E+02 -0.20772973878E+01  0.31285420368E+02  0.00000000000E+00 0.  1.
</event>
<event>
 7    1  0.5109948E-006  0.9283662E+02  0.7561462E-02  0.1296124E+00
          2   -1    0    0  501    0  0.00000000000E+00  0.00000000000E+00  0.38719961400E+03  0.38719961400E+03  0.00000000000E+00 0.  1.
         -2   -1    0    0    0  501 -0.00000000000E+00 -0.00000000000E+00 -0.56270668225E+02  0.56270668225E+02  0.00000000000E+00 0. -1.
         23    2    1    2    0    0  0.78388387213E+02 -0.92246607484E+01  0.87637694564E+02  0.17192417730E+03  0.12509086144E+03 0.  0.
          5    1    3    3  502    0  0.55598216934E+02  0.26013960521E+02 -0.12931978982E+02  0.62869677497E+02  0.41800000000E+01 0. -1.
         -5    1    3    3    0  502  0.22790170280E+02 -0.35238621269E+02  0.10056967355E+03  0.10905449980E+03  0.41800000000E+01 0. -1.
        -11    1    1    2    0    0 -0.36756071733E+02 -0.67714429798E+01  0.17279253283E+02  0.41175646240E+02  0.00000000000E+00 0. -1.
         11    1    1    2    0    0 -0.41632315480E+02  0.15996103728E+02  0.22601199793E+03  0.23037045869E+03  0.00000000000E+00 0.  1.
</event>
<event>
 6    1  0.5109948E-006  0.1205814E+03  0.7561462E-02  0.1242141E+00
         -1   -1    0    0    0  501 -0.00000000000E+00  0.00000000000E+00  0.32845185168E+02  0.32845185168E+02  0.00000000000E+00 0.  1.
          1   -1    0    0  501    0  0.00000000000E+00 -0.00000000000E+00 -0.55435536028E+03  0.55435536028E+03  0.00000000000E+00 0. -1.
          5    1    1    2  502    0  0.49548495506E+02 -0.62864231323E+02 -0.10055230496E+03  0.12858928190E+03  0.41800000000E+01 0. -1.
         -5    1    1    2    0  502  0.19854155759E+02  0.64712060998E+02 -0.14919762092E+03  0.16388789104E+03  0.41800000000E+01 0.  1.
        -11    1    1    2    0    0 -0.53436587926E+02 -0.29664981850E+02 -0.81999667333E+02  0.10227133284E+03  0.00000000000E+00 0.  1.
         11    1    1    2    0    0 -0.15966063338E+02  0.27817152175E+02 -0.18976058189E+03  0.19245203967E+03  0.00000000000E+00 0. -1.
</event>
<event>
 7    1  0.5109948E-006  0.9414721E+02  0.7561462E-02  0.1293108E+00
          1   -1    0    0  501    0  0.00000000000E+00  0.00000000000E+00  0.30093889511E+02  0.30093889511E+02  0.00000000000E+00 0. -1.
         -1   -1    0    0    0  501 -0.00000000000E+00 -0.00000000000E+00 -0.56012719918E+03  0.56012719918E+03  0.00000000000E+00 0.  1.
         23    2    1    2    0    0 -0.51610283623E+02  0.13232189000E+02 -0.40516711043E+03  0.42737219253E+03  0.12509153196E+03 0.  0.
          5    1    3    3  502    0 -0.74386587719E+02  0.46332692607E+02 -0.33606380920E+03  0.34732756742E+03  0.41800000000E+01 0. -1.
         -5    1    3    3    0  502  0.22776304096E+02 -0.33100503607E+02 -0.69103301235E+02  0.80044625109E+02  0.41800000000E+01 0. -1.
        -11    1    1    2    0    0  0.24475650931E+02 -0.20659733131E+02  0.27700718817E+01  0.32148955812E+02  0.00000000000E+00 0. -1.
         11    1    1    2    0    0  0.27134632692E+02  0.74275441310E+01 -0.12763627112E+03  0.13069994035E+03  0.00000000000E+00 0.  1.
</event>
<event>
 7    1  0.5109948E-006  0.8525127E+02  0.7561462E-02  0.1314777E+00
          2   -1    0    0  501    0  0.00000000000E+00  0.00000000000E+00  0.16417712228E+03  0.16417712228E+03  0.00000000000E+00 0. -1.
         -2   -1    0    0    0  501 -0.00000000000E+00 -0.00000000000E+00 -0.75406879306E+02  0.75406879306E+02  0.00000000000E+00 0.  1.
         23    2    1    2    0    0  0.17833293243E+01 -0.23895754089E+02  0.34311761856E+02  0.13190601804E+03  0.12509082008E+03 0.  0.
          5    1    3    3  502    0 -0.48462327426E+02  0.23425006825E+02  0.31916262636E+02  0.62717209321E+02  0.41800000000E+01 0. -1.
         -5    1    3    3    0  502  0.50245656751E+02 -0.47320760914E+02  0.23954992204E+01  0.69188808722E+02  0.41800000000E+01 0. -1.
        -11    1    1    2    0    0 -0.34930870560E+01 -0.11454223528E+02  0.68547328987E+02  0.69585466910E+02  0.00000000000E+00 0. -1.
         11    1    1    2    0    0  0.17097577317E+01  0.35349977617E+02 -0.14088847872E+02  0.38092516632E+02  0.00000000000E+00 0.  1.
</event>
<event>
 7    1  0.5109948E-006  0.1018188E+03  0.7561462E-02  0.1276517E+00
          2   -1    0    0  501    0  0.00000000000E+00  0.00000000000E+00  0.24200376232E+03  0.24200376232E+03  0.00000000000E+00 0. -1.
         -2   -1    0    0    0  501 -0.00000000000E+00 -0.00000000000E+00 -0.63540691945E+02  0.63540691945E+02  0.00000000000E+00 0.  1.
         23    2    1    2    0    0  0.11777923804E+02  0.43211730932E+02  0.49555968537E+02  0.14180557076E+03  0.12508817970E+03 0.  0.
          5    1    3    3  502    0  0.50539266798E+02  0.38028257838E+02  0.72476900242E+02  0.96284678695E+02  0.41800000000E+01 0.  1.
         -5    1    3    3    0  502 -0.38761342995E+02  0.51834730934E+01 -0.22920931706E+02  0.45520892064E+02  0.41800000000E+01 0.  1.
        -11    1    1    2    0    0  0.35725364765E+02  0.14028815882E+01  0.43472960075E+02  0.56286481699E+02  0.00000000000E+00 0.  1.
         11    1    1    2    0    0 -0.47503288569E+02 -0.44614612520E+02  0.85434141759E+02  0.10745240180E+03  0.00000000000E+00 0. -1.
</event>
<event>
 7    1  0.5109948E-006  0.9456844E+02  0.7561462E-02  0.1292151E+00
          1   -1    0    0  501    0  0.00000000000E+00  0.00000000000E+00  0.21998821148E+02  0.21998821148E+02  0.00000000000E+00 0. -1.
         -1   -1    0    0    0  501 -0.00000000000E+00 -0.00000000000E+00 -0.64128163923E+03  0.64128163923E+03  0.00000000000E+00 0.  1.
         23    2    1    2    0    0  0.85470307028E+01  0.34588537405E+02 -0.44547958477E+03  0.46407823447E+03  0.12508848310E+03 0.  0.
          5    1    3    3  502    0 -0.36976057297E+01  0.62671577113E+02 -0.10654697297E+03  0.12373814575E+03  0.41800000000E+01 0.  1.
         -5    1    3    3    0  502  0.12244636432E+02 -0.28083039708E+02 -0.33893261181E+03  0.34034008872E+03  0.41800000000E+01 0.  1.
        -11    1    1    2    0    0 -0.23113816484E+02 -0.60946229378E+02 -0.13646450884E+03  0.15123244877E+03  0.00000000000E+00 0.  1.
         11    1    1    2    0    0  0.14566785781E+02  0.26357691973E+02 -0.37338724476E+02  0.47969777148E+02  0.00000000000E+00 0. -1.
</event>
<event>
 7    1  0.5109948E-006  0.1483434E+03  0.7561462E-02  0.1202524E+00
          1   -1    0    0  501    0  0.00000000000E+00  0.00000000000E+00  0.28903420406E+03  0.28903420406E+03  0.00000000000E+00 0. -1.
         -1   -1    0    0    0  501 -0.00000000000E+00 -0.00000000000E+00 -0.17218561958E+03  0.17218561958E+03  0.00000000000E+00 0.  1.
         23    2    1    2    0    0 -0.12759920862E+03 -0.16057615576E+02 -0.90660649395E+02  0.20101430639E+03  0.12509193805E+03 0.  0.
          5    1    3    3  502    0 -0.13114315091E+03 -0.25557632241E+02 -0.26948373713E+02  0.13636497293E+03  0.41800000000E+01 0.  1.
         -5    1    3    3    0  502  0.35439422961E+01  0.95000166643E+01 -0.63712275682E+02  0.64649333455E+02  0.41800000000E+01 0.  1.
        -11    1    1    2    0    0  0.10852708965E+03 -0.20838622123E+02  0.11878760143E+03  0.16224324828E+03  0.00000000000E+00 0. -1.
         11    1    1    2    0    0  0.19072118965E+02  0.36896237700E+02  0.88721632446E+02  0.97962268971E+02  0.00000000000E+00 0.  1.
</event>
<event>
 7    1  0.5109948E-006  0.6905094E+02  0.7561462E-02  0.1363350E+00
         -1   -1    0    0    0  501 -0.00000000000E+00  0.00000000000E+00  0.49840570745E+02  0.49840570745E+02  0.00000000000E+00 0.  1.
          1   -1    0    0  501    0  0.00000000000E+00 -0.00000000000E+00 -0.25861393095E+03  0.25861393095E+03  0.00000000000E+00 0. -1.
         23    2    1    2    0    0  0.19692536223E+02 -0.14974972753E+02 -0.86110926240E+02  0.15386389094E+03  0.12508780727E+03 0.  0.
          5    1    3    3  502    0  0.16655078644E+01 -0.36139440931E+02  0.21736704241E+02  0.42412142348E+02  0.41800000000E+01 0.  1.
         -5    1    3    3    0  502  0.18027028359E+02  0.21164468178E+02 -0.10784763048E+03  0.11145174860E+03  0.41800000000E+01 0.  1.
        -11    1    1    2    0    0 -0.31560202775E+02  0.36950678858E+02 -0.12000953368E+03  0.12947465868E+03  0.00000000000E+00 0. -1.
         11    1    1    2    0    0  0.11867666552E+02 -0.21975706105E+02 -0.26529002828E+01  0.25115952065E+02  0.00000000000E+00 0.  1.
</event>
<event>
 7    1  0.5109948E-006  0.1264252E+03  0.7561462E-02  0.1232859E+00
         -1   -1    0    0    0  501 -0.00000000000E+00  0.00000000000E+00  0.26332672238E+03  0.26332672238E+03  0.00000000000E+00 0.  1.
          1   -1    0    0  501    0  0.00000000000E+00 -0.00000000000E+00 -0.11204697601E+03  0.11204697601E+03  0.00000000000E+00 0. -1.
         23    2    1    2    0    0 -0.73663782659E+02 -0.27499311914E+02  0.19748055369E+03  0.24663465836E+03  0.12509004992E+03 0.  0.
          5    1    3    3  502    0  0.27929944102E+02  0.21103384699E+01  0.95507335681E+02  0.99617563084E+02  0.41800000000E+01 0.  1.
         -5    1    3    3    0  502 -0.10159372676E+03 -0.29609650383E+02  0.10197321801E+03  0.14701709528E+03  0.41800000000E+01 0.  1.
        -11    1    1    2    0    0  0.93093556615E+02  0.32432329385E+02 -0.30240701626E+02  0.10311530588E+03  0.00000000000E+00 0.  1.
         11    1    1    2    0    0 -0.19429773956E+02 -0.49330174719E+01 -0.15960105695E+02  0.25623734137E+02  0.00000000000E+00 0. -1.
</event>
<event>
 7    1  0.5109948E-006  0.1208381E+03  0.7561462E-02  0.1241721E+00
          2   -1    0    0  501    0  0.00000000000E+00  0.00000000000E+00  0.11269881566E+03  0.11269881566E+03  0.00000000000E+00 0.  1.
         -2   -1    0    0    0  501 -0.00000000000E+00 -0.00000000000E+00 -0.19217795401E+03  0.19217795401E+03  0.00000000000E+00 0. -1.
         23    2    1    2    0    0  0.30462165719E+02 -0.78844388067E+02 -0.86585473826E+02  0.17403697039E+03  0.12508973465E+03 0.  0.
          5    1    3    3  502    0  0.59017102661E+01 -0.10787913783E+03 -0.43841012675E+02  0.11667152761E+03  0.41800000000E+01 0. -1.
         -5    1    3    3    0  502  0.24560455453E+02  0.29034749763E+02 -0.42744461151E+02  0.57365442776E+02  0.41800000000E+01 0. -1.
        -11    1    1    2    0    0 -0.17046055869E+02  0.80032765721E+02  0.43045807162E+02  0.92459467464E+02  0.00000000000E+00 0.  1.
         11    1    1    2    0    0 -0.13416109850E+02 -0.11883776534E+01 -0.35939471686E+02  0.38380331813E+02  0.00000000000E+00 0. -1.
</event>
<event>
 7    1  0.5109948E-006  0.1457652E+03  0.7561462E-02  0.1205775E+00
         -1   -1    0    0    0  501 -0.00000000000E+00  0.00000000000E+00  0.12535166418E+03  0.12535166418E+03  0.00000000000E+00 0.  1.
          1   -1    0    0  501    0  0.00000000000E+00 -0.00000000000E+00 -0.23872319505E+03  0.23872319505E+03  0.00000000000E+00 0. -1.
         23    2    1    2    0    0  0.61906994110E+02 -0.92935047171E+02 -0.13857176077E+03  0.21752900134E+03  0.12508930660E+03 0.  0.
          5    1    3    3  502    0 -0.31978182480E+02 -0.78840168078E+01 -0.59504039905E+02  0.68139306136E+02  0.41800000000E+01 0.  1.
         -5    1    3    3    0  502  0.93885176590E+02 -0.85051030364E+02 -0.79067720870E+02  0.14938969520E+03  0.41800000000E+01 0.  1.
        -11    1    1    2    0    0  0.77308864125E+01  0.48190512645E+02  0.39195816923E+02  0.62597157907E+02  0.00000000000E+00 0. -1.
         11    1    1    2    0    0 -0.69637880523E+02  0.44744534526E+02 -0.13995587020E+02  0.83948699988E+02  0.00000000000E+00 0.  1.
</event>
<event>
 7    1  0.5109948E-006  0.1167665E+03  0.7561462E-02  0.1248529E+00
         -2   -1    0    0    0  501 -0.00000000000E+00  0.00000000000E+00  0.78151538048E+02  0.78151538048E+02  0.00000000000E+00 0. -1.
          2   -1    0    0  501    0  0.00000000000E+00 -0.00000000000E+00 -0.21444591934E+03  0.21444591934E+03  0.00000000000E+00 0.  1.
         23    2    1    2    0    0  0.54511347819E+02 -0.12539210803E+02 -0.30391458078E+02  0.14035809124E+03  0.12509210288E+03 0.  0.
          5    1    3    3  502    0 -0.37659627789E+02  0.61861157198E+01 -0.25489949555E+02  0.46083896550E+02  0.41800000000E+01 0. -1.
         -5    1    3    3    0  502  0.92170975608E+02 -0.18725326523E+02 -0.49015085221E+01  0.94274194686E+02  0.41800000000E+01 0. -1.
        -11    1    1    2    0    0 -0.57450833313E+02  0.42139189484E+02 -0.98533952461E+02  0.12159461060E+03  0.00000000000E+00 0.  1.
         11    1    1    2    0    0  0.29394854937E+01 -0.29599978681E+02 -0.73689707502E+01  0.30644755551E+02  0.00000000000E+00 0. -1.
</event>
<event>
 7    1  0.5109948E-006  0.1193131E+03  0.7561462E-02  0.1244234E+00
          4   -1    0    0  501    0  0.00000000000E+00  0.00000000000E+00  0.11038256835E+03  0.11038256835E+03  0.00000000000E+00 0. -1.
         -4   -1    0    0    0  501 -0.00000000000E+00 -0.00000000000E+00 -0.15276256624E+03  0.15276256624E+03  0.00000000000E+00 0.  1.
         23    2    1    2    0    0 -0.29279536950E+02 -0.58270382575E+02 -0.65502337035E+01  0.14121579079E+03  0.12508503203E+03 0.  0.
          5    1    3    3  502    0 -0.27757562437E+02  0.35500482729E+02 -0.13088439997E+02  0.47112060112E+02  0.41800000000E+01 0.  1.
         -5    1    3    3    0  502 -0.15219745127E+01 -0.93770865304E+02  0.65382062932E+01  0.94103730680E+02  0.41800000000E+01 0.  1.
        -11    1    1    2    0    0  0.37732230828E+02  0.73190593268E+02 -0.52788187478E+02  0.97811946732E+02  0.00000000000E+00 0. -1.
         11    1    1    2    0    0 -0.84526938785E+01 -0.14920210693E+02  0.16958423286E+02  0.24117397067E+02  0.00000000000E+00 0.  1.
</event>
<event>
 7    1  0.5109948E-006  0.1652129E+03  0.7561462E-02  0.1182934E+00
          1   -1    0    0  501    0  0.00000000000E+00  0.00000000000E+00  0.76687081664E+02  0.76687081664E+02  0.00000000000E+00 0. -1.
         -1   -1    0    0    0  501 -0.00000000000E+00 -0.00000000000E+00 -0.48996642127E+03  0.48996642127E+03  0.00000000000E+00 0.  1.
         23    2    1    2    0    0 -0.12294016539E+03  0.10183562754E+03 -0.20874332649E+03  0.29104284434E+03  0.12508949431E+03 0.  0.
          5    1    3    3  502    0 -0.70645135136E+02  0.46332559292E+02 -0.19618621137E+03  0.21364443147E+03  0.41800000000E+01 0.  1.
         -5    1    3    3    0  502 -0.52295030256E+02  0.55503068249E+02 -0.12557115124E+02  0.77398412870E+02  0.41800000000E+01 0.  1.
        -11    1    1    2    0    0  0.41956139898E+02 -0.71667469898E+02 -0.45707595450E+02  0.94793080964E+02  0.00000000000E+00 0.  1.
         11    1    1    2    0    0  0.80984025493E+02 -0.30168157643E+02 -0.15882841767E+03  0.18081757763E+03  0.00000000000E+00 0. -1.
</event>
<event>
 7    1  0.5109948E-006  0.1828588E+03  0.7561462E-02  0.1165065E+00
         -1   -1    0    0    0  501 -0.00000000000E+00  0.00000000000E+00  0.66365898452E+03  0.66365898452E+03  0.00000000000E+00 0.  1.
          1   -1    0    0  501    0  0.00000000000E+00 -0.00000000000E+00 -0.66417171260E+02  0.66417171260E+02  0.00000000000E+00 0. -1.
         23    2    1    2    0    0 -0.36440712740E+02 -0.16253045029E+03  0.42518016706E+03  0.47346592205E+03  0.12509089523E+03 0.  0.
          5    1    3    3  502    0 -0.56770719881E+02 -0.14656729448E+03  0.24312726993E+03  0.28953968335E+03  0.41800000000E+01 0.  1.
         -5    1    3    3    0  502  0.20330007141E+02 -0.15963155815E+02  0.18205289712E+03  0.18392623871E+03  0.41800000000E+01 0.  1.
        -11    1    1    2    0    0  0.57327331360E+02  0.89036594561E+02  0.13532325195E+03  0.17183224555E+03  0.00000000000E+00 0.  1.
         11    1    1    2    0    0 -0.20886618620E+02  0.73493855732E+02  0.36738394254E+02  0.84777988181E+02  0.00000000000E+00 0. -1.
</event>
<event>
 7    1  0.5109948E-006  0.1278599E+03  0.7561462E-02  0.1230666E+00
         -1   -1    0    0    0  501 -0.00000000000E+00  0.00000000000E+00  0.11262202254E+04  0.11262202254E+04  0.00000000000E+00 0.  1.
          1   -1    0    0  501    0  0.00000000000E+00 -0.00000000000E+00 -0.28701536857E+02  0.28701536857E+02  0.00000000000E+00 0. -1.
         23    2    1    2    0    0 -0.18331367336E+02 -0.11104379769E+03  0.86762265546E+03  0.88378897872E+03  0.12508845912E+03 0.  0.
          5    1    3    3  502    0  0.66017662611E+01 -0.80008092244E+02  0.80791578049E+03  0.81190532632E+03  0.41800000000E+01 0.  1.
         -5    1    3    3    0  502 -0.24933133597E+02 -0.31035705449E+02  0.59706874970E+02  0.71883652400E+02  0.41800000000E+01 0.  1.
        -11    1    1    2    0    0 -0.18470284785E+02  0.16065679761E+00  0.74276167261E+02  0.76538397250E+02  0.00000000000E+00 0.  1.
         11    1    1    2    0    0  0.36801652121E+02  0.11088314090E+03  0.15561986580E+03  0.19459438626E+03  0.00000000000E+00 0. -1.
</event>
<event>
 7    1  0.5109948E-006  0.7394092E+02  0.7561462E-02  0.1347182E+00
          1   -1    0    0  501    0  0.00000000000E+00  0.00000000000E+00  0.18342832619E+03  0.18342832619E+03  0.00000000000E+00 0. -1.
         -1   -1    0    0    0  501 -0.00000000000E+00 -0.00000000000E+00 -0.74528097809E+02  0.74528097809E+02  0.00000000000E+00 0.  1.
         23    2    1    2    0    0 -0.15989969281E+01  0.41917398401E+02  0.46595258104E+02  0.13992403070E+03  0.12509193104E+03 0.  0.
          5    1    3    3  502    0  0.38121485992E+01 -0.64821561960E+01 -0.39767723542E+02  0.40687775334E+02  0.41800000000E+01 0. -1.
         -5    1    3    3    0  502 -0.54111455273E+01  0.48399554597E+02  0.86362981646E+02  0.99236255370E+02  0.41800000000E+01 0. -1.
        -11    1    1    2    0    0 -0.27529401812E+02  0.11277803880E+02 -0.17751710590E+01  0.29802819611E+02  0.00000000000E+00 0.  1.
         11    1    1    2    0    0  0.29128398740E+02 -0.53195202281E+02  0.64080141339E+02  0.88229573687E+02  0.00000000000E+00 0. -1.
</event>
<event>
 7    1  0.5109948E-006  0.6846804E+02  0.7561462E-02  0.1365381E+00
          2   -1    0    0  501    0  0.00000000000E+00  0.00000000000E+00  0.32886201820E+02  0.32886201820E+02  0.00000000000E+00 0. -1.
         -2   -1    0    0    0  501 -0.00000000000E+00 -0.00000000000E+00 -0.52669096799E+03  0.52669096799E+03  0.00000000000E+00 0.  1.
         23    2    1    2    0    0 -0.31676552839E+02 -0.59821603215E+02 -0.36971037547E+03  0.39612557159E+03  0.12509068122E+03 0.  0.
          5    1    3    3  502    0 -0.11812682272E+02 -0.32950356946E+02 -0.12608759818E+02  0.37439534044E+02  0.41800000000E+01 0.  1.
         -5    1    3    3    0  502 -0.19863870567E+02 -0.26871246269E+02 -0.35710161565E+03  0.35868603755E+03  0.41800000000E+01 0.  1.
        -11    1    1    2    0    0  0.96301203519E+01  0.25027665973E+02 -0.11895667714E+03  0.12194184810E+03  0.00000000000E+00 0.  1.
         11    1    1    2    0    0  0.22046432487E+02  0.34793937241E+02 -0.51377135596E+01  0.41509750117E+02  0.00000000000E+00 0. -1.
</event>
<event>
 7    1  0.5109948E-006  0.8853562E+02  0.7561462E-02  0.1306437E+00
          1   -1    0    0  501    0  0.00000000000E+00  0.00000000000E+00  0.55314838158E+03  0.55314838158E+03  0.00000000000E+00 0. -1.
         -1   -1    0    0    0  501 -0.00000000000E+00 -0.00000000000E+00 -0.27706981673E+02  0.27706981673E+02  0.00000000000E+00 0.  1.
         23    2    1    2    0    0  0.49185382932E+01 -0.81389599719E+01  0.15501709037E+03  0.19941878050E+03  0.12508843680E+03 0.  0.
          5    1    3    3  502    0 -0.33614433619E+02  0.23585733453E+02  0.53841559221E+01  0.41625455012E+02  0.41800000000E+01 0. -1.
         -5    1    3    3    0  502  0.38532971912E+02 -0.31724693425E+02  0.14963293444E+03  0.15779332548E+03  0.41800000000E+01 0. -1.
        -11    1    1    2    0    0  0.38878766860E+02 -0.67278502608E+01  0.10831486025E+03  0.11527762764E+03  0.00000000000E+00 0.  1.
         11    1    1    2    0    0 -0.43797305153E+02  0.14866810233E+02  0.26210944929E+03  0.26615895512E+03  0.00000000000E+00 0. -1.
</event>
<event>
 7    1  0.5109948E-006  0.1245921E+03  0.7561462E-02  0.1235708E+00
          1   -1    0    0  501    0  0.00000000000E+00  0.00000000000E+00  0.12307053877E+03  0.12307053877E+03  0.00000000000E+00 0. -1.
         -1   -1    0    0    0  501 -0.00000000000E+00 -0.00000000000E+00 -0.16679301318E+03  0.16679301318E+03  0.00000000000E+00 0.  1.
         23    2    1    2    0    0  0.79520373133E+02 -0.50574248565E+02 -0.27375227222E+02  0.15898576261E+03  0.12508327341E+03 0.  0.
          5    1    3    3  502    0 -0.33270861249E+02 -0.13103357175E+02  0.33430348164E+01  0.36156554859E+02  0.41800000000E+01 0.  1.
         -5    1    3    3    0  502  0.11279123438E+03 -0.37470891391E+02 -0.30718262038E+02  0.12282920775E+03  0.41800000000E+01 0.  1.
        -11    1    1    2    0    0 -0.37616270177E+02  0.22893846639E+02  0.37068782309E+02  0.57560460542E+02  0.00000000000E+00 0. -1.
         11    1    1    2    0    0 -0.41904102956E+02  0.27680401927E+02 -0.53416029487E+02  0.73317328795E+02  0.00000000000E+00 0.  1.
</event>
<event>
 7    1  0.5109948E-006  0.1195920E+03  0.7561462E-02  0.1243772E+00
          2   -1    0    0  501    0  0.00000000000E+00  0.00000000000E+00  0.34169571026E+03  0.34169571026E+03  0.00000000000E+00 0. -1.
         -2   -1    0    0    0  501 -0.00000000000E+00 -0.00000000000E+00 -0.64245996135E+02  0.64245996135E+02  0.00000000000E+00 0.  1.
         23    2    1    2    0    0  0.73021909402E+01 -0.94210058055E+02  0.11168322764E+03  0.19246976743E+03  0.12507042419E+03 0.  0.
          5    1    3    3  502    0 -0.51004799520E+01 -0.91959758313E+02  0.13626840395E+03  0.16452708701E+03  0.41800000000E+01 0.  1.
         -5    1    3    3    0  502  0.12402670892E+02 -0.22502997424E+01 -0.24585176319E+02  0.27942680416E+02  0.41800000000E+01 0.  1.
        -11    1    1    2    0    0  0.20491958831E+02  0.10263835129E+03  0.11960593801E+03  0.15893436362E+03  0.00000000000E+00 0. -1.
         11    1    1    2    0    0 -0.27794149771E+02 -0.84282932359E+01  0.46160548481E+02  0.54537575344E+02  0.00000000000E+00 0.  1.
</event>
<event>
 7    1  0.5109948E-006  0.9263358E+02  0.7561462E-02  0.1296597E+00
         -1   -1    0    0    0  501 -0.00000000000E+00  0.00000000000E+00  0.31935650701E+03  0.31935650701E+03  0.00000000000E+00 0.  1.
          1   -1    0    0  501    0  0.00000000000E+00 -0.00000000000E+00 -0.45858916208E+02  0.45858916208E+02  0.00000000000E+00 0. -1.
         23    2    1    2    0    0  0.41585341319E+02 -0.25289834325E+02  0.18500338756E+03  0.22856949926E+03  0.12509534864E+03 0.  0.
          5    1    3    3  502    0  0.79528997230E+01  0.24347183997E+02 -0.74085396761E+01  0.26988754005E+02  0.41800000000E+01 0. -1.
         -5    1    3    3    0  502  0.33632441596E+02 -0.49637018322E+02  0.19241192723E+03  0.20158074525E+03  0.41800000000E+01 0. -1.
        -11    1    1    2    0    0 -0.20344991247E+02 -0.32107216035E+02  0.55065324764E+02  0.66910253188E+02  0.00000000000E+00 0.  1.
         11    1    1    2    0    0 -0.21240350072E+02  0.57397050360E+02  0.33428878479E+02  0.69735670769E+02  0.00000000000E+00 0. -1.
</event>
<event>
 6    1  0.5109948E-006  0.1733152E+03  0.7561462E-02  0.1174434E+00
         -1   -1    0    0    0  501 -0.00000000000E+00  0.00000000000E+00  0.93563468006E+02  0.93563468006E+02  0.00000000000E+00 0.  1.
          1   -1    0    0  501    0  0.00000000000E+00 -0.00000000000E+00 -0.91485972571E+03  0.91485972571E+03  0.00000000000E+00 0. -1.
          5    1    1    2  502    0  0.19133288290E+02 -0.17077286103E+02  0.55677967750E+02  0.61442858936E+02  0.41800000000E+01 0. -1.
         -5    1    1    2    0  502 -0.10816071511E+03 -0.10118398114E+03 -0.61647339687E+03  0.63402985716E+03  0.41800000000E+01 0.  1.
        -11    1    1    2    0    0 -0.13585890603E+02  0.43346423909E+02 -0.83733395384E+02  0.95261589278E+02  0.00000000000E+00 0.  1.
         11    1    1    2    0    0  0.10261331742E+03  0.74914843335E+02 -0.17676743320E+03  0.21768888834E+03  0.00000000000E+00 0. -1.
</event>
<event>
 7    1  0.5441074E-006  0.2143997E+03  0.7561462E-02  0.1138129E+00
         -1   -1    0    0    0  501 -0.00000000000E+00  0.00000000000E+00  0.11048125331E+03  0.11048125331E+03  0.00000000000E+00 0.  1.
          1   -1    0    0  501    0  0.00000000000E+00 -0.00000000000E+00 -0.53149018814E+03  0.53149018814E+03  0.00000000000E+00 0. -1.
         23    2    1    2    0    0 -0.11405765807E+02 -0.21208335952E+03 -0.16116660452E+03  0.29450212588E+03  0.12508950737E+03 0.  0.
          5    1    3    3  502    0 -0.35364315755E+01 -0.17134913900E+03 -0.54366190902E+02  0.17985046260E+03  0.41800000000E+01 0.  1.
         -5    1    3    3    0  502 -0.78693342314E+01 -0.40734220523E+02 -0.10680041362E+03  0.11465166328E+03  0.41800000000E+01 0.  1.
        -11    1    1    2    0    0  0.25272560872E+02  0.13548579759E+03 -0.10195282790E+03  0.17143361047E+03  0.00000000000E+00 0.  1.
         11    1    1    2    0    0 -0.13866795065E+02  0.76597561935E+02 -0.15788950241E+03  0.17603570511E+03  0.00000000000E+00 0. -1.
</event>
<event>
 7    1  0.5109948E-006  0.1716372E+03  0.7561462E-02  0.1176151E+00
         -2   -1    0    0    0  501 -0.00000000000E+00  0.00000000000E+00  0.64180580111E+02  0.64180580111E+02  0.00000000000E+00 0.  1.
          2   -1    0    0  501    0  0.00000000000E+00 -0.00000000000E+00 -0.49754884381E+03  0.49754884381E+03  0.00000000000E+00 0. -1.
         23    2    1    2    0    0  0.55669527162E+02 -0.12901350330E+03 -0.21924592067E+03  0.28889432507E+03  0.12509027556E+03 0.  0.
          5    1    3    3  502    0  0.39301727621E+02 -0.15341204071E+03 -0.18281880328E+03  0.24190921285E+03  0.41800000000E+01 0.  1.
         -5    1    3    3    0  502  0.16367799542E+02  0.24398537408E+02 -0.36427117384E+02  0.46985112221E+02  0.41800000000E+01 0.  1.
        -11    1    1    2    0    0  0.15001768834E+02  0.16413368839E+02 -0.83690427782E+02  0.86594107462E+02  0.00000000000E+00 0. -1.
         11    1    1    2    0    0 -0.70671295996E+02  0.11260013446E+03 -0.13043191525E+03  0.18624099139E+03  0.00000000000E+00 0.  1.
</event>
<event>
 7    1  0.8041315E-006  0.3064295E+03  0.7561462E-02  0.1082070E+00
          1   -1    0    0  501    0  0.00000000000E+00  0.00000000000E+00  0.22927948919E+03  0.22927948919E+03  0.00000000000E+00 0. -1.
         -1   -1    0    0    0  501 -0.00000000000E+00 -0.00000000000E+00 -0.42142570744E+03  0.42142570744E+03  0.00000000000E+00 0.  1.
         23    2    1    2    0    0  0.17627775660E+03  0.23124390623E+03 -0.10744874364E+03  0.33427596131E+03  0.12509034398E+03 0.  0.
          5    1    3    3  502    0  0.19281733946E+03  0.22337845710E+03 -0.11072932397E+03  0.31520615013E+03  0.41800000000E+01 0.  1.
         -5    1    3    3    0  502 -0.16539582856E+02  0.78654491300E+01  0.32805803298E+01  0.19069811178E+02  0.41800000000E+01 0.  1.
        -11    1    1    2    0    0 -0.48254352374E+02 -0.12005500376E+03 -0.61033400597E+01  0.12953353701E+03  0.00000000000E+00 0.  1.
         11    1    1    2    0    0 -0.12802340423E+03 -0.11118890247E+03 -0.78594134541E+02  0.18689569831E+03  0.00000000000E+00 0. -1.
</event>
<event>
 7    1  0.5109948E-006  0.1102601E+03  0.7561462E-02  0.1260089E+00
         -2   -1    0    0    0  501 -0.00000000000E+00  0.00000000000E+00  0.49500973603E+02  0.49500973603E+02  0.00000000000E+00 0. -1.
          2   -1    0    0  501    0  0.00000000000E+00 -0.00000000000E+00 -0.43419820019E+03  0.43419820019E+03  0.00000000000E+00 0.  1.
         23    2    1    2    0    0 -0.56679089495E+02 -0.62839784475E+02 -0.12870634958E+03  0.19842970591E+03  0.12509063142E+03 0.  0.
          5    1    3    3  502    0 -0.73770953955E+02 -0.36091694563E+02 -0.14173563470E+03  0.16386343890E+03  0.41800000000E+01 0.  1.
         -5    1    3    3    0  502  0.17091864460E+02 -0.26748089912E+02  0.13029285121E+02  0.34566267016E+02  0.41800000000E+01 0.  1.
        -11    1    1    2    0    0 -0.86594373485E+01  0.33582243607E+02 -0.16941563633E+03  0.17292891827E+03  0.00000000000E+00 0.  1.
         11    1    1    2    0    0  0.65338526843E+02  0.29257540869E+02 -0.86575240680E+02  0.11234054961E+03  0.00000000000E+00 0. -1.
</event>
<event>
 7    1  0.5109948E-006  0.1024399E+03  0.7561462E-02  0.1275247E+00
          1   -1    0    0  501    0  0.00000000000E+00  0.00000000000E+00  0.48131924779E+03  0.48131924779E+03  0.00000000000E+00 0. -1.
         -1   -1    0    0    0  501 -0.00000000000E+00 -0.00000000000E+00 -0.43662418978E+02  0.43662418978E+02  0.00000000000E+00 0.  1.
         23    2    1    2    0    0  0.34025820802E+02  0.15655707133E+02  0.76472023050E+02  0.15132356220E+03  0.12509193628E+03 0.  0.
          5    1    3    3  502    0  0.59651118471E+02  0.43293693232E+02  0.95975471909E+01  0.74445853616E+02  0.41800000000E+01 0. -1.
         -5    1    3    3    0  502 -0.25625297669E+02 -0.27637986099E+02  0.66874475860E+02  0.76877708588E+02  0.41800000000E+01 0. -1.
        -11    1    1    2    0    0 -0.30835512410E+01 -0.48159270583E+02  0.23005042454E+03  0.23505748544E+03  0.00000000000E+00 0. -1.
         11    1    1    2    0    0 -0.30942269561E+02  0.32503563450E+02  0.13113438122E+03  0.13860061912E+03  0.00000000000E+00 0.  1.
</event>
<event>
 7    1  0.5109948E-006  0.6922859E+02  0.7561462E-02  0.1362736E+00
          1   -1    0    0  501    0  0.00000000000E+00  0.00000000000E+00  0.81407031881E+02  0.81407031881E+02  0.00000000000E+00 0. -1.
         -1   -1    0    0    0  501 -0.00000000000E+00 -0.00000000000E+00 -0.19800176025E+03  0.19800176025E+03  0.00000000000E+00 0.  1.
         23    2    1    2    0    0  0.42069397335E+00  0.11749926110E+01 -0.13830214787E+03  0.18648462985E+03  0.12508986958E+03 0.  0.
          5    1    3    3  502    0  0.43210380821E+02 -0.46356822638E+01 -0.13622556748E+03  0.14305070498E+03  0.41800000000E+01 0. -1.
         -5    1    3    3    0  502 -0.42789686847E+02  0.58106748748E+01 -0.20765803896E+01  0.43433924864E+02  0.41800000000E+01 0. -1.
        -11    1    1    2    0    0  0.19934938340E+02 -0.16545832233E+02 -0.27325004385E+02  0.37653979810E+02  0.00000000000E+00 0.  1.
         11    1    1    2    0    0 -0.20355632313E+02  0.15370839622E+02  0.49032423891E+02  0.55270182469E+02  0.00000000000E+00 0. -1.
</event>
<event>
 7    1  0.5109948E-006  0.1057956E+03  0.7561462E-02  0.1268560E+00
         -1   -1    0    0    0  501 -0.00000000000E+00  0.00000000000E+00  0.98066920179E+03  0.98066920179E+03  0.00000000000E+00 0.  1.
          1   -1    0    0  501    0  0.00000000000E+00 -0.00000000000E+00 -0.29798495218E+02  0.29798495218E+02  0.00000000000E+00 0. -1.
         23    2    1    2    0    0  0.65741037836E+02 -0.38645891545E+02  0.82072137541E+03  0.83369445020E+03  0.12508985268E+03 0.  0.
          5    1    3    3  502    0  0.50233202451E+02  0.33870776227E+02  0.53658775144E+03  0.54001341789E+03  0.41800000000E+01 0. -1.
         -5    1    3    3    0  502  0.15507835385E+02 -0.72516667772E+02  0.28413362397E+03  0.29368103230E+03  0.41800000000E+01 0. -1.
        -11    1    1    2    0    0 -0.47536645935E+02  0.24165567318E+02  0.14126325793E+03  0.15099342831E+03  0.00000000000E+00 0.  1.
         11    1    1    2    0    0 -0.18204391901E+02  0.14480324227E+02 -0.11113926766E+02  0.25779818509E+02  0.00000000000E+00 0. -1.
</event>
<event>
 7    1  0.5109948E-006  0.1046758E+03  0.7561462E-02  0.1270760E+00
         -2   -1    0    0    0  501 -0.00000000000E+00  0.00000000000E+00  0.46932340688E+02  0.46932340688E+02  0.00000000000E+00 0.  1.
          2   -1    0    0  501    0  0.00000000000E+00 -0.00000000000E+00 -0.41444926371E+03  0.41444926371E+03  0.00000000000E+00 0. -1.
         23    2    1    2    0    0  0.25085706970E+02 -0.75885797536E+02 -0.13992827871E+03  0.20399045144E+03  0.12507691287E+03 0.  0.
          5    1    3    3  502    0  0.34307498408E+02 -0.86404775701E+02 -0.37184515242E+02  0.10021452133E+03  0.41800000000E+01 0. -1.
         -5    1    3    3    0  502 -0.92217914383E+01  0.10518978165E+02 -0.10274376347E+03  0.10377593011E+03  0.41800000000E+01 0. -1.
        -11    1    1    2    0    0 -0.38388885787E+02  0.79171867024E+02 -0.22724415026E+03  0.24368380108E+03  0.00000000000E+00 0. -1.
         11    1    1    2    0    0  0.13303178817E+02 -0.32860694875E+01 -0.34449404705E+00  0.13707351877E+02  0.00000000000E+00 0.  1.
</event>
<event>
 7    1  0.5109948E-006  0.1101984E+03  0.7561462E-02  0.1260203E+00
         -1   -1    0    0    0  501 -0.00000000000E+00  0.00000000000E+00  0.95848288541E+03  0.95848288541E+03  0.00000000000E+00 0.  1.
          1   -1    0    0  501    0  0.00000000000E+00 -0.00000000000E+00 -0.31860173113E+02  0.31860173113E+02  0.00000000000E+00 0. -1.
         23    2    1    2    0    0  0.47707847625E+02 -0.63019493536E+02  0.81079596992E+03  0.82418739684E+03  0.12508902819E+03 0.  0.
          5    1    3    3  502    0  0.52065530914E+02 -0.94805607973E+02  0.49268171721E+03  0.50443202683E+03  0.41800000000E+01 0.  1.
         -5    1    3    3    0  502 -0.43576832896E+01  0.31786114437E+02  0.31811425271E+03  0.31975537001E+03  0.41800000000E+01 0.  1.
        -11    1    1    2    0    0 -0.35288711337E+02  0.53766665735E+02  0.13007862153E+03  0.14510890831E+03  0.00000000000E+00 0.  1.
         11    1    1    2    0    0 -0.12419136288E+02  0.92528278007E+01 -0.14251879151E+02  0.21046753379E+02  0.00000000000E+00 0. -1.
</event>
<event>
 7    1  0.6853403E-006  0.1066459E+03  0.7561462E-02  0.1266910E+00
          1   -1    0    0  501    0  0.00000000000E+00  0.00000000000E+00  0.19666983938E+03  0.19666983938E+03  0.00000000000E+00 0. -1.
         -1   -1    0    0    0  501 -0.00000000000E+00 -0.00000000000E+00 -0.76974340420E+02  0.76974340420E+02  0.00000000000E+00 0.  1.
         23    2    1    2    0    0  0.22861529789E+02  0.43822942490E+02  0.33617003983E+02  0.13863888513E+03  0.12509011823E+03 0.  0.
          5    1    3    3  502    0  0.73083262574E+02  0.19515770074E+02  0.53380632645E+01  0.75947322991E+02  0.41800000000E+01 0.  1.
         -5    1    3    3    0  502 -0.50221732785E+02  0.24307172416E+02  0.28278940719E+02  0.62691562135E+02  0.41800000000E+01 0.  1.
        -11    1    1    2    0    0 -0.10827812921E+02 -0.60251514384E+02  0.17796272461E+02  0.63751030045E+02  0.00000000000E+00 0.  1.
         11    1    1    2    0    0 -0.12033716868E+02  0.16428571894E+02  0.68282222520E+02  0.71254264633E+02  0.00000000000E+00 0. -1.
</event>
<event>
 7    1  0.5109948E-006  0.1262329E+03  0.7561462E-02  0.1233155E+00
         -2   -1    0    0    0  501 -0.00000000000E+00  0.00000000000E+00  0.26616395947E+02  0.26616395947E+02  0.00000000000E+00 0.  1.
          2   -1    0    0  501    0  0.00000000000E+00 -0.00000000000E+00 -0.80259048861E+03  0.80259048861E+03  0.00000000000E+00 0. -1.
         23    2    1    2    0    0  0.93224811808E+02 -0.20200956789E+02 -0.38455782888E+03  0.41548921004E+03  0.12509043017E+03 0.  0.
          5    1    3    3  502    0  0.78360242711E+02  0.20646162412E+02 -0.35143321306E+03  0.36067903640E+03  0.41800000000E+01 0.  1.
         -5    1    3    3    0  502  0.14864569097E+02 -0.40847119201E+02 -0.33124615822E+02  0.54810173643E+02  0.41800000000E+01 0.  1.
        -11    1    1    2    0    0 -0.13948448536E+02 -0.30509870630E+02 -0.55342074272E+02  0.64715968718E+02  0.00000000000E+00 0.  1.
         11    1    1    2    0    0 -0.79276363273E+02  0.50710827418E+02 -0.33607418951E+03  0.34900170580E+03  0.00000000000E+00 0. -1.
</event>
<event>
 7    1  0.5109948E-006  0.1435393E+03  0.7561462E-02  0.1208644E+00
         -2   -1    0    0    0  501 -0.00000000000E+00  0.00000000000E+00  0.21764204604E+02  0.21764204604E+02  0.00000000000E+00 0.  1.
          2   -1    0    0  501    0  0.00000000000E+00 -0.00000000000E+00 -0.11528059561E+04  0.11528059561E+04  0.00000000000E+00 0. -1.
         23    2    1    2    0    0  0.67701621641E+02  0.87610435387E+02 -0.49553535605E+03  0.52292932995E+03  0.12506277249E+03 0.  0.
          5    1    3    3  502    0  0.72928720674E+02  0.20525181183E+02 -0.12435568301E+03  0.14567666134E+03  0.41800000000E+01 0.  1.
         -5    1    3    3    0  502 -0.52270990330E+01  0.67085254204E+02 -0.37117967304E+03  0.37725266861E+03  0.41800000000E+01 0.  1.
        -11    1    1    2    0    0 -0.25268123054E+01 -0.77838876108E+02 -0.36592327562E+03  0.37411912415E+03  0.00000000000E+00 0.  1.
         11    1    1    2    0    0 -0.65174809336E+02 -0.97715592789E+01 -0.26958311986E+03  0.27752170664E+03  0.00000000000E+00 0. -1.
</event>
<event>
 7    1  0.5109948E-006  0.1662528E+03  0.7561462E-02  0.1181813E+00
          2   -1    0    0  501    0  0.00000000000E+00  0.00000000000E+00  0.50942966426E+03  0.50942966426E+03  0.00000000000E+00 0. -1.
         -2   -1    0    0    0  501 -0.00000000000E+00 -0.00000000000E+00 -0.62395274367E+02  0.62395274367E+02  0.00000000000E+00 0.  1.
         23    2    1    2    0    0  0.94499977882E+02  0.10317970422E+03  0.20734676737E+03  0.27967246322E+03  0.12509079729E+03 0.  0.
          5    1    3    3  502    0  0.26215847663E+02 -0.28703905360E+02  0.41970610347E+02  0.57360172459E+02  0.41800000000E+01 0.  1.
         -5    1    3    3    0  502  0.68284130220E+02  0.13188360958E+03  0.16537615702E+03  0.22231229076E+03  0.41800000000E+01 0.  1.
        -11    1    1    2    0    0 -0.63169102951E+02 -0.41286408582E+02  0.19636003569E+03  0.21036198971E+03  0.00000000000E+00 0. -1.
         11    1    1    2    0    0 -0.31330874931E+02 -0.61893295634E+02  0.43327586842E+02  0.81790485693E+02  0.00000000000E+00 0.  1.
</event>
<event>
 7    1  0.5109948E-006  0.1104824E+03  0.7561462E-02  0.1259679E+00
          1   -1    0    0  501    0  0.00000000000E+00  0.00000000000E+00  0.14844499308E+03  0.14844499308E+03  0.00000000000E+00 0. -1.
         -1   -1    0    0    0  501 -0.00000000000E+00 -0.00000000000E+00 -0.92148902718E+02  0.92148902718E+02  0.00000000000E+00 0.  1.
         23    2    1    2    0    0 -0.27667818465E+02 -0.24116305955E+02  0.79059277774E+01  0.13059011536E+03  0.12507665707E+03 0.  0.
          5    1    3    3  502    0 -0.62107434438E+02  0.23861974132E+02 -0.12769683384E+02  0.67876832835E+02  0.41800000000E+01 0.  1.
         -5    1    3    3    0  502  0.34439615973E+02 -0.47978280087E+02  0.20675611161E+02  0.62713282528E+02  0.41800000000E+01 0.  1.
        -11    1    1    2    0    0 -0.32157461584E+02  0.81979085148E+01  0.31638131856E+01  0.33336432824E+02  0.00000000000E+00 0.  1.
         11    1    1    2    0    0  0.59825280049E+02  0.15918397440E+02  0.45226349404E+02  0.76667347615E+02  0.00000000000E+00 0. -1.
</event>
<event>
 7    1  0.5109948E-006  0.1848238E+03  0.7561462E-02  0.1163215E+00
          1   -1    0    0  501    0  0.00000000000E+00  0.00000000000E+00  0.25454401569E+03  0.25454401569E+03  0.00000000000E+00 0. -1.
         -1   -1    0    0    0  501 -0.00000000000E+00 -0.00000000000E+00 -0.14510128162E+03  0.14510128162E+03  0.00000000000E+00 0.  1.
         23    2    1    2    0    0 -0.14829980691E+03 -0.48124062400E+02  0.83621864269E+02  0.21667653718E+03  0.12508935793E+03 0.  0.
          5    1    3    3  502    0 -0.12102956871E+03  0.18512510811E+02  0.28180895837E+02  0.12570801426E+03  0.41800000000E+01 0. -1.
         -5    1    3    3    0  502 -0.27270238193E+02 -0.66636573212E+02  0.55440968433E+02  0.90968522915E+02  0.41800000000E+01 0. -1.
        -11    1    1    2    0    0  0.12107971304E+03  0.15706619736E+01  0.39435165592E+02  0.12734950402E+03  0.00000000000E+00 0. -1.
         11    1    1    2    0    0  0.27220093864E+02  0.46553400427E+02 -0.13614295792E+02  0.55619256119E+02  0.00000000000E+00 0.  1.
</event>
<event>
 7    1  0.5109948E-006  0.1166668E+03  0.7561462E-02  0.1248699E+00
          2   -1    0    0  501    0  0.00000000000E+00  0.00000000000E+00  0.78651880383E+02  0.78651880383E+02  0.00000000000E+00 0.  1.
         -2   -1    0    0    0  501 -0.00000000000E+00 -0.00000000000E+00 -0.17399946985E+03  0.17399946985E+03  0.00000000000E+00 0. -1.
         23    2    1    2    0    0  0.30604323017E+02  0.33061131666E+02 -0.53480778451E+02  0.14330681746E+03  0.12508791809E+03 0.  0.
          5    1    3    3  502    0 -0.25917436870E+02 -0.35219399451E+02 -0.13305169356E+02  0.45897925478E+02  0.41800000000E+01 0. -1.
         -5    1    3    3    0  502  0.56521759887E+02  0.68280531116E+02 -0.40175609095E+02  0.97408891978E+02  0.41800000000E+01 0. -1.
        -11    1    1    2    0    0  0.32239079623E+02 -0.11543098354E+02 -0.18555775249E+02  0.38947633685E+02  0.00000000000E+00 0.  1.
         11    1    1    2    0    0 -0.62843402640E+02 -0.21518033311E+02 -0.23311035763E+02  0.70396899089E+02  0.00000000000E+00 0. -1.
</event>
<event>
 7    1  0.5109948E-006  0.9370550E+02  0.7561462E-02  0.1294119E+00
         -1   -1    0    0    0  501 -0.00000000000E+00  0.00000000000E+00  0.44091190346E+02  0.44091190346E+02  0.00000000000E+00 0.  1.
          1   -1    0    0  501    0  0.00000000000E+00 -0.00000000000E+00 -0.44447729751E+03  0.44447729751E+03  0.00000000000E+00 0. -1.
         23    2    1    2    0    0 -0.56232866879E+02  0.46772939896E+02 -0.13889911844E+03  0.20072506645E+03  0.12509094280E+03 0.  0.
          5    1    3    3  502    0 -0.49651852619E+02  0.35197799794E+02  0.12164794918E+00  0.61005563493E+02  0.41800000000E+01 0.  1.
         -5    1    3    3    0  502 -0.65810142598E+01  0.11575140101E+02 -0.13902076639E+03  0.13971950295E+03  0.41800000000E+01 0.  1.
        -11    1    1    2    0    0 -0.43990393120E+01  0.21033437020E+02 -0.18380985039E+02  0.28277511043E+02  0.00000000000E+00 0.  1.
         11    1    1    2    0    0  0.60631906191E+02 -0.67806376916E+02 -0.24310600368E+03  0.25956591037E+03  0.00000000000E+00 0. -1.
</event>
<event>
 7    1  0.5109948E-006  0.9700961E+02  0.7561462E-02  0.1286713E+00
         -2   -1    0    0    0  501 -0.00000000000E+00  0.00000000000E+00  0.18300837428E+02  0.18300837428E+02  0.00000000000E+00 0.  1.
          2   -1    0    0  501    0  0.00000000000E+00 -0.00000000000E+00 -0.79565627449E+03  0.79565627449E+03  0.00000000000E+00 0. -1.
         23    2    1    2    0    0 -0.16768359270E+02  0.31873409161E+02 -0.30785912015E+03  0.33424900457E+03  0.12509223442E+03 0.  0.
          5    1    3    3  502    0 -0.50519975126E+02  0.27050149867E+01 -0.45750679046E+02  0.68338730059E+02  0.41800000000E+01 0.  1.
         -5    1    3    3    0  502  0.33751615856E+02  0.29168394175E+02 -0.26210844111E+03  0.26591027451E+03  0.41800000000E+01 0.  1.
        -11    1    1    2    0    0  0.27809185907E+02  0.26874978294E+02 -0.18637223550E+03  0.19034239003E+03  0.00000000000E+00 0.  1.
         11    1    1    2    0    0 -0.11040826637E+02 -0.58748387456E+02 -0.28312408142E+03  0.28936571732E+03  0.00000000000E+00 0. -1.
</event>
<event>
 7    1  0.5109948E-006  0.1455234E+03  0.7561462E-02  0.1206084E+00
          2   -1    0    0  501    0  0.00000000000E+00  0.00000000000E+00  0.16172265301E+03  0.16172265301E+03  0.00000000000E+00 0. -1.
         -2   -1    0    0    0  501 -0.00000000000E+00 -0.00000000000E+00 -0.16364022207E+03  0.16364022207E+03  0.00000000000E+00 0.  1.
         23    2    1    2    0    0 -0.90308586239E+02  0.62977355275E+02 -0.54797285601E+02  0.17541945212E+03  0.12508978235E+03 0.  0.
          5    1    3    3  502    0 -0.10971549746E+03  0.29176097865E+02 -0.73064623333E+01  0.11384020318E+03  0.41800000000E+01 0.  1.
         -5    1    3    3    0  502  0.19406911218E+02  0.33801257411E+02 -0.47490823268E+02  0.61579248941E+02  0.41800000000E+01 0.  1.
        -11    1    1    2    0    0  0.68358672698E+02  0.32857251153E+01  0.13362447738E+02  0.69729901277E+02  0.00000000000E+00 0.  1.
         11    1    1    2    0    0  0.21949913541E+02 -0.66263080390E+02  0.39517268806E+02  0.80213521685E+02  0.00000000000E+00 0. -1.
</event>
<event>
 7    1  0.5109948E-006  0.1353904E+03  0.7561462E-02  0.1219670E+00
          1   -1    0    0  501    0  0.00000000000E+00  0.00000000000E+00  0.40266454804E+03  0.40266454804E+03  0.00000000000E+00 0. -1.
         -1   -1    0    0    0  501 -0.00000000000E+00 -0.00000000000E+00 -0.80307896398E+02  0.80307896398E+02  0.00000000000E+00 0.  1.
         23    2    1    2    0    0  0.90808472582E+02  0.62110702057E+02  0.47268734099E+02  0.17316339438E+03  0.12508920788E+03 0.  0.
          5    1    3    3  502    0 -0.25528208961E+02  0.20367932094E+02 -0.13237257398E+02  0.35485764666E+02  0.41800000000E+01 0. -1.
         -5    1    3    3    0  502  0.11633668154E+03  0.41742769963E+02  0.60505991497E+02  0.13767762971E+03  0.41800000000E+01 0. -1.
        -11    1    1    2    0    0 -0.35683487910E+02 -0.42921914165E+02  0.42905829929E+02  0.70402501851E+02  0.00000000000E+00 0.  1.
         11    1    1    2    0    0 -0.55124984673E+02 -0.19188787892E+02  0.23218208761E+03  0.23940654821E+03  0.00000000000E+00 0. -1.
</event>
<event>
 6    1  0.5109948E-006  0.1353766E+03  0.7561462E-02  0.1219689E+00
         -1   -1    0    0    0  501 -0.00000000000E+00  0.00000000000E+00  0.48137366242E+02  0.48137366242E+02  0.00000000000E+00 0.  1.
          1   -1    0    0  501    0  0.00000000000E+00 -0.00000000000E+00 -0.61447307718E+03  0.61447307718E+03  0.00000000000E+00 0. -1.
          5    1    1    2  502    0 -0.10288330610E+02 -0.16892339949E+02 -0.11731910775E+03  0.11904808414E+03  0.41800000000E+01 0. -1.
         -5    1    1    2    0  502  0.10768707753E+03 -0.33739412502E+02 -0.57509900277E+02  0.12672693341E+03  0.41800000000E+01 0.  1.
        -11    1    1    2    0    0  0.48383837782E+01  0.33622715689E+02 -0.15396780996E+03  0.15767049018E+03  0.00000000000E+00 0.  1.
         11    1    1    2    0    0 -0.10223713070E+03  0.17009036763E+02 -0.23753889295E+03  0.25916493569E+03  0.00000000000E+00 0. -1.
</event>
<event>
 7    1  0.5109948E-006  0.1008281E+03  0.7561462E-02  0.1278564E+00
         -2   -1    0    0    0  501 -0.00000000000E+00  0.00000000000E+00  0.44446954415E+02  0.44446954415E+02  0.00000000000E+00 0.  1.
          2   -1    0    0  501    0  0.00000000000E+00 -0.00000000000E+00 -0.27595135355E+03  0.27595135355E+03  0.00000000000E+00 0. -1.
         23    2    1    2    0    0 -0.20516718086E+02 -0.17203577326E+02 -0.13747078603E+03  0.18778370380E+03  0.12509038175E+03 0.  0.
          5    1    3    3  502    0 -0.27797636863E+02  0.51091397898E+02 -0.52677253240E+02  0.78583744905E+02  0.41800000000E+01 0. -1.
         -5    1    3    3    0  502  0.72809187777E+01 -0.68294975225E+02 -0.84793532789E+02  0.10919995889E+03  0.41800000000E+01 0. -1.
        -11    1    1    2    0    0 -0.21777609900E+02  0.23195377189E+02 -0.82419256444E+02  0.88347176800E+02  0.00000000000E+00 0.  1.
         11    1    1    2    0    0  0.42294327986E+02 -0.59917998627E+01 -0.11614356666E+02  0.44267427372E+02  0.00000000000E+00 0. -1.
</event>
<event>
 6    1  0.5109948E-006  0.1060591E+03  0.7561462E-02  0.1268047E+00
         -2   -1    0    0    0  501 -0.00000000000E+00  0.00000000000E+00  0.75931120069E+02  0.75931120069E+02  0.00000000000E+00 0.  1.
          2   -1    0    0  501    0  0.00000000000E+00 -0.00000000000E+00 -0.34238040713E+03  0.34238040713E+03  0.00000000000E+00 0. -1.
          5    1    1    2  502    0 -0.37853766704E+02  0.30429580783E+01 -0.16843841646E+03  0.17271693544E+03  0.41800000000E+01 0. -1.
         -5    1    1    2    0  502  0.74159032848E+02  0.95675701499E+01  0.32498312009E+02  0.81637694939E+02  0.41800000000E+01 0.  1.
        -11    1    1    2    0    0  0.20752114383E+02 -0.32532036542E+02 -0.56251107428E+02  0.68214153516E+02  0.00000000000E+00 0.  1.
         11    1    1    2    0    0 -0.57057380527E+02  0.19921508314E+02 -0.74258075180E+02  0.95742743305E+02  0.00000000000E+00 0. -1.
</event>
<event>
 7    1  0.5109948E-006  0.1089222E+03  0.7561462E-02  0.1262579E+00
          1   -1    0    0  501    0  0.00000000000E+00  0.00000000000E+00  0.20956787913E+03  0.20956787913E+03  0.00000000000E+00 0. -1.
         -1   -1    0    0    0  501 -0.00000000000E+00 -0.00000000000E+00 -0.90588722241E+02  0.90588722241E+02  0.00000000000E+00 0.  1.
         23    2    1    2    0    0  0.24727144091E+02 -0.65547053899E+02  0.13294114621E+02  0.14398805761E+03  0.12509188352E+03 0.  0.
          5    1    3    3  502    0  0.59889620146E+02 -0.52376265285E+02 -0.31249141400E+02  0.85580494301E+02  0.41800000000E+01 0.  1.
         -5    1    3    3    0  502 -0.35162476056E+02 -0.13170788613E+02  0.44543256020E+02  0.58407563311E+02  0.41800000000E+01 0.  1.
        -11    1    1    2    0    0  0.16689957726E+02  0.55248751952E+02  0.96609375976E+02  0.11253599783E+03  0.00000000000E+00 0. -1.
         11    1    1    2    0    0 -0.41417101817E+02  0.10298301947E+02  0.90756662976E+01  0.43632545933E+02  0.00000000000E+00 0.  1.
</event>
<event>
 7    1  0.5109948E-006  0.1073396E+03  0.7561462E-02  0.1265577E+00
          3   -1    0    0  501    0  0.00000000000E+00  0.00000000000E+00  0.85453244814E+02  0.85453244814E+02  0.00000000000E+00 0. -1.
         -3   -1    0    0    0  501 -0.00000000000E+00 -0.00000000000E+00 -0.18599248568E+03  0.18599248568E+03  0.00000000000E+00 0.  1.
         23    2    1    2    0    0  0.12319259102E+02  0.55415188221E+02 -0.60634151749E+02  0.15015633925E+03  0.12509124121E+03 0.  0.
          5    1    3    3  502    0 -0.50381741181E+02  0.34953870838E+02 -0.57230124645E+02  0.83981262778E+02  0.41800000000E+01 0.  1.
         -5    1    3    3    0  502  0.62701000283E+02  0.20461317383E+02 -0.34040271038E+01  0.66175076472E+02  0.41800000000E+01 0.  1.
        -11    1    1    2    0    0  0.23190622000E+02 -0.23908793745E+01  0.22235091725E+02  0.32216774466E+02  0.00000000000E+00 0. -1.
         11    1    1    2    0    0 -0.35509881103E+02 -0.53024308846E+02 -0.62140180845E+02  0.89072616780E+02  0.00000000000E+00 0.  1.
</event>
<event>
 7    1  0.5109948E-006  0.1382854E+03  0.7561462E-02  0.1215655E+00
         -2   -1    0    0    0  501 -0.00000000000E+00  0.00000000000E+00  0.40692120390E+02  0.40692120390E+02  0.00000000000E+00 0.  1.
          2   -1    0    0  501    0  0.00000000000E+00 -0.00000000000E+00 -0.59254871318E+03  0.59254871318E+03  0.00000000000E+00 0. -1.
         23    2    1    2    0    0  0.10860547241E+03 -0.97382242602E+00 -0.33756524695E+03  0.37602247584E+03  0.12508600809E+03 0.  0.
          5    1    3    3  502    0  0.33982928546E+02 -0.58246753717E+02 -0.18252501648E+03  0.19462882056E+03  0.41800000000E+01 0.  1.
         -5    1    3    3    0  502  0.74622543866E+02  0.57272931291E+02 -0.15504023046E+03  0.18139365527E+03  0.41800000000E+01 0.  1.
        -11    1    1    2    0    0 -0.45694922132E+02 -0.18036078754E+02 -0.21667452054E+02  0.53691754711E+02  0.00000000000E+00 0.  1.
         11    1    1    2    0    0 -0.62910550280E+02  0.19009901181E+02 -0.19262389379E+03  0.20352660302E+03  0.00000000000E+00 0. -1.
</event>
<event>
 7    1  0.5109948E-006  0.1014581E+03  0.7561462E-02  0.1277259E+00
         -1   -1    0    0    0  501 -0.00000000000E+00  0.00000000000E+00  0.35304054224E+02  0.35304054224E+02  0.00000000000E+00 0.  1.
          1   -1    0    0  501    0  0.00000000000E+00 -0.00000000000E+00 -0.36337229832E+03  0.36337229832E+03  0.00000000000E+00 0. -1.
         23    2    1    2    0    0 -0.22059619464E+02 -0.17560470659E+02 -0.15807109434E+03  0.20354216450E+03  0.12509174601E+03 0.  0.
          5    1    3    3  502    0 -0.58866753696E+02 -0.48788442730E+02 -0.11800891938E+03  0.14067403558E+03  0.41800000000E+01 0.  1.
         -5    1    3    3    0  502  0.36807134232E+02  0.31227972072E+02 -0.40062174966E+02  0.62868128913E+02  0.41800000000E+01 0.  1.
        -11    1    1    2    0    0 -0.30132975920E+01 -0.26784141016E+02 -0.12703125480E+02  0.29796636879E+02  0.00000000000E+00 0.  1.
         11    1    1    2    0    0  0.25072917056E+02  0.44344611674E+02 -0.15729402427E+03  0.16533755117E+03  0.00000000000E+00 0. -1.
</event>
<event>
 7    1  0.5109948E-006  0.1054686E+03  0.7561462E-02  0.1269199E+00
          1   -1    0    0  501    0  0.00000000000E+00  0.00000000000E+00  0.90621372075E+02  0.90621372075E+02  0.00000000000E+00 0. -1.
         -1   -1    0    0    0  501 -0.00000000000E+00 -0.00000000000E+00 -0.18058811477E+03  0.18058811477E+03  0.00000000000E+00 0.  1.
         23    2    1    2    0    0 -0.46060726048E+02 -0.53387908239E+02 -0.73565533046E+02  0.16134112387E+03  0.12508881392E+03 0.  0.
          5    1    3    3  502    0 -0.80530933544E+02 -0.64862075032E+02 -0.37760861650E+02  0.11016204023E+03  0.41800000000E+01 0. -1.
         -5    1    3    3    0  502  0.34470207496E+02  0.11474166793E+02 -0.35804671396E+02  0.51179083639E+02  0.41800000000E+01 0. -1.
        -11    1    1    2    0    0  0.25056437696E+02  0.23521684016E+02  0.33528122777E+02  0.48012807728E+02  0.00000000000E+00 0. -1.
         11    1    1    2    0    0  0.21004288352E+02  0.29866224223E+02 -0.49929332424E+02  0.61855555247E+02  0.00000000000E+00 0.  1.
</event>
<event>
 7    1  0.5109948E-006  0.8710748E+02  0.7561462E-02  0.1310011E+00
         -2   -1    0    0    0  501 -0.00000000000E+00  0.00000000000E+00  0.86243679562E+02  0.86243679562E+02  0.00000000000E+00 0.  1.
          2   -1    0    0  501    0  0.00000000000E+00 -0.00000000000E+00 -0.15568493271E+03  0.15568493271E+03  0.00000000000E+00 0. -1.
         23    2    1    2    0    0  0.27369231963E+02  0.87971295762E+00 -0.67463764337E+01  0.12823134877E+03  0.12509163225E+03 0.  0.
          5    1    3    3  502    0  0.69157677169E+02 -0.83109572302E+01  0.25708258517E+02  0.74365605474E+02  0.41800000000E+01 0. -1.
         -5    1    3    3    0  502 -0.41788445206E+02  0.91906701878E+01 -0.32454634951E+02  0.53865743298E+02  0.41800000000E+01 0. -1.
        -11    1    1    2    0    0 -0.43819907858E+02  0.47025287278E+01  0.44929383080E+01  0.44299939004E+02  0.00000000000E+00 0.  1.
         11    1    1    2    0    0  0.16450675896E+02 -0.55822416854E+01 -0.67187815027E+02  0.69397324500E+02  0.00000000000E+00 0. -1.
</event>
<event>
 7    1  0.5109948E-006  0.9200193E+02  0.7561462E-02  0.1298075E+00
         -2   -1    0    0    0  501 -0.00000000000E+00  0.00000000000E+00  0.30719063774E+02  0.30719063774E+02  0.00000000000E+00 0.  1.
          2   -1    0    0  501    0  0.00000000000E+00 -0.00000000000E+00 -0.54217504514E+03  0.54217504514E+03  0.00000000000E+00 0. -1.
         23    2    1    2    0    0  0.64520525797E+02  0.13874566416E+02 -0.23742814250E+03  0.27635621584E+03  0.12508090717E+03 0.  0.
          5    1    3    3  502    0  0.10733979086E+02  0.46132431203E+02 -0.22837218691E+02  0.52748748547E+02  0.41800000000E+01 0. -1.
         -5    1    3    3    0  502  0.53786546711E+02 -0.32257864787E+02 -0.21459092381E+03  0.22360746729E+03  0.41800000000E+01 0. -1.
        -11    1    1    2    0    0 -0.42158125895E+02  0.73180954563E+01 -0.25853630854E+03  0.26205321012E+03  0.00000000000E+00 0.  1.
         11    1    1    2    0    0 -0.22362399902E+02 -0.21192661872E+02 -0.15491530323E+02  0.34484682953E+02  0.00000000000E+00 0. -1.
</event>
<event>
 7    1  0.5109948E-006  0.1047076E+03  0.7561462E-02  0.1270697E+00
          2   -1    0    0  501    0  0.00000000000E+00  0.00000000000E+00  0.43259547105E+03  0.43259547105E+03  0.00000000000E+00 0. -1.
         -2   -1    0    0    0  501 -0.00000000000E+00 -0.00000000000E+00 -0.32877784245E+02  0.32877784245E+02  0.00000000000E+00 0.  1.
         23    2    1    2    0    0 -0.34205336007E+01 -0.44879744633E+02  0.18037325722E+03  0.22407184356E+03  0.12509111730E+03 0.  0.
          5    1    3    3  502    0  0.31522731280E+01  0.43246284396E+02  0.47608372028E+02  0.64530670437E+02  0.41800000000E+01 0.  1.
         -5    1    3    3    0  502 -0.65728067287E+01 -0.88126029029E+02  0.13276488519E+03  0.15954117312E+03  0.41800000000E+01 0.  1.
        -11    1    1    2    0    0  0.29421871034E+02  0.41919502156E+02  0.20551998849E+03  0.21180499717E+03  0.00000000000E+00 0. -1.
         11    1    1    2    0    0 -0.26001337433E+02  0.29602424773E+01  0.13824441097E+02  0.29596414572E+02  0.00000000000E+00 0.  1.
</event>
<event>
 7    1  0.5109948E-006  0.1307582E+03  0.7561462E-02  0.1226335E+00
         -1   -1    0    0    0  501 -0.00000000000E+00  0.00000000000E+00  0.35264627186E+03  0.35264627186E+03  0.00000000000E+00 0.  1.
          1   -1    0    0  501    0  0.00000000000E+00 -0.00000000000E+00 -0.75218075420E+02  0.75218075420E+02  0.00000000000E+00 0. -1.
         23    2    1    2    0    0  0.59670855249E+02 -0.10609568670E+03  0.17257727966E+03  0.24545394387E+03  0.12509122832E+03 0.  0.
          5    1    3    3  502    0  0.63080329274E+02 -0.73223988885E+02  0.18591031721E+03  0.20957337363E+03  0.41800000000E+01 0. -1.
         -5    1    3    3    0  502 -0.34094740252E+01 -0.32871697819E+02 -0.13333037548E+02  0.35880570242E+02  0.41800000000E+01 0. -1.
        -11    1    1    2    0    0 -0.15620000658E+00  0.48975812580E+02  0.84145987027E+02  0.97361192213E+02  0.00000000000E+00 0.  1.
         11    1    1    2    0    0 -0.59514655243E+02  0.57119874125E+02  0.20704929750E+02  0.85049211194E+02  0.00000000000E+00 0. -1.
</event>
<event>
 7    1  0.5109948E-006  0.1870057E+03  0.7561462E-02  0.1161190E+00
         -1   -1    0    0    0  501 -0.00000000000E+00  0.00000000000E+00  0.54835553155E+03  0.54835553155E+03  0.00000000000E+00 0.  1.
          1   -1    0    0  501    0  0.00000000000E+00 -0.00000000000E+00 -0.10232494371E+03  0.10232494371E+03  0.00000000000E+00 0. -1.
         23    2    1    2    0    0  0.15225769085E+03 -0.74948400542E+02  0.40063270714E+03  0.45271816852E+03  0.12508999527E+03 0.  0.
          5    1    3    3  502    0  0.11866877507E+03 -0.61572714097E+01  0.32036834380E+03  0.34172143374E+03  0.41800000000E+01 0.  1.
         -5    1    3    3    0  502  0.33588915781E+02 -0.68791129132E+02  0.80264363335E+02  0.11099673478E+03  0.41800000000E+01 0.  1.
        -11    1    1    2    0    0 -0.83673580536E+02  0.10502494980E+02 -0.15669713496E+02  0.85773599678E+02  0.00000000000E+00 0. -1.
         11    1    1    2    0    0 -0.68584110316E+02  0.64445905562E+02  0.61067594201E+02  0.11218870707E+03  0.00000000000E+00 0.  1.
</event>
<event>
 7    1  0.5109948E-006  0.1402449E+03  0.7561462E-02  0.1213000E+00
          2   -1    0    0  501    0  0.00000000000E+00  0.00000000000E+00  0.10390599636E+04  0.10390599636E+04  0.00000000000E+00 0. -1.
         -2   -1    0    0    0  501 -0.00000000000E+00 -0.00000000000E+00 -0.24954800307E+02  0.24954800307E+02  0.00000000000E+00 0.  1.
         23    2    1    2    0    0 -0.15506015917E+02 -0.11694796976E+03  0.50062268779E+03  0.52932792345E+03  0.12509081041E+03 0.  0.
          5    1    3    3  502    0  0.44285750002E+02 -0.76110881669E+02  0.36538886046E+03  0.37587309788E+03  0.41800000000E+01 0. -1.
         -5    1    3    3    0  502 -0.59791765919E+02 -0.40837088091E+02  0.13523382733E+03  0.15345482557E+03  0.41800000000E+01 0. -1.
        -11    1    1    2    0    0 -0.51566089487E+01  0.29741042855E+02  0.28568564777E+02  0.41560595994E+02  0.00000000000E+00 0.  1.
         11    1    1    2    0    0  0.20662624866E+02  0.87206926906E+02  0.48491391076E+03  0.49312624450E+03  0.00000000000E+00 0. -1.
</event>
<event>
 7    1  0.5109948E-006  0.5798787E+02  0.7561462E-02  0.1406475E+00
          3   -1    0    0  501    0  0.00000000000E+00  0.00000000000E+00  0.19827589940E+03  0.19827589940E+03  0.00000000000E+00 0. -1.
         -3   -1    0    0    0  501 -0.00000000000E+00 -0.00000000000E+00 -0.65956279124E+02  0.65956279124E+02  0.00000000000E+00 0.  1.
         23    2    1    2    0    0 -0.36995938648E+02  0.16708696912E+02  0.73567789022E+02  0.15068822917E+03  0.12508734069E+03 0.  0.
          5    1    3    3  502    0 -0.30886085225E+02  0.54288818068E+01 -0.31566581067E+02  0.44691659832E+02  0.41800000000E+01 0. -1.
         -5    1    3    3    0  502 -0.61098534223E+01  0.11279815105E+02  0.10513437009E+03  0.10599656934E+03  0.41800000000E+01 0. -1.
        -11    1    1    2    0    0 -0.15156918591E+02 -0.10245514590E+02 -0.14532733236E+02  0.23364569025E+02  0.00000000000E+00 0.  1.
         11    1    1    2    0    0  0.52152857238E+02 -0.64631823214E+01  0.73284564495E+02  0.90179380332E+02  0.00000000000E+00 0. -1.
</event>
<event>
 7    1  0.5109948E-006  0.1354117E+03  0.7561462E-02  0.1219640E+00
          2   -1    0    0  501    0  0.00000000000E+00  0.00000000000E+00  0.91666253553E+03  0.91666253553E+03  0.00000000000E+00 0. -1.
         -2   -1    0    0    0  501 -0.00000000000E+00 -0.00000000000E+00 -0.24321478356E+02  0.24321478356E+02  0.00000000000E+00 0.  1.
         23    2    1    2    0    0  0.68458480939E+02 -0.40390920185E+02  0.28736492529E+03  0.32396830836E+03  0.12672361455E+03 0.  0.
          5    1    3    3  502    0 -0.30659446310E+02 -0.39754146526E+02  0.95707611845E+02  0.10815642921E+03  0.41800000000E+01 0. -1.
         -5    1    3    3    0  502  0.99117927249E+02 -0.63677365875E+00  0.19165731345E+03  0.21581187915E+03  0.41800000000E+01 0.  1.
        -11    1    1    2    0    0  0.71271129270E+01  0.44953381676E+02  0.21810322983E+03  0.22280175297E+03  0.00000000000E+00 0.  1.
         11    1    1    2    0    0 -0.75585593866E+02 -0.45624614913E+01  0.38687290205E+03  0.39421395256E+03  0.00000000000E+00 0. -1.
</event>
<event>
 7    1  0.5109948E-006  0.1234397E+03  0.7561462E-02  0.1237528E+00
         -1   -1    0    0    0  501 -0.00000000000E+00  0.00000000000E+00  0.60972115752E+02  0.60972115752E+02  0.00000000000E+00 0.  1.
          1   -1    0    0  501    0  0.00000000000E+00 -0.00000000000E+00 -0.43527255514E+03  0.43527255514E+03  0.00000000000E+00 0. -1.
         23    2    1    2    0    0 -0.16202516028E+02  0.11471054121E+03 -0.14689330364E+03  0.22504863550E+03  0.12509282911E+03 0.  0.
          5    1    3    3  502    0 -0.22314261957E+02  0.10000080082E+03 -0.16888181534E+03  0.19757688733E+03  0.41800000000E+01 0.  1.
         -5    1    3    3    0  502  0.61117459289E+01  0.14709740389E+02  0.21988511704E+02  0.27471748171E+02  0.41800000000E+01 0.  1.
        -11    1    1    2    0    0 -0.18782701523E+02 -0.60480772142E+02 -0.18085477346E+03  0.19162244847E+03  0.00000000000E+00 0. -1.
         11    1    1    2    0    0  0.34985217552E+02 -0.54229769070E+02 -0.46552362283E+02  0.79573586916E+02  0.00000000000E+00 0.  1.
</event>
<event>
 7    1  0.5109948E-006  0.1054580E+03  0.7561462E-02  0.1269220E+00
         -2   -1    0    0    0  501 -0.00000000000E+00  0.00000000000E+00  0.40837771645E+02  0.40837771645E+02  0.00000000000E+00 0.  1.
          2   -1    0    0  501    0  0.00000000000E+00 -0.00000000000E+00 -0.36169522202E+03  0.36169522202E+03  0.00000000000E+00 0. -1.
         23    2    1    2    0    0 -0.29673483588E+02  0.39284190464E+02 -0.14562282078E+03  0.19818642891E+03  0.12509233158E+03 0.  0.
          5    1    3    3  502    0 -0.73563685250E+02  0.63299133480E+01 -0.55027307961E+02  0.92180044543E+02  0.41800000000E+01 0.  1.
         -5    1    3    3    0  502  0.43890201663E+02  0.32954277116E+02 -0.90595512822E+02  0.10600638436E+03  0.41800000000E+01 0.  1.
        -11    1    1    2    0    0 -0.48033842485E+01 -0.46456003722E+02 -0.15872533233E+03  0.16545381200E+03  0.00000000000E+00 0. -1.
         11    1    1    2    0    0  0.34476867836E+02  0.71718132577E+01 -0.16509297265E+02  0.38892752761E+02  0.00000000000E+00 0.  1.
</event>
<event>
 7    1  0.5109948E-006  0.1105057E+03  0.7561462E-02  0.1259636E+00
          1   -1    0    0  501    0  0.00000000000E+00  0.00000000000E+00  0.97478750415E+02  0.97478750415E+02  0.00000000000E+00 0. -1.
         -1   -1    0    0    0  501 -0.00000000000E+00 -0.00000000000E+00 -0.17013166978E+03  0.17013166978E+03  0.00000000000E+00 0.  1.
         23    2    1    2    0    0  0.30023316949E+02  0.58993484537E+02 -0.64824562852E+02  0.15577701595E+03  0.12523028377E+03 0.  0.
          5    1    3    3  502    0  0.44273793178E+02  0.91302624780E+02 -0.29736285240E+02  0.10582087277E+03  0.41800000000E+01 0.  1.
         -5    1    3    3    0  502 -0.14250476228E+02 -0.32309140243E+02 -0.35088277612E+02  0.49956143183E+02  0.41800000000E+01 0.  1.
        -11    1    1    2    0    0 -0.14709339218E+02  0.68990515099E+01 -0.35268921227E+02  0.38831152139E+02  0.00000000000E+00 0.  1.
         11    1    1    2    0    0 -0.15313977731E+02 -0.65892536047E+02  0.27440564711E+02  0.73002252105E+02  0.00000000000E+00 0. -1.
</event>
<event>
 7    1  0.5109948E-006  0.2545166E+03  0.7561462E-02  0.1110483E+00
          1   -1    0    0  501    0  0.00000000000E+00  0.00000000000E+00  0.47905522666E+03  0.47905522666E+03  0.00000000000E+00 0. -1.
         -1   -1    0    0    0  501 -0.00000000000E+00 -0.00000000000E+00 -0.14002308052E+03  0.14002308052E+03  0.00000000000E+00 0.  1.
         23    2    1    2    0    0  0.14723611237E+03  0.18105356015E+03  0.20153908953E+03  0.33275278996E+03  0.12509016822E+03 0.  0.
          5    1    3    3  502    0  0.12785734314E+03  0.59479476106E+02  0.97178089463E+02  0.17130779826E+03  0.41800000000E+01 0. -1.
         -5    1    3    3    0  502  0.19378769229E+02  0.12157408404E+03  0.10436100007E+03  0.16144499170E+03  0.41800000000E+01 0. -1.
        -11    1    1    2    0    0 -0.12894660485E+03 -0.10422687461E+03  0.61830629259E+02  0.17695619517E+03  0.00000000000E+00 0.  1.
         11    1    1    2    0    0 -0.18289507525E+02 -0.76826685536E+02  0.75662427349E+02  0.10936932206E+03  0.00000000000E+00 0. -1.
</event>
<event>
 7    1  0.5109948E-006  0.3022313E+03  0.7561462E-02  0.1084130E+00
         -2   -1    0    0    0  501 -0.00000000000E+00  0.00000000000E+00  0.16430644849E+03  0.16430644849E+03  0.00000000000E+00 0.  1.
          2   -1    0    0  501    0  0.00000000000E+00 -0.00000000000E+00 -0.64530088474E+03  0.64530088474E+03  0.00000000000E+00 0. -1.
         23    2    1    2    0    0  0.22987132897E+03  0.18055132087E+03 -0.12944852542E+03  0.34328915475E+03  0.12510361981E+03 0.  0.
          5    1    3    3  502    0  0.23281282941E+03  0.14088583392E+03 -0.88826101491E+02  0.28628339183E+03  0.41800000000E+01 0.  1.
         -5    1    3    3    0  502 -0.29415004394E+01  0.39665486956E+02 -0.40622423924E+02  0.57005762918E+02  0.41800000000E+01 0.  1.
        -11    1    1    2    0    0 -0.10028484120E+03 -0.76957835579E+02 -0.84905295182E+02  0.15227759843E+03  0.00000000000E+00 0.  1.
         11    1    1    2    0    0 -0.12958648776E+03 -0.10359348529E+03 -0.26664061565E+03  0.31404058005E+03  0.00000000000E+00 0. -1.
</event>
<event>
 7    1  0.5109948E-006  0.2365261E+03  0.7561462E-02  0.1122129E+00
          2   -1    0    0  501    0  0.00000000000E+00  0.00000000000E+00  0.12181275804E+04  0.12181275804E+04  0.00000000000E+00 0. -1.
         -2   -1    0    0    0  501 -0.00000000000E+00 -0.00000000000E+00 -0.50825473894E+02  0.50825473894E+02  0.00000000000E+00 0.  1.
         23    2    1    2    0    0  0.17488261939E+03  0.13696517453E+03  0.56358205024E+03  0.61856063371E+03  0.12509652526E+03 0.  0.
          5    1    3    3  502    0  0.14297630343E+03  0.13824897916E+03  0.54759024499E+03  0.58260411292E+03  0.41800000000E+01 0.  1.
         -5    1    3    3    0  502  0.31906315962E+02 -0.12838046272E+01  0.15991805243E+02  0.35956520792E+02  0.41800000000E+01 0.  1.
        -11    1    1    2    0    0 -0.16333203672E+03 -0.76498000844E+02  0.44687935533E+03  0.48190295348E+03  0.00000000000E+00 0.  1.
         11    1    1    2    0    0 -0.11550582675E+02 -0.60467173687E+02  0.15684070097E+03  0.16848946714E+03  0.00000000000E+00 0. -1.
</event>
<event>
 7    1  0.5109948E-006  0.1035598E+03  0.7561462E-02  0.1272983E+00
          2   -1    0    0  501    0  0.00000000000E+00  0.00000000000E+00  0.50988167700E+03  0.50988167700E+03  0.00000000000E+00 0.  1.
         -2   -1    0    0    0  501 -0.00000000000E+00 -0.00000000000E+00 -0.27796729420E+02  0.27796729420E+02  0.00000000000E+00 0. -1.
         23    2    1    2    0    0  0.92944305006E+01 -0.46956369304E+02  0.29818790948E+03  0.32688905619E+03  0.12509651730E+03 0.  0.
          5    1    3    3  502    0 -0.20898367742E+02  0.24964219427E+02  0.21146687902E+02  0.39046239705E+02  0.41800000000E+01 0. -1.
         -5    1    3    3    0  502  0.30192798242E+02 -0.71920588731E+02  0.27704122158E+03  0.28784281649E+03  0.41800000000E+01 0. -1.
        -11    1    1    2    0    0  0.11810315628E+02 -0.21508893747E+02  0.86287559878E+02  0.89708745700E+02  0.00000000000E+00 0.  1.
         11    1    1    2    0    0 -0.21104746128E+02  0.68465263052E+02  0.97609478221E+02  0.12108060453E+03  0.00000000000E+00 0. -1.
</event>
<event>
 7    1  0.5109948E-006  0.1781443E+03  0.7561462E-02  0.1169611E+00
         -2   -1    0    0    0  501 -0.00000000000E+00  0.00000000000E+00  0.27458840089E+02  0.27458840089E+02  0.00000000000E+00 0. -1.
          2   -1    0    0  501    0  0.00000000000E+00 -0.00000000000E+00 -0.13940539385E+04  0.13940539385E+04  0.00000000000E+00 0.  1.
         23    2    1    2    0    0  0.80714326745E+02  0.13413372599E+03 -0.69754829662E+03  0.72576171754E+03  0.12509910288E+03 0.  0.
          5    1    3    3  502    0  0.49043815521E+02  0.10319184963E+02 -0.75565988674E+02  0.90771539942E+02  0.41800000000E+01 0. -1.
         -5    1    3    3    0  502  0.31670511224E+02  0.12381454102E+03 -0.62198230794E+03  0.63499017760E+03  0.41800000000E+01 0. -1.
        -11    1    1    2    0    0 -0.47831906917E+02 -0.13701042352E+03 -0.61911322119E+03  0.63589380255E+03  0.00000000000E+00 0.  1.
         11    1    1    2    0    0 -0.32882419828E+02  0.28766975377E+01 -0.49933580592E+02  0.59857258483E+02  0.00000000000E+00 0. -1.
</event>
<event>
 7    1  0.5109948E-006  0.9091318E+02  0.7561462E-02  0.1300655E+00
         -2   -1    0    0    0  501 -0.00000000000E+00  0.00000000000E+00  0.37283300610E+02  0.37283300610E+02  0.00000000000E+00 0. -1.
          2   -1    0    0  501    0  0.00000000000E+00 -0.00000000000E+00 -0.36242130241E+03  0.36242130241E+03  0.00000000000E+00 0.  1.
         23    2    1    2    0    0 -0.83646185355E+01 -0.38810271021E+02 -0.16897359148E+03  0.21395672199E+03  0.12509676370E+03 0.  0.
          5    1    3    3  502    0 -0.38449068254E+02  0.80421386274E+01 -0.14979860082E+03  0.15491965676E+03  0.41800000000E+01 0. -1.
         -5    1    3    3    0  502  0.30084449718E+02 -0.46852409648E+02 -0.19174990664E+02  0.59037065236E+02  0.41800000000E+01 0. -1.
        -11    1    1    2    0    0 -0.34315847865E+02  0.21058899316E+02 -0.12142001398E+03  0.12792136041E+03  0.00000000000E+00 0.  1.
         11    1    1    2    0    0  0.42680466400E+02  0.17751371704E+02 -0.34744396344E+02  0.57826520619E+02  0.00000000000E+00 0. -1.
</event>
<event>
 7    1  0.5109948E-006  0.1886300E+03  0.7561462E-02  0.1159703E+00
          2   -1    0    0  501    0  0.00000000000E+00  0.00000000000E+00  0.10498754126E+04  0.10498754126E+04  0.00000000000E+00 0. -1.
         -2   -1    0    0    0  501 -0.00000000000E+00 -0.00000000000E+00 -0.38770229224E+02  0.38770229224E+02  0.00000000000E+00 0.  1.
         23    2    1    2    0    0  0.12177222139E+03 -0.95929131874E+02  0.33953876412E+03  0.39365544308E+03  0.12508862170E+03 0.  0.
          5    1    3    3  502    0  0.11406553237E+03 -0.12443973084E+03  0.27792882251E+03  0.32520469718E+03  0.41800000000E+01 0. -1.
         -5    1    3    3    0  502  0.77066890220E+01  0.28510598962E+02  0.61609941611E+02  0.68450745899E+02  0.41800000000E+01 0. -1.
        -11    1    1    2    0    0 -0.71250721605E+02  0.10534756277E+03  0.45832075308E+03  0.47563924041E+03  0.00000000000E+00 0.  1.
         11    1    1    2    0    0 -0.50521499788E+02 -0.94184308928E+01  0.21324566614E+03  0.21935095830E+03  0.00000000000E+00 0. -1.
</event>
<event>
 7    1  0.5109948E-006  0.1051523E+03  0.7561462E-02  0.1269820E+00
         -1   -1    0    0    0  501 -0.00000000000E+00  0.00000000000E+00  0.60321991263E+02  0.60321991263E+02  0.00000000000E+00 0.  1.
          1   -1    0    0  501    0  0.00000000000E+00 -0.00000000000E+00 -0.24161006216E+03  0.24161006216E+03  0.00000000000E+00 0. -1.
         23    2    1    2    0    0  0.38335316726E+02  0.16162912113E+02 -0.61607571959E+02  0.14551082251E+03  0.12508825008E+03 0.  0.
          5    1    3    3  502    0 -0.94457931462E+01 -0.40876996041E+02  0.87053811585E+01  0.43051223846E+02  0.41800000000E+01 0.  1.
         -5    1    3    3    0  502  0.47781109872E+02  0.57039908153E+02 -0.70312953118E+02  0.10245959867E+03  0.41800000000E+01 0.  1.
        -11    1    1    2    0    0 -0.24767261448E+02 -0.50746105172E+02 -0.42197176463E+02  0.70492454427E+02  0.00000000000E+00 0.  1.
         11    1    1    2    0    0 -0.13568055278E+02  0.34583193059E+02 -0.77483322475E+02  0.85928776484E+02  0.00000000000E+00 0. -1.
</event>
<event>
 7    1  0.5109948E-006  0.9414130E+02  0.7561462E-02  0.1293122E+00
          1   -1    0    0  501    0  0.00000000000E+00  0.00000000000E+00  0.81565504645E+02  0.81565504645E+02  0.00000000000E+00 0. -1.
         -1   -1    0    0    0  501 -0.00000000000E+00 -0.00000000000E+00 -0.35802032060E+03  0.35802032060E+03  0.00000000000E+00 0.  1.
         23    2    1    2    0    0  0.12565354104E+02 -0.36581217681E+02 -0.31003132027E+03  0.33654569281E+03  0.12509000835E+03 0.  0.
          5    1    3    3  502    0 -0.22323725286E+02 -0.57271864795E+02 -0.27785035366E+03  0.28459920351E+03  0.41800000000E+01 0.  1.
         -5    1    3    3    0  502  0.34889079390E+02  0.20690647114E+02 -0.32180966609E+02  0.51946489300E+02  0.41800000000E+01 0.  1.
        -11    1    1    2    0    0  0.31623004577E+02  0.24728641170E+02 -0.83287708664E+01  0.40998640670E+02  0.00000000000E+00 0. -1.
         11    1    1    2    0    0 -0.44188358681E+02  0.11852576511E+02  0.41905275181E+02  0.62041491769E+02  0.00000000000E+00 0.  1.
</event>
<event>
 7    1  0.5109948E-006  0.1072897E+03  0.7561462E-02  0.1265673E+00
          2   -1    0    0  501    0  0.00000000000E+00  0.00000000000E+00  0.38158061971E+03  0.38158061971E+03  0.00000000000E+00 0. -1.
         -2   -1    0    0    0  501 -0.00000000000E+00 -0.00000000000E+00 -0.39612275887E+02  0.39612275887E+02  0.00000000000E+00 0.  1.
         23    2    1    2    0    0  0.35295552389E+02 -0.33810642840E+02  0.13743833164E+03  0.19215434502E+03  0.12508022113E+03 0.  0.
          5    1    3    3  502    0  0.61231901350E+02 -0.65409520405E+02  0.72619741617E+02  0.11540732375E+03  0.41800000000E+01 0.  1.
         -5    1    3    3    0  502 -0.25936348960E+02  0.31598877565E+02  0.64818590025E+02  0.76747021268E+02  0.41800000000E+01 0.  1.
        -11    1    1    2    0    0  0.20684422691E+02  0.88466787923E+01  0.13277909646E+03  0.13467144287E+03  0.00000000000E+00 0. -1.
         11    1    1    2    0    0 -0.55979975080E+02  0.24963964048E+02  0.71750915726E+02  0.94367107715E+02  0.00000000000E+00 0.  1.
</event>
<event>
 7    1  0.5109948E-006  0.1061441E+03  0.7561462E-02  0.1267882E+00
          2   -1    0    0  501    0  0.00000000000E+00  0.00000000000E+00  0.64437620072E+03  0.64437620072E+03  0.00000000000E+00 0.  1.
         -2   -1    0    0    0  501 -0.00000000000E+00 -0.00000000000E+00 -0.23815325532E+02  0.23815325532E+02  0.00000000000E+00 0. -1.
         23    2    1    2    0    0  0.28535862830E+01 -0.27318043317E+01  0.18659430861E+03  0.22468938784E+03  0.12510906958E+03 0.  0.
          5    1    3    3  502    0  0.38975237418E+02 -0.49674384796E+02  0.11854004049E+03  0.13437197340E+03  0.41800000000E+01 0. -1.
         -5    1    3    3    0  502 -0.36121651135E+02  0.46942580464E+02  0.68054268124E+02  0.90317414441E+02  0.41800000000E+01 0. -1.
        -11    1    1    2    0    0  0.39404460997E+02 -0.17095656190E+02  0.16409918946E+03  0.16962758322E+03  0.00000000000E+00 0. -1.
         11    1    1    2    0    0 -0.42258047280E+02  0.19827460522E+02  0.26986737711E+03  0.27387455519E+03  0.00000000000E+00 0.  1.
</event>
<event>
 7    1  0.5109948E-006  0.1057435E+03  0.7561462E-02  0.1268662E+00
         -1   -1    0    0    0  501 -0.00000000000E+00  0.00000000000E+00  0.30902072330E+03  0.30902072330E+03  0.00000000000E+00 0.  1.
          1   -1    0    0  501    0  0.00000000000E+00 -0.00000000000E+00 -0.68768160459E+02  0.68768160459E+02  0.00000000000E+00 0. -1.
         23    2    1    2    0    0  0.90403772065E+02 -0.24237215385E+02  0.17853308407E+03  0.23723764059E+03  0.12508937362E+03 0.  0.
          5    1    3    3  502    0  0.40137199684E+02 -0.34928945333E+01  0.17815036139E+03  0.18269706832E+03  0.41800000000E+01 0.  1.
         -5    1    3    3    0  502  0.50266572381E+02 -0.20744320851E+02  0.38272267647E+00  0.54540572267E+02  0.41800000000E+01 0.  1.
        -11    1    1    2    0    0 -0.72893406809E+01  0.32137234202E+02 -0.54439639252E+01  0.33400195402E+02  0.00000000000E+00 0. -1.
         11    1    1    2    0    0 -0.83114431384E+02 -0.79000188169E+01  0.67163442696E+02  0.10715104776E+03  0.00000000000E+00 0.  1.
</event>
<event>
 7    1  0.5109948E-006  0.1719513E+03  0.7561462E-02  0.1175828E+00
          2   -1    0    0  501    0  0.00000000000E+00  0.00000000000E+00  0.88638367199E+02  0.88638367199E+02  0.00000000000E+00 0. -1.
         -2   -1    0    0    0  501 -0.00000000000E+00 -0.00000000000E+00 -0.54938593898E+03  0.54938593898E+03  0.00000000000E+00 0.  1.
         23    2    1    2    0    0 -0.53726626351E+02  0.15630383795E+03 -0.38043281151E+03  0.43323677963E+03  0.12509013955E+03 0.  0.
          5    1    3    3  502    0  0.78802554540E+01  0.52615834181E+02 -0.27080655786E+02  0.59844454633E+02  0.41800000000E+01 0.  1.
         -5    1    3    3    0  502 -0.61606881805E+02  0.10368800377E+03 -0.35335215572E+03  0.37339232499E+03  0.41800000000E+01 0.  1.
        -11    1    1    2    0    0  0.47287178453E+02 -0.77497090344E+02  0.17866910506E+01  0.90802359676E+02  0.00000000000E+00 0. -1.
         11    1    1    2    0    0  0.64394478982E+01 -0.78806747610E+02 -0.82101451325E+02  0.11398516688E+03  0.00000000000E+00 0.  1.
</event>
<event>
 7    1  0.5109948E-006  0.1126185E+03  0.7561462E-02  0.1255796E+00
         -1   -1    0    0    0  501 -0.00000000000E+00  0.00000000000E+00  0.35559796280E+02  0.35559796280E+02  0.00000000000E+00 0.  1.
          1   -1    0    0  501    0  0.00000000000E+00 -0.00000000000E+00 -0.71616773509E+03  0.71616773509E+03  0.00000000000E+00 0. -1.
         23    2    1    2    0    0 -0.79467993920E+02 -0.37794855424E+02 -0.18447316323E+03  0.23962248485E+03  0.12507987103E+03 0.  0.
          5    1    3    3  502    0 -0.77404652147E+02 -0.54421723523E+02 -0.56075358031E+02  0.11006871646E+03  0.41800000000E+01 0.  1.
         -5    1    3    3    0  502 -0.20633417728E+01  0.16626868099E+02 -0.12839780520E+03  0.12955376838E+03  0.41800000000E+01 0.  1.
        -11    1    1    2    0    0 -0.40273075642E+01  0.29022306782E+02 -0.48486195918E+02  0.56651784542E+02  0.00000000000E+00 0.  1.
         11    1    1    2    0    0  0.83495301484E+02  0.87725486424E+01 -0.44764857966E+03  0.45545326199E+03  0.00000000000E+00 0. -1.
</event>
<event>
 7    1  0.5109948E-006  0.1542813E+03  0.7561462E-02  0.1195309E+00
          4   -1    0    0  501    0  0.00000000000E+00  0.00000000000E+00  0.32193933232E+03  0.32193933232E+03  0.00000000000E+00 0. -1.
         -4   -1    0    0    0  501 -0.00000000000E+00 -0.00000000000E+00 -0.83526231164E+02  0.83526231164E+02  0.00000000000E+00 0.  1.
         23    2    1    2    0    0 -0.11603568937E+03 -0.30008941930E+02  0.15685125164E+03  0.23370306468E+03  0.12509991805E+03 0.  0.
          5    1    3    3  502    0 -0.10508097020E+03 -0.73422673260E+02  0.11766619534E+03  0.17405661485E+03  0.41800000000E+01 0.  1.
         -5    1    3    3    0  502 -0.10954719168E+02  0.43413731330E+02  0.39185056301E+02  0.59646449830E+02  0.41800000000E+01 0.  1.
        -11    1    1    2    0    0  0.36223038492E+02 -0.19773494771E+02  0.63877557832E+02  0.76048944816E+02  0.00000000000E+00 0. -1.
         11    1    1    2    0    0  0.79812650880E+02  0.49782436701E+02  0.17684291682E+02  0.95713553986E+02  0.00000000000E+00 0.  1.
</event>
<event>
 7    1  0.5109948E-006  0.1014189E+03  0.7561462E-02  0.1277340E+00
         -1   -1    0    0    0  501 -0.00000000000E+00  0.00000000000E+00  0.27498356469E+03  0.27498356469E+03  0.00000000000E+00 0.  1.
          1   -1    0    0  501    0  0.00000000000E+00 -0.00000000000E+00 -0.71229420528E+02  0.71229420528E+02  0.00000000000E+00 0. -1.
         23    2    1    2    0    0 -0.30696617000E+02  0.44519652598E+02  0.19473534700E+03  0.23767852781E+03  0.12507975635E+03 0.  0.
          5    1    3    3  502    0 -0.41332957701E+02  0.84706486699E+02  0.13991325465E+03  0.16875068447E+03  0.41800000000E+01 0. -1.
         -5    1    3    3    0  502  0.10636340701E+02 -0.40186834101E+02  0.54822092348E+02  0.68927843343E+02  0.41800000000E+01 0. -1.
        -11    1    1    2    0    0  0.15308712250E+02 -0.48465948284E+02 -0.35016840227E+02  0.61721016788E+02  0.00000000000E+00 0. -1.
         11    1    1    2    0    0  0.15387904750E+02  0.39462956856E+01  0.44035637395E+02  0.46813440624E+02  0.00000000000E+00 0.  1.
</event>
<event>
 7    1  0.5109948E-006  0.1001126E+03  0.7561462E-02  0.1280059E+00
         -2   -1    0    0    0  501 -0.00000000000E+00  0.00000000000E+00  0.15610774179E+03  0.15610774179E+03  0.00000000000E+00 0.  1.
          2   -1    0    0  501    0  0.00000000000E+00 -0.00000000000E+00 -0.12864712608E+03  0.12864712608E+03  0.00000000000E+00 0. -1.
         23    2    1    2    0    0 -0.53206676772E+01  0.56905602205E+02  0.86328113784E+02  0.16237922939E+03  0.12509162179E+03 0.  0.
          5    1    3    3  502    0 -0.42598894616E+02  0.44990935278E+02  0.10248688988E+03  0.11983273792E+03  0.41800000000E+01 0.  1.
         -5    1    3    3    0  502  0.37278226939E+02  0.11914666927E+02 -0.16158776099E+02  0.42546491474E+02  0.41800000000E+01 0.  1.
        -11    1    1    2    0    0 -0.12919633286E+02 -0.73186310878E+02 -0.20871555887E+02  0.77193101177E+02  0.00000000000E+00 0.  1.
         11    1    1    2    0    0  0.18240300963E+02  0.16280708673E+02 -0.37995942189E+02  0.45182537301E+02  0.00000000000E+00 0. -1.
</event>
<event>
 7    1  0.5109948E-006  0.1488731E+03  0.7561462E-02  0.1201865E+00
          3   -1    0    0  501    0  0.00000000000E+00  0.00000000000E+00  0.22632644091E+03  0.22632644091E+03  0.00000000000E+00 0. -1.
         -3   -1    0    0    0  501 -0.00000000000E+00 -0.00000000000E+00 -0.11512901108E+03  0.11512901108E+03  0.00000000000E+00 0.  1.
         23    2    1    2    0    0 -0.86379599909E+02 -0.78272575977E+02  0.31159268749E+02  0.17380006574E+03  0.12509009310E+03 0.  0.
          5    1    3    3  502    0 -0.69715832970E+02  0.18135615255E+02  0.22045969931E+02  0.75449950945E+02  0.41800000000E+01 0. -1.
         -5    1    3    3    0  502 -0.16663766939E+02 -0.96408191232E+02  0.91132988180E+01  0.98350114797E+02  0.41800000000E+01 0. -1.
        -11    1    1    2    0    0  0.58994653765E+02  0.18357114729E+02 -0.27612561700E+01  0.61846401429E+02  0.00000000000E+00 0.  1.
         11    1    1    2    0    0  0.27384946144E+02  0.59915461248E+02  0.82799417252E+02  0.10580898482E+03  0.00000000000E+00 0. -1.
</event>
<event>
 7    1  0.5109948E-006  0.1166707E+03  0.7561462E-02  0.1248693E+00
         -1   -1    0    0    0  501 -0.00000000000E+00  0.00000000000E+00  0.19920867102E+03  0.19920867102E+03  0.00000000000E+00 0.  1.
          1   -1    0    0  501    0  0.00000000000E+00 -0.00000000000E+00 -0.77223841194E+02  0.77223841194E+02  0.00000000000E+00 0. -1.
         23    2    1    2    0    0 -0.44999204916E+02 -0.39226729031E+02  0.88716320669E+02  0.16456790681E+03  0.12509334789E+03 0.  0.
          5    1    3    3  502    0 -0.20900854998E+02  0.45242170413E+02  0.24580914434E+02  0.55726057440E+02  0.41800000000E+01 0.  1.
         -5    1    3    3    0  502 -0.24098349917E+02 -0.84468899444E+02  0.64135406235E+02  0.10884184937E+03  0.41800000000E+01 0.  1.
        -11    1    1    2    0    0 -0.38315531731E+01  0.45941375614E+02 -0.89542699857E+01  0.46962429069E+02  0.00000000000E+00 0. -1.
         11    1    1    2    0    0  0.48830758089E+02 -0.67146465836E+01  0.42222779143E+02  0.64902176334E+02  0.00000000000E+00 0.  1.
</event>
<event>
 7    1  0.5109948E-006  0.1125837E+03  0.7561462E-02  0.1255859E+00
          1   -1    0    0  501    0  0.00000000000E+00  0.00000000000E+00  0.94241648489E+03  0.94241648489E+03  0.00000000000E+00 0. -1.
         -1   -1    0    0    0  501 -0.00000000000E+00 -0.00000000000E+00 -0.22647293967E+02  0.22647293967E+02  0.00000000000E+00 0.  1.
         23    2    1    2    0    0  0.89663849495E+02  0.39203022592E+02  0.53463602709E+03  0.55772841130E+03  0.12509522942E+03 0.  0.
          5    1    3    3  502    0  0.17901797090E+02  0.39713139048E+02  0.42097119171E+03  0.42323967725E+03  0.41800000000E+01 0.  1.
         -5    1    3    3    0  502  0.71762052405E+02 -0.51011645588E+00  0.11366483538E+03  0.13448873405E+03  0.41800000000E+01 0.  1.
        -11    1    1    2    0    0 -0.64923126456E+02 -0.21402194957E+01  0.33054924637E+03  0.33687148464E+03  0.00000000000E+00 0. -1.
         11    1    1    2    0    0 -0.24740723039E+02 -0.37062803096E+02  0.54583917465E+02  0.70463882916E+02  0.00000000000E+00 0.  1.
</event>
<event>
 7    1  0.5109948E-006  0.1141703E+03  0.7561462E-02  0.1253036E+00
          2   -1    0    0  501    0  0.00000000000E+00  0.00000000000E+00  0.24887263610E+03  0.24887263610E+03  0.00000000000E+00 0.  1.
         -2   -1    0    0    0  501 -0.00000000000E+00 -0.00000000000E+00 -0.56991884080E+02  0.56991884080E+02  0.00000000000E+00 0. -1.
         23    2    1    2    0    0  0.19084840013E+02 -0.39292815153E+02  0.83003108303E+02  0.15634607792E+03  0.12508566525E+03 0.  0.
          5    1    3    3  502    0  0.70039678359E+02 -0.24506839719E+02  0.68764843602E+02  0.10125323626E+03  0.41800000000E+01 0.  1.
         -5    1    3    3    0  502 -0.50954838346E+02 -0.14785975434E+02  0.14238264701E+02  0.55092841659E+02  0.41800000000E+01 0.  1.
        -11    1    1    2    0    0 -0.48905190270E+02 -0.30597978640E+01  0.39509033519E+02  0.62944767280E+02  0.00000000000E+00 0. -1.
         11    1    1    2    0    0  0.29820350257E+02  0.42352613017E+02  0.69368610195E+02  0.86573674978E+02  0.00000000000E+00 0.  1.
</event>
<event>
 7    1  0.5109948E-006  0.1177056E+03  0.7561462E-02  0.1246931E+00
         -2   -1    0    0    0  501 -0.00000000000E+00  0.00000000000E+00  0.28647395385E+03  0.28647395385E+03  0.00000000000E+00 0. -1.
          2   -1    0    0  501    0  0.00000000000E+00 -0.00000000000E+00 -0.69304139628E+02  0.69304139628E+02  0.00000000000E+00 0.  1.
         23    2    1    2    0    0  0.33037099778E+02 -0.52933474980E+02  0.20190823806E+03  0.24557659015E+03  0.12509005675E+03 0.  0.
          5    1    3    3  502    0 -0.16332317267E+02 -0.73867688895E+02  0.70120949949E+02  0.10323565310E+03  0.41800000000E+01 0.  1.
         -5    1    3    3    0  502  0.49369417045E+02  0.20934213916E+02  0.13178728811E+03  0.14234093705E+03  0.41800000000E+01 0.  1.
        -11    1    1    2    0    0  0.25551901358E+02  0.37309483943E+02 -0.66923971405E+01  0.45713077282E+02  0.00000000000E+00 0.  1.
         11    1    1    2    0    0 -0.58589001136E+02  0.15623991037E+02  0.21953973303E+02  0.64488426046E+02  0.00000000000E+00 0. -1.
</event>
<event>
 7    1  0.5109948E-006  0.9421518E+02  0.7561462E-02  0.1292954E+00
         -1   -1    0    0    0  501 -0.00000000000E+00  0.00000000000E+00  0.24302943259E+03  0.24302943259E+03  0.00000000000E+00 0.  1.
          1   -1    0    0  501    0  0.00000000000E+00 -0.00000000000E+00 -0.67797298518E+02  0.67797298518E+02  0.00000000000E+00 0. -1.
         23    2    1    2    0    0  0.12013978061E+02 -0.48077172915E+02  0.15489055723E+03  0.20516673847E+03  0.12508619280E+03 0.  0.
          5    1    3    3  502    0  0.40569927627E+02  0.18359986615E+02  0.14204051904E+02  0.46927983407E+02  0.41800000000E+01 0.  1.
         -5    1    3    3    0  502 -0.28555949566E+02 -0.66437159530E+02  0.14068650533E+03  0.15823875506E+03  0.41800000000E+01 0.  1.
        -11    1    1    2    0    0 -0.10102877127E+02 -0.93763382598E+01  0.42020030947E+02  0.44222922180E+02  0.00000000000E+00 0.  1.
         11    1    1    2    0    0 -0.19111009342E+01  0.57453511175E+02 -0.21678454112E+02  0.61437070453E+02  0.00000000000E+00 0. -1.
</event>
<event>
 7    1  0.5109948E-006  0.1073412E+03  0.7561462E-02  0.1265574E+00
          2   -1    0    0  501    0  0.00000000000E+00  0.00000000000E+00  0.88379344721E+03  0.88379344721E+03  0.00000000000E+00 0. -1.
         -2   -1    0    0    0  501 -0.00000000000E+00 -0.00000000000E+00 -0.18122489024E+02  0.18122489024E+02  0.00000000000E+00 0.  1.
         23    2    1    2    0    0 -0.58222152507E+02 -0.32820082758E+02  0.59367332079E+03  0.61037852193E+03  0.12508777458E+03 0.  0.
          5    1    3    3  502    0 -0.79518389267E+02 -0.39370616996E+02  0.57252741469E+03  0.57937753899E+03  0.41800000000E+01 0. -1.
         -5    1    3    3    0  502  0.21296236760E+02  0.65505342377E+01  0.21145906100E+02  0.31000982948E+02  0.41800000000E+01 0. -1.
        -11    1    1    2    0    0  0.35419392530E+02 -0.23443121049E+02  0.13888185682E+03  0.14523182656E+03  0.00000000000E+00 0.  1.
         11    1    1    2    0    0  0.22802759977E+02  0.56263203808E+02  0.13311578058E+03  0.14630558774E+03  0.00000000000E+00 0. -1.
</event>
<event>
 7    1  0.5109948E-006  0.3319842E+03  0.7561462E-02  0.1070262E+00
          2   -1    0    0  501    0  0.00000000000E+00  0.00000000000E+00  0.54612986570E+03  0.54612986570E+03  0.00000000000E+00 0. -1.
         -2   -1    0    0    0  501 -0.00000000000E+00 -0.00000000000E+00 -0.67723287817E+03  0.67723287817E+03  0.00000000000E+00 0.  1.
         23    2    1    2    0    0 -0.25051905823E+03  0.20057022854E+03 -0.57497442048E+03  0.66925118201E+03  0.11963839392E+03 0.  0.
          5    1    3    3  502    0  0.74377196604E+01  0.34109559001E+02 -0.68014848791E+02  0.76565486644E+02  0.41800000000E+01 0. -1.
         -5    1    3    3    0  502 -0.25795677789E+03  0.16646066954E+03 -0.50695957169E+03  0.59268569537E+03  0.41800000000E+01 0.  1.
        -11    1    1    2    0    0  0.13203571927E+03 -0.90662533506E+02  0.15377157222E+03  0.22203338165E+03  0.00000000000E+00 0. -1.
         11    1    1    2    0    0  0.11848333895E+03 -0.10990769504E+03  0.29009983579E+03  0.33207818020E+03  0.00000000000E+00 0.  1.
</event>
<event>
 7    1  0.5109948E-006  0.9844423E+02  0.7561462E-02  0.1283602E+00
         -4   -1    0    0    0  501 -0.00000000000E+00  0.00000000000E+00  0.21830470426E+03  0.21830470426E+03  0.00000000000E+00 0.  1.
          4   -1    0    0  501    0  0.00000000000E+00 -0.00000000000E+00 -0.63697282545E+02  0.63697282545E+02  0.00000000000E+00 0. -1.
         23    2    1    2    0    0  0.41778731997E+02 -0.42870573859E+00  0.11154080709E+03  0.17273206675E+03  0.12509743802E+03 0.  0.
          5    1    3    3  502    0 -0.32123247415E+02  0.32543058637E+02  0.64051544974E+02  0.78810066004E+02  0.41800000000E+01 0. -1.
         -5    1    3    3    0  502  0.73901979412E+02 -0.32971764375E+02  0.47489262120E+02  0.93922000744E+02  0.41800000000E+01 0. -1.
        -11    1    1    2    0    0 -0.11611585836E+02  0.27219831425E+02  0.58909340155E+02  0.65924642631E+02  0.00000000000E+00 0.  1.
         11    1    1    2    0    0 -0.30167146162E+02 -0.26791125687E+02 -0.15842725532E+02  0.43345277429E+02  0.00000000000E+00 0. -1.
</event>
<event>
 7    1  0.5109948E-006  0.9773540E+02  0.7561462E-02  0.1285131E+00
         -3   -1    0    0    0  501 -0.00000000000E+00  0.00000000000E+00  0.46254899023E+02  0.46254899023E+02  0.00000000000E+00 0.  1.
          3   -1    0    0  501    0  0.00000000000E+00 -0.00000000000E+00 -0.31400844365E+03  0.31400844365E+03  0.00000000000E+00 0. -1.
         23    2    1    2    0    0  0.82243009941E+01 -0.45438812410E+01 -0.82500044398E+02  0.15014113851E+03  0.12509123936E+03 0.  0.
          5    1    3    3  502    0  0.30303223808E+02 -0.58693172125E+02 -0.36220339925E+02  0.75449050700E+02  0.41800000000E+01 0. -1.
         -5    1    3    3    0  502 -0.22078922814E+02  0.54149290884E+02 -0.46279704473E+02  0.74692087813E+02  0.41800000000E+01 0. -1.
        -11    1    1    2    0    0 -0.12833827178E+02 -0.31659551505E+02 -0.17382682941E+02  0.38330040278E+02  0.00000000000E+00 0.  1.
         11    1    1    2    0    0  0.46095261842E+01  0.36203432746E+02 -0.16787081729E+03  0.17179216388E+03  0.00000000000E+00 0. -1.
</event>
<event>
 7    1  0.5109948E-006  0.1428206E+03  0.7561462E-02  0.1209583E+00
          4   -1    0    0  501    0  0.00000000000E+00  0.00000000000E+00  0.36065905496E+03  0.36065905496E+03  0.00000000000E+00 0. -1.
         -4   -1    0    0    0  501 -0.00000000000E+00 -0.00000000000E+00 -0.71636381095E+02  0.71636381095E+02  0.00000000000E+00 0.  1.
         23    2    1    2    0    0  0.40014979422E+02  0.93337526916E+02  0.75880669592E+02  0.17809566634E+03  0.12508836014E+03 0.  0.
          5    1    3    3  502    0  0.71091035018E+02  0.96877973700E+02  0.82545771092E+02  0.14584427919E+03  0.41800000000E+01 0. -1.
         -5    1    3    3    0  502 -0.31076055596E+02 -0.35404467838E+01 -0.66651014997E+01  0.32251387146E+02  0.41800000000E+01 0. -1.
        -11    1    1    2    0    0  0.26900215056E+02 -0.40354100942E+02  0.11072226673E+03  0.12087801861E+03  0.00000000000E+00 0. -1.
         11    1    1    2    0    0 -0.66915194478E+02 -0.52983425974E+02  0.10241973754E+03  0.13332175111E+03  0.00000000000E+00 0.  1.
</event>
<event>
 7    1  0.5109948E-006  0.7950560E+02  0.7561462E-02  0.1330460E+00
          2   -1    0    0  501    0  0.00000000000E+00  0.00000000000E+00  0.49946220864E+03  0.49946220864E+03  0.00000000000E+00 0. -1.
         -2   -1    0    0    0  501 -0.00000000000E+00 -0.00000000000E+00 -0.21185578926E+02  0.21185578926E+02  0.00000000000E+00 0.  1.
         23    2    1    2    0    0 -0.18136727665E+00 -0.84519650620E+01  0.22774644148E+03  0.25360143490E+03  0.11123748274E+03 0.  0.
          5    1    3    3  502    0  0.28007881111E+02 -0.26495885764E+02  0.21348823670E+03  0.21698196463E+03  0.41800000000E+01 0. -1.
         -5    1    3    3    0  502 -0.28189248388E+02  0.18043920702E+02  0.14258204783E+02  0.36619470267E+02  0.41800000000E+01 0.  1.
        -11    1    1    2    0    0  0.43052629063E+02  0.68952805856E+01  0.79005018028E+02  0.90237833735E+02  0.00000000000E+00 0. -1.
         11    1    1    2    0    0 -0.42871261787E+02  0.15566844764E+01  0.17152517020E+03  0.17680851893E+03  0.00000000000E+00 0.  1.
</event>
<event>
 7    1  0.5109948E-006  0.1193726E+03  0.7561462E-02  0.1244136E+00
         -2   -1    0    0    0  501 -0.00000000000E+00  0.00000000000E+00  0.45004439056E+02  0.45004439056E+02  0.00000000000E+00 0.  1.
          2   -1    0    0  501    0  0.00000000000E+00 -0.00000000000E+00 -0.45249635228E+03  0.45249635228E+03  0.00000000000E+00 0. -1.
         23    2    1    2    0    0 -0.56414014253E+02 -0.25336342089E+02 -0.10279164896E+03  0.17331731813E+03  0.12509315901E+03 0.  0.
          5    1    3    3  502    0  0.34425988498E+02  0.13918126668E+02 -0.45560898696E+02  0.58924789554E+02  0.41800000000E+01 0.  1.
         -5    1    3    3    0  502 -0.90840002752E+02 -0.39254468758E+02 -0.57230750268E+02  0.11439252857E+03  0.41800000000E+01 0.  1.
        -11    1    1    2    0    0 -0.15718962588E+01  0.41975404489E+02 -0.68091172308E+02  0.80005082252E+02  0.00000000000E+00 0.  1.
         11    1    1    2    0    0  0.57985910512E+02 -0.16639062400E+02 -0.23660909195E+03  0.24417839095E+03  0.00000000000E+00 0. -1.
</event>
<event>
 7    1  0.5109948E-006  0.1109168E+03  0.7561462E-02  0.1258881E+00
         -1   -1    0    0    0  501 -0.00000000000E+00  0.00000000000E+00  0.21451036508E+03  0.21451036508E+03  0.00000000000E+00 0.  1.
          1   -1    0    0  501    0  0.00000000000E+00 -0.00000000000E+00 -0.61599688084E+02  0.61599688084E+02  0.00000000000E+00 0. -1.
         23    2    1    2    0    0  0.59179704970E+02  0.41828674335E+02  0.90819758508E+02  0.17072153348E+03  0.12508292441E+03 0.  0.
          5    1    3    3  502    0  0.10155980634E+02 -0.42221338772E+02  0.46366676911E+02  0.63664169814E+02  0.41800000000E+01 0. -1.
         -5    1    3    3    0  502  0.49023724335E+02  0.84050013106E+02  0.44453081597E+02  0.10705736366E+03  0.41800000000E+01 0. -1.
        -11    1    1    2    0    0 -0.40970672343E+02 -0.70705318909E+01  0.48456084556E+02  0.63848105250E+02  0.00000000000E+00 0.  1.
         11    1    1    2    0    0 -0.18209032626E+02 -0.34758142444E+02  0.13634833931E+02  0.41540414438E+02  0.00000000000E+00 0. -1.
</event>
<event>
 7    1  0.5109948E-006  0.1100638E+03  0.7561462E-02  0.1260452E+00
          1   -1    0    0  501    0  0.00000000000E+00  0.00000000000E+00  0.44511191260E+03  0.44511191260E+03  0.00000000000E+00 0. -1.
         -1   -1    0    0    0  501 -0.00000000000E+00 -0.00000000000E+00 -0.32742648907E+02  0.32742648907E+02  0.00000000000E+00 0.  1.
         23    2    1    2    0    0  0.34454705516E+02  0.42119701494E+02  0.22675111074E+03  0.26461733118E+03  0.12508025324E+03 0.  0.
          5    1    3    3  502    0  0.37496343486E+02  0.75593126605E+02  0.21095668239E+03  0.22724544178E+03  0.41800000000E+01 0. -1.
         -5    1    3    3    0  502 -0.30416379697E+01 -0.33473425111E+02  0.15794428351E+02  0.37371889397E+02  0.41800000000E+01 0. -1.
        -11    1    1    2    0    0  0.21073315843E+02 -0.41153939567E+02  0.11079871974E+03  0.12005868431E+03  0.00000000000E+00 0.  1.
         11    1    1    2    0    0 -0.55528021359E+02 -0.96576192671E+00  0.74819433212E+02  0.93178546019E+02  0.00000000000E+00 0. -1.
</event>
<event>
 7    1  0.5109948E-006  0.5194999E+02  0.7561462E-02  0.1435099E+00
          2   -1    0    0  501    0  0.00000000000E+00  0.00000000000E+00  0.44871125276E+03  0.44871125276E+03  0.00000000000E+00 0. -1.
         -2   -1    0    0    0  501 -0.00000000000E+00 -0.00000000000E+00 -0.29651814064E+02  0.29651814064E+02  0.00000000000E+00 0.  1.
         23    2    1    2    0    0 -0.36956841181E+02 -0.34907676893E+00  0.26158997224E+03  0.29230450002E+03  0.12508667869E+03 0.  0.
          5    1    3    3  502    0 -0.71391903278E+01  0.12760541667E+02  0.25890964741E+03  0.25935588944E+03  0.41800000000E+01 0.  1.
         -5    1    3    3    0  502 -0.29817650853E+02 -0.13109618436E+02  0.26803248325E+01  0.32948610580E+02  0.41800000000E+01 0.  1.
        -11    1    1    2    0    0  0.35232347580E+01  0.17795615685E+02 -0.53621685725E+01  0.18916922915E+02  0.00000000000E+00 0.  1.
         11    1    1    2    0    0  0.33433606423E+02 -0.17446538916E+02  0.16283163503E+03  0.16714164390E+03  0.00000000000E+00 0. -1.
</event>
<event>
 7    1  0.5109948E-006  0.1674000E+03  0.7561462E-02  0.1180587E+00
         -2   -1    0    0    0  501 -0.00000000000E+00  0.00000000000E+00  0.19411403000E+03  0.19411403000E+03  0.00000000000E+00 0.  1.
          2   -1    0    0  501    0  0.00000000000E+00 -0.00000000000E+00 -0.15203043823E+03  0.15203043823E+03  0.00000000000E+00 0. -1.
         23    2    1    2    0    0  0.70035599532E+02 -0.10952191873E+03  0.53939463796E+02  0.18829628065E+03  0.12508392251E+03 0.  0.
          5    1    3    3  502    0 -0.17768192941E+02 -0.87544154631E+02  0.32813996607E+02  0.95257117654E+02  0.41800000000E+01 0. -1.
         -5    1    3    3    0  502  0.87803792474E+02 -0.21977764095E+02  0.21125467189E+02  0.93039162998E+02  0.41800000000E+01 0. -1.
        -11    1    1    2    0    0 -0.81606217991E+02  0.53546645968E+02  0.64807685620E+01  0.97820337714E+02  0.00000000000E+00 0.  1.
         11    1    1    2    0    0  0.11570618459E+02  0.55975272758E+02 -0.18336640585E+02  0.60027849868E+02  0.00000000000E+00 0. -1.
</event>
<event>
 7    1  0.5109948E-006  0.1126744E+03  0.7561462E-02  0.1255696E+00
          2   -1    0    0  501    0  0.00000000000E+00  0.00000000000E+00  0.20798849813E+03  0.20798849813E+03  0.00000000000E+00 0. -1.
         -2   -1    0    0    0  501 -0.00000000000E+00 -0.00000000000E+00 -0.84014088940E+02  0.84014088940E+02  0.00000000000E+00 0.  1.
         23    2    1    2    0    0 -0.37410491462E+02  0.47753733959E+02  0.11347901994E+03  0.17946008841E+03  0.12509385033E+03 0.  0.
          5    1    3    3  502    0  0.53542694574E+01  0.82992866636E+02  0.72573012786E+02  0.11045722565E+03  0.41800000000E+01 0.  1.
         -5    1    3    3    0  502 -0.42764760919E+02 -0.35239132677E+02  0.40906007150E+02  0.69002862761E+02  0.41800000000E+01 0.  1.
        -11    1    1    2    0    0 -0.99739575325E+01 -0.36455220021E+02 -0.30741902537E+02  0.48718861514E+02  0.00000000000E+00 0.  1.
         11    1    1    2    0    0  0.47384448994E+02 -0.11298513938E+02  0.41237291787E+02  0.63823637139E+02  0.00000000000E+00 0. -1.
</event>
<event>
 7    1  0.5109948E-006  0.1239054E+03  0.7561462E-02  0.1236790E+00
          2   -1    0    0  501    0  0.00000000000E+00  0.00000000000E+00  0.58861191001E+03  0.58861191001E+03  0.00000000000E+00 0. -1.
         -2   -1    0    0    0  501 -0.00000000000E+00 -0.00000000000E+00 -0.32331789496E+02  0.32331789496E+02  0.00000000000E+00 0.  1.
         23    2    1    2    0    0  0.22913092283E+02  0.81762030010E+02  0.29446544201E+03  0.33100981462E+03  0.12509021341E+03 0.  0.
          5    1    3    3  502    0  0.37236351995E+02  0.11092885567E+03  0.24686753676E+03  0.27322666421E+03  0.41800000000E+01 0.  1.
         -5    1    3    3    0  502 -0.14323259711E+02 -0.29166825657E+02  0.47597905244E+02  0.57783150410E+02  0.41800000000E+01 0.  1.
        -11    1    1    2    0    0  0.13977550404E+02 -0.39310534349E+02  0.29982639905E+02  0.51377511830E+02  0.00000000000E+00 0.  1.
         11    1    1    2    0    0 -0.36890642688E+02 -0.42451495661E+02  0.23183203861E+03  0.23855637306E+03  0.00000000000E+00 0. -1.
</event>
<event>
 7    1  0.5109948E-006  0.6387770E+02  0.7561462E-02  0.1382244E+00
         -1   -1    0    0    0  501 -0.00000000000E+00  0.00000000000E+00  0.70401619187E+02  0.70401619187E+02  0.00000000000E+00 0.  1.
          1   -1    0    0  501    0  0.00000000000E+00 -0.00000000000E+00 -0.11779046174E+03  0.11779046174E+03  0.00000000000E+00 0. -1.
         23    2    1    2    0    0 -0.78379970109E+01 -0.13471354673E+02 -0.25533149247E+02  0.12861784191E+03  0.12509075087E+03 0.  0.
          5    1    3    3  502    0  0.12720333790E+02  0.32815267002E+02 -0.58245120033E+02  0.68180752767E+02  0.41800000000E+01 0. -1.
         -5    1    3    3    0  502 -0.20558330801E+02 -0.46286621675E+02  0.32711970786E+02  0.60437089143E+02  0.41800000000E+01 0. -1.
        -11    1    1    2    0    0  0.93985509141E+01 -0.12409423946E+02 -0.28795394104E+02  0.32733794213E+02  0.00000000000E+00 0. -1.
         11    1    1    2    0    0 -0.15605539032E+01  0.25880778619E+02  0.69397007938E+01  0.26840444809E+02  0.00000000000E+00 0.  1.
</event>
<event>
 7    1  0.5109948E-006  0.1276197E+03  0.7561462E-02  0.1231031E+00
         -1   -1    0    0    0  501 -0.00000000000E+00  0.00000000000E+00  0.47206457519E+02  0.47206457519E+02  0.00000000000E+00 0.  1.
          1   -1    0    0  501    0  0.00000000000E+00 -0.00000000000E+00 -0.38046078745E+03  0.38046078745E+03  0.00000000000E+00 0. -1.
         23    2    1    2    0    0 -0.25964263520E+02 -0.66321953500E+02 -0.17119025497E+03  0.22366126722E+03  0.12508203134E+03 0.  0.
          5    1    3    3  502    0 -0.38222398874E+02  0.21906837409E+02 -0.10068762718E+03  0.10998332586E+03  0.41800000000E+01 0.  1.
         -5    1    3    3    0  502  0.12258135353E+02 -0.88228790909E+02 -0.70502627790E+02  0.11367794136E+03  0.41800000000E+01 0.  1.
        -11    1    1    2    0    0  0.48762963057E+02 -0.29823710509E+01 -0.83869239661E+02  0.97060653534E+02  0.00000000000E+00 0. -1.
         11    1    1    2    0    0 -0.22798699537E+02  0.69304324551E+02 -0.78194835304E+02  0.10694532421E+03  0.00000000000E+00 0.  1.
</event>
<event>
 7    1  0.5109948E-006  0.9073357E+02  0.7561462E-02  0.1301085E+00
         -1   -1    0    0    0  501 -0.00000000000E+00  0.00000000000E+00  0.18085895838E+03  0.18085895838E+03  0.00000000000E+00 0.  1.
          1   -1    0    0  501    0  0.00000000000E+00 -0.00000000000E+00 -0.78834597578E+02  0.78834597578E+02  0.00000000000E+00 0. -1.
         23    2    1    2    0    0 -0.35718643834E+02 -0.16356108074E+02  0.89015034685E+02  0.15848135394E+03  0.12509723960E+03 0.  0.
          5    1    3    3  502    0  0.45651176314E+02  0.68280837554E+01  0.29171151259E+02  0.54763866667E+02  0.41800000000E+01 0.  1.
         -5    1    3    3    0  502 -0.81369820148E+02 -0.23184191829E+02  0.59843883426E+02  0.10371748727E+03  0.41800000000E+01 0.  1.
        -11    1    1    2    0    0  0.10827056972E+02 -0.95819855216E+01 -0.36941378070E+02  0.39669951133E+02  0.00000000000E+00 0. -1.
         11    1    1    2    0    0  0.24891586862E+02  0.25938093595E+02  0.49950704190E+02  0.61542250892E+02  0.00000000000E+00 0.  1.
</event>
<event>
 7    1  0.5109948E-006  0.1254363E+03  0.7561462E-02  0.1234389E+00
          2   -1    0    0  501    0  0.00000000000E+00  0.00000000000E+00  0.59550924042E+03  0.59550924042E+03  0.00000000000E+00 0. -1.
         -2   -1    0    0    0  501 -0.00000000000E+00 -0.00000000000E+00 -0.36035542441E+02  0.36035542441E+02  0.00000000000E+00 0.  1.
         23    2    1    2    0    0 -0.15912718499E+02 -0.93255695543E+02  0.25030584786E+03  0.29538349704E+03  0.12509417850E+03 0.  0.
          5    1    3    3  502    0 -0.40736195942E+02 -0.79372479139E+01  0.17163713010E+03  0.17663299350E+03  0.41800000000E+01 0. -1.
         -5    1    3    3    0  502  0.24823477443E+02 -0.85318447629E+02  0.78668717756E+02  0.11875050354E+03  0.41800000000E+01 0. -1.
        -11    1    1    2    0    0  0.40077127292E+02  0.23672864278E+02  0.19358716302E+03  0.19910442065E+03  0.00000000000E+00 0. -1.
         11    1    1    2    0    0 -0.24164408793E+02  0.69582831265E+02  0.11558068710E+03  0.13705686517E+03  0.00000000000E+00 0.  1.
</event>
<event>
 7    1  0.5109948E-006  0.1294316E+03  0.7561462E-02  0.1228302E+00
         -2   -1    0    0    0  501 -0.00000000000E+00  0.00000000000E+00  0.13483466526E+03  0.13483466526E+03  0.00000000000E+00 0.  1.
          2   -1    0    0  501    0  0.00000000000E+00 -0.00000000000E+00 -0.21471151173E+03  0.21471151173E+03  0.00000000000E+00 0. -1.
         23    2    1    2    0    0  0.26351266637E+02 -0.90302266461E+02  0.51610839683E+02  0.16480326409E+03  0.12509016148E+03 0.  0.
          5    1    3    3  502    0 -0.29878449205E+02 -0.70895236032E+02 -0.11586315495E+02  0.77913871202E+02  0.41800000000E+01 0.  1.
         -5    1    3    3    0  502  0.56229715841E+02 -0.19407030429E+02  0.63197155178E+02  0.86889392887E+02  0.41800000000E+01 0.  1.
        -11    1    1    2    0    0 -0.53767964912E+02  0.68936637091E+02 -0.62420096370E+02  0.10742216910E+03  0.00000000000E+00 0.  1.
         11    1    1    2    0    0  0.27416698276E+02  0.21365629370E+02 -0.69067589779E+02  0.77320743792E+02  0.00000000000E+00 0. -1.
</event>
<event>
 7    1  0.5109948E-006  0.2687514E+03  0.7561462E-02  0.1101996E+00
         -1   -1    0    0    0  501 -0.00000000000E+00  0.00000000000E+00  0.18740094843E+04  0.18740094843E+04  0.00000000000E+00 0.  1.
          1   -1    0    0  501    0  0.00000000000E+00 -0.00000000000E+00 -0.42260036231E+02  0.42260036231E+02  0.00000000000E+00 0. -1.
         23    2    1    2    0    0  0.17230664888E+03  0.18928873579E+03  0.10208728323E+04  0.10598816149E+04  0.12509153072E+03 0.  0.
          5    1    3    3  502    0  0.86584617796E+02  0.17588097651E+02  0.24058636425E+03  0.25633085706E+03  0.41800000000E+01 0. -1.
         -5    1    3    3    0  502  0.85722031087E+02  0.17170063814E+03  0.78028646807E+03  0.80355075783E+03  0.41800000000E+01 0. -1.
        -11    1    1    2    0    0 -0.82771675214E+02 -0.73243258585E+02  0.20350800708E+03  0.23158418360E+03  0.00000000000E+00 0. -1.
         11    1    1    2    0    0 -0.89534973668E+02 -0.11604547721E+03  0.60736860870E+03  0.62480372208E+03  0.00000000000E+00 0.  1.
</event>
<event>
 7    1  0.5109948E-006  0.1248393E+03  0.7561462E-02  0.1235321E+00
          2   -1    0    0  501    0  0.00000000000E+00  0.00000000000E+00  0.20235837501E+03  0.20235837501E+03  0.00000000000E+00 0. -1.
         -2   -1    0    0    0  501 -0.00000000000E+00 -0.00000000000E+00 -0.10669456395E+03  0.10669456395E+03  0.00000000000E+00 0.  1.
         23    2    1    2    0    0 -0.64587106108E+02  0.72333926279E+02  0.36584773869E+02  0.16245245042E+03  0.12509461141E+03 0.  0.
          5    1    3    3  502    0 -0.82271530050E+02  0.16362523405E+02  0.55467100937E+02  0.10064993053E+03  0.41800000000E+01 0.  1.
         -5    1    3    3    0  502  0.17684423942E+02  0.55971402874E+02 -0.18882327068E+02  0.61802519895E+02  0.41800000000E+01 0.  1.
        -11    1    1    2    0    0  0.10364134668E+02 -0.44891806629E+02  0.71031044845E+02  0.84664626153E+02  0.00000000000E+00 0. -1.
         11    1    1    2    0    0  0.54222971440E+02 -0.27442119650E+02 -0.11952007645E+02  0.61935862385E+02  0.00000000000E+00 0.  1.
</event>
<event>
 7    1  0.5109948E-006  0.1059561E+03  0.7561462E-02  0.1268247E+00
          2   -1    0    0  501    0  0.00000000000E+00  0.00000000000E+00  0.37466015909E+02  0.37466015909E+02  0.00000000000E+00 0. -1.
         -2   -1    0    0    0  501 -0.00000000000E+00 -0.00000000000E+00 -0.47479946519E+03  0.47479946519E+03  0.00000000000E+00 0.  1.
         23    2    1    2    0    0  0.36250823316E+02 -0.65964638992E+02 -0.27432837179E+03  0.31075983256E+03  0.12510060820E+03 0.  0.
          5    1    3    3  502    0  0.52918912152E+01  0.11362294676E+02  0.86203252476E+01  0.15776192834E+02  0.41800000000E+01 0.  1.
         -5    1    3    3    0  502  0.30958932101E+02 -0.77326933668E+02 -0.28294869704E+03  0.29498363972E+03  0.41800000000E+01 0.  1.
        -11    1    1    2    0    0 -0.49664460351E+01 -0.21679047988E+02 -0.15538552017E+02  0.27131039543E+02  0.00000000000E+00 0.  1.
         11    1    1    2    0    0 -0.31284377281E+02  0.87643686980E+02 -0.14746652546E+03  0.17437460899E+03  0.00000000000E+00 0. -1.
</event>
<event>
 7    1  0.5109948E-006  0.1821542E+03  0.7561462E-02  0.1165734E+00
          2   -1    0    0  501    0  0.00000000000E+00  0.00000000000E+00  0.54568069289E+03  0.54568069289E+03  0.00000000000E+00 0.  1.
         -2   -1    0    0    0  501 -0.00000000000E+00 -0.00000000000E+00 -0.84878371653E+02  0.84878371653E+02  0.00000000000E+00 0. -1.
         23    2    1    2    0    0 -0.13798616537E+03  0.66448763051E+02  0.86212617404E+02  0.21572239202E+03  0.12509162672E+03 0.  0.
          5    1    3    3  502    0 -0.18954323695E+02  0.64861403080E+02  0.66660785340E+02  0.95012634415E+02  0.41800000000E+01 0.  1.
         -5    1    3    3    0  502 -0.11903184167E+03  0.15873599711E+01  0.19551832063E+02  0.12070975760E+03  0.41800000000E+01 0.  1.
        -11    1    1    2    0    0  0.32580837485E+02  0.22478104376E+02  0.10035509202E+03  0.10787919466E+03  0.00000000000E+00 0.  1.
         11    1    1    2    0    0  0.10540532788E+03 -0.88926867428E+02  0.27423461181E+03  0.30695747786E+03  0.00000000000E+00 0. -1.
</event>
<event>
 7    1  0.5109948E-006  0.7990336E+02  0.7561462E-02  0.1329326E+00
         -3   -1    0    0    0  501 -0.00000000000E+00  0.00000000000E+00  0.10548657553E+04  0.10548657553E+04  0.00000000000E+00 0.  1.
          3   -1    0    0  501    0  0.00000000000E+00 -0.00000000000E+00 -0.31353883141E+02  0.31353883141E+02  0.00000000000E+00 0. -1.
         23    2    1    2    0    0  0.23908540017E+02  0.45681710845E+02  0.93918563798E+03  0.94888117949E+03  0.12508954074E+03 0.  0.
          5    1    3    3  502    0  0.50207404311E+02  0.35062596985E+02  0.20156862833E+03  0.21070726965E+03  0.41800000000E+01 0.  1.
         -5    1    3    3    0  502 -0.26298864294E+02  0.10619113860E+02  0.73761700965E+03  0.73817390984E+03  0.41800000000E+01 0.  1.
        -11    1    1    2    0    0 -0.15037147295E+02  0.68199630281E+01  0.82420857354E+02  0.84058464306E+02  0.00000000000E+00 0.  1.
         11    1    1    2    0    0 -0.88713927221E+01 -0.52501673873E+02  0.19053768175E+01  0.53279994643E+02  0.00000000000E+00 0. -1.
</event>
<event>
 7    1  0.5109948E-006  0.1495192E+03  0.7561462E-02  0.1201065E+00
         -2   -1    0    0    0  501 -0.00000000000E+00  0.00000000000E+00  0.36263861813E+02  0.36263861813E+02  0.00000000000E+00 0.  1.
          2   -1    0    0  501    0  0.00000000000E+00 -0.00000000000E+00 -0.82604932523E+03  0.82604932523E+03  0.00000000000E+00 0. -1.
         23    2    1    2    0    0  0.72021321660E+02 -0.11108676038E+03 -0.36200570376E+03  0.40524419390E+03  0.12508952005E+03 0.  0.
          5    1    3    3  502    0  0.15137476370E+02 -0.60463223049E+02 -0.39649765644E+02  0.73990005054E+02  0.41800000000E+01 0.  1.
         -5    1    3    3    0  502  0.56883845290E+02 -0.50623537334E+02 -0.32235593811E+03  0.33125418884E+03  0.41800000000E+01 0.  1.
        -11    1    1    2    0    0 -0.88179757217E+01  0.94570648365E+02 -0.23250609695E+03  0.25115821577E+03  0.00000000000E+00 0. -1.
         11    1    1    2    0    0 -0.63203345939E+02  0.16516112018E+02 -0.19527366271E+03  0.20591077739E+03  0.00000000000E+00 0.  1.
</event>
<event>
 7    1  0.5109948E-006  0.9585759E+02  0.7561462E-02  0.1289256E+00
          2   -1    0    0  501    0  0.00000000000E+00  0.00000000000E+00  0.26441276026E+02  0.26441276026E+02  0.00000000000E+00 0. -1.
         -2   -1    0    0    0  501 -0.00000000000E+00 -0.00000000000E+00 -0.53303233603E+03  0.53303233603E+03  0.00000000000E+00 0.  1.
         23    2    1    2    0    0  0.19728626622E+02 -0.16865532601E+02 -0.32456193846E+03  0.34880053443E+03  0.12509075116E+03 0.  0.
          5    1    3    3  502    0  0.53032670883E+02 -0.50345614713E+02 -0.24943156086E+03  0.25996292247E+03  0.41800000000E+01 0. -1.
         -5    1    3    3    0  502 -0.33304044261E+02  0.33480082113E+02 -0.75130377594E+02  0.88837611966E+02  0.41800000000E+01 0. -1.
        -11    1    1    2    0    0  0.18366458379E+02 -0.13129572120E+02 -0.29152175146E+00  0.22578694435E+02  0.00000000000E+00 0. -1.
         11    1    1    2    0    0 -0.38095085001E+02  0.29995104721E+02 -0.18173759979E+03  0.18809438319E+03  0.00000000000E+00 0.  1.
</event>
<event>
 6    1  0.5109948E-006  0.1216952E+03  0.7561462E-02  0.1240326E+00
          2   -1    0    0  501    0  0.00000000000E+00  0.00000000000E+00  0.27039455427E+03  0.27039455427E+03  0.00000000000E+00 0. -1.
         -2   -1    0    0    0  501 -0.00000000000E+00 -0.00000000000E+00 -0.60062043062E+02  0.60062043062E+02  0.00000000000E+00 0.  1.
          5    1    1    2  502    0 -0.55730987953E+02  0.48404932185E+02  0.30235689632E+02  0.79878969733E+02  0.41800000000E+01 0. -1.
         -5    1    1    2    0  502 -0.19096025370E+01 -0.68423343768E+02  0.57718029691E+02  0.89633943937E+02  0.41800000000E+01 0.  1.
        -11    1    1    2    0    0 -0.19909534893E+02 -0.26429411605E+01  0.97294860393E+01  0.22316756400E+02  0.00000000000E+00 0.  1.
         11    1    1    2    0    0  0.77550125382E+02  0.22661352743E+02  0.11264930585E+03  0.13862692726E+03  0.00000000000E+00 0. -1.
</event>
<event>
 7    1  0.5109948E-006  0.8425041E+02  0.7561462E-02  0.1317405E+00
          2   -1    0    0  501    0  0.00000000000E+00  0.00000000000E+00  0.17084943033E+03  0.17084943033E+03  0.00000000000E+00 0. -1.
         -2   -1    0    0    0  501 -0.00000000000E+00 -0.00000000000E+00 -0.95254358935E+02  0.95254358935E+02  0.00000000000E+00 0.  1.
         23    2    1    2    0    0  0.13514397755E+02  0.40309926567E+02 -0.21256375830E+01  0.13213668537E+03  0.12509219064E+03 0.  0.
          5    1    3    3  502    0 -0.27910305379E+02 -0.67461550821E+00  0.47650360064E+02  0.55384740377E+02  0.41800000000E+01 0. -1.
         -5    1    3    3    0  502  0.41424703134E+02  0.40984542076E+02 -0.49775997647E+02  0.76751944996E+02  0.41800000000E+01 0. -1.
        -11    1    1    2    0    0  0.17483704677E+01  0.19776624467E+02  0.68464655225E+02  0.71285206667E+02  0.00000000000E+00 0. -1.
         11    1    1    2    0    0 -0.15262768222E+02 -0.60086551034E+02  0.92560537571E+01  0.62681897228E+02  0.00000000000E+00 0.  1.
</event>
<event>
 7    1  0.5109948E-006  0.1321298E+03  0.7561462E-02  0.1224329E+00
         -2   -1    0    0    0  501 -0.00000000000E+00  0.00000000000E+00  0.34458136299E+02  0.34458136299E+02  0.00000000000E+00 0.  1.
          2   -1    0    0  501    0  0.00000000000E+00 -0.00000000000E+00 -0.93948489534E+03  0.93948489534E+03  0.00000000000E+00 0. -1.
         23    2    1    2    0    0  0.16453713772E+02 -0.12561291137E+03 -0.29778882553E+03  0.34694315503E+03  0.12506814148E+03 0.  0.
          5    1    3    3  502    0  0.94889502837E+01 -0.10053128788E+03 -0.30357116622E+03  0.31995234861E+03  0.41800000000E+01 0.  1.
         -5    1    3    3    0  502  0.69647634881E+01 -0.25081623483E+02  0.57823406968E+01  0.26990806415E+02  0.41800000000E+01 0.  1.
        -11    1    1    2    0    0  0.10013270572E+02  0.98261428287E+02 -0.54626752858E+03  0.55512501894E+03  0.00000000000E+00 0. -1.
         11    1    1    2    0    0 -0.26466984344E+02  0.27351483079E+02 -0.60970404939E+02  0.71874857671E+02  0.00000000000E+00 0.  1.
</event>
<event>
 7    1  0.5109948E-006  0.6081269E+02  0.7561462E-02  0.1394453E+00
          2   -1    0    0  501    0  0.00000000000E+00  0.00000000000E+00  0.75544269255E+03  0.75544269255E+03  0.00000000000E+00 0. -1.
         -2   -1    0    0    0  501 -0.00000000000E+00 -0.00000000000E+00 -0.10341906091E+02  0.10341906091E+02  0.00000000000E+00 0.  1.
         23    2    1    2    0    0  0.39214741559E+02  0.32355335820E+01  0.56038406042E+03  0.57552245357E+03  0.12509010656E+03 0.  0.
          5    1    3    3  502    0  0.18370401022E+02 -0.30710001282E+02  0.40936454770E+02  0.54532939968E+02  0.41800000000E+01 0. -1.
         -5    1    3    3    0  502  0.20844340537E+02  0.33945534864E+02  0.51944760565E+03  0.52098951360E+03  0.41800000000E+01 0. -1.
        -11    1    1    2    0    0 -0.24159621149E+02 -0.13160444585E+02  0.10688819825E+03  0.11037196891E+03  0.00000000000E+00 0.  1.
         11    1    1    2    0    0 -0.15055120410E+02  0.99249110035E+01  0.77828527797E+02  0.79890176167E+02  0.00000000000E+00 0. -1.
</event>
<event>
 7    1  0.5109948E-006  0.9220662E+02  0.7561462E-02  0.1297594E+00
          1   -1    0    0  501    0  0.00000000000E+00  0.00000000000E+00  0.80502445202E+03  0.80502445202E+03  0.00000000000E+00 0. -1.
         -1   -1    0    0    0  501 -0.00000000000E+00 -0.00000000000E+00 -0.19117734697E+02  0.19117734697E+02  0.00000000000E+00 0.  1.
         23    2    1    2    0    0  0.47152083539E+02  0.15988578187E+02  0.32855095275E+03  0.35506602464E+03  0.12508876723E+03 0.  0.
          5    1    3    3  502    0  0.61918531235E+02  0.53831350608E+01  0.62086394953E+02  0.87949277949E+02  0.41800000000E+01 0. -1.
         -5    1    3    3    0  502 -0.14766447696E+02  0.10605443126E+02  0.26646455780E+03  0.26711674669E+03  0.41800000000E+01 0. -1.
        -11    1    1    2    0    0  0.23853056106E+02  0.12534850767E+02  0.96172478259E+02  0.99876104970E+02  0.00000000000E+00 0.  1.
         11    1    1    2    0    0 -0.71005139645E+02 -0.28523428954E+02  0.36118328632E+03  0.36920005711E+03  0.00000000000E+00 0. -1.
</event>
<event>
 7    1  0.5109948E-006  0.9208053E+02  0.7561462E-02  0.1297890E+00
          2   -1    0    0  501    0  0.00000000000E+00  0.00000000000E+00  0.41563936717E+02  0.41563936717E+02  0.00000000000E+00 0. -1.
         -2   -1    0    0    0  501 -0.00000000000E+00 -0.00000000000E+00 -0.28170614763E+03  0.28170614763E+03  0.00000000000E+00 0.  1.
         23    2    1    2    0    0  0.23225377747E+00 -0.30925653469E+00 -0.16382406330E+03  0.20612622744E+03  0.12509815483E+03 0.  0.
          5    1    3    3  502    0  0.40295913493E+02  0.25303767101E+02 -0.15355619265E+02  0.50172788609E+02  0.41800000000E+01 0. -1.
         -5    1    3    3    0  502 -0.40063659716E+02 -0.25613023636E+02 -0.14846844403E+03  0.15595343883E+03  0.41800000000E+01 0. -1.
        -11    1    1    2    0    0  0.34258521942E+02  0.28146574864E+02 -0.42196738304E+02  0.61208175317E+02  0.00000000000E+00 0.  1.
         11    1    1    2    0    0 -0.34490775719E+02 -0.27837318329E+02 -0.34121409311E+02  0.55935681589E+02  0.00000000000E+00 0. -1.
</event>
<event>
 7    1  0.5109948E-006  0.6638006E+02  0.7561462E-02  0.1372854E+00
          1   -1    0    0  501    0  0.00000000000E+00  0.00000000000E+00  0.35423804392E+03  0.35423804392E+03  0.00000000000E+00 0. -1.
         -1   -1    0    0    0  501 -0.00000000000E+00 -0.00000000000E+00 -0.39747605726E+02  0.39747605726E+02  0.00000000000E+00 0.  1.
         23    2    1    2    0    0 -0.27824357787E+02  0.24026513432E+02  0.12546208149E+03  0.18094703884E+03  0.12509847616E+03 0.  0.
          5    1    3    3  502    0 -0.26887324231E+02  0.31326763278E+02  0.14966297819E+03  0.15530864027E+03  0.41800000000E+01 0. -1.
         -5    1    3    3    0  502 -0.93703355621E+00 -0.73002498455E+01 -0.24200896702E+02  0.25638398563E+02  0.41800000000E+01 0. -1.
        -11    1    1    2    0    0  0.20878981637E+02 -0.50915496969E+02  0.61520520955E+02  0.82541469604E+02  0.00000000000E+00 0.  1.
         11    1    1    2    0    0  0.69453761503E+01  0.26888983537E+02  0.12750783575E+03  0.13049714120E+03  0.00000000000E+00 0. -1.
</event>
<event>
 7    1  0.5109948E-006  0.1885312E+03  0.7561462E-02  0.1159793E+00
         -2   -1    0    0    0  501 -0.00000000000E+00  0.00000000000E+00  0.16446465734E+03  0.16446465734E+03  0.00000000000E+00 0.  1.
          2   -1    0    0  501    0  0.00000000000E+00 -0.00000000000E+00 -0.28507748108E+03  0.28507748108E+03  0.00000000000E+00 0. -1.
         23    2    1    2    0    0  0.17393004512E+03  0.70461479289E+02 -0.36851875476E+02  0.22852030618E+03  0.12508792489E+03 0.  0.
          5    1    3    3  502    0  0.15279133204E+03  0.54505661510E+02 -0.77494422003E+02  0.17983024252E+03  0.41800000000E+01 0. -1.
         -5    1    3    3    0  502  0.21138713081E+02  0.15955817779E+02  0.40642546527E+02  0.48690063667E+02  0.41800000000E+01 0. -1.
        -11    1    1    2    0    0 -0.36654013808E+02 -0.19706027127E+02  0.15246775713E+02  0.44320518984E+02  0.00000000000E+00 0.  1.
         11    1    1    2    0    0 -0.13727603131E+03 -0.50755452162E+02 -0.99007723975E+02  0.17670131325E+03  0.00000000000E+00 0. -1.
</event>
<event>
 7    1  0.5109948E-006  0.1392519E+03  0.7561462E-02  0.1214339E+00
         -2   -1    0    0    0  501 -0.00000000000E+00  0.00000000000E+00  0.88516845810E+03  0.88516845810E+03  0.00000000000E+00 0.  1.
          2   -1    0    0  501    0  0.00000000000E+00 -0.00000000000E+00 -0.29184560970E+02  0.29184560970E+02  0.00000000000E+00 0. -1.
         23    2    1    2    0    0  0.22421284595E+02 -0.10679334492E+03  0.58563173846E+03  0.60870330733E+03  0.12509057014E+03 0.  0.
          5    1    3    3  502    0  0.72924010308E+02 -0.79848859992E+02  0.40200188472E+03  0.41631327080E+03  0.41800000000E+01 0.  1.
         -5    1    3    3    0  502 -0.50502725713E+02 -0.26944484926E+02  0.18362985374E+03  0.19239003653E+03  0.41800000000E+01 0.  1.
        -11    1    1    2    0    0 -0.84657131611E+01  0.92603195972E+02  0.27019244311E+03  0.28574634996E+03  0.00000000000E+00 0.  1.
         11    1    1    2    0    0 -0.13955571434E+02  0.14190148945E+02  0.15971556280E+00  0.19903361781E+02  0.00000000000E+00 0. -1.
</event>
<event>
 7    1  0.5109948E-006  0.8436422E+02  0.7561462E-02  0.1317104E+00
         -1   -1    0    0    0  501 -0.00000000000E+00  0.00000000000E+00  0.30869699517E+02  0.30869699517E+02  0.00000000000E+00 0.  1.
          1   -1    0    0  501    0  0.00000000000E+00 -0.00000000000E+00 -0.46738116803E+03  0.46738116803E+03  0.00000000000E+00 0. -1.
         23    2    1    2    0    0  0.31143674708E+02  0.15120264934E+02 -0.16505400101E+03  0.20997414667E+03  0.12509103939E+03 0.  0.
          5    1    3    3  502    0  0.23758819518E+02  0.43782252562E+02 -0.17214226177E+03  0.17925344580E+03  0.41800000000E+01 0. -1.
         -5    1    3    3    0  502  0.73848551901E+01 -0.28661987628E+02  0.70882607649E+01  0.30720700865E+02  0.41800000000E+01 0. -1.
        -11    1    1    2    0    0  0.27232047386E+02 -0.13632184393E+02 -0.44468466003E+02  0.53896802547E+02  0.00000000000E+00 0.  1.
         11    1    1    2    0    0 -0.58375722094E+02 -0.14880805404E+01 -0.22698900150E+03  0.23437991833E+03  0.00000000000E+00 0. -1.
</event>
<event>
 7    1  0.5109948E-006  0.9542227E+02  0.7561462E-02  0.1290228E+00
          2   -1    0    0  501    0  0.00000000000E+00  0.00000000000E+00  0.54249999699E+02  0.54249999699E+02  0.00000000000E+00 0. -1.
         -2   -1    0    0    0  501 -0.00000000000E+00 -0.00000000000E+00 -0.33095057976E+03  0.33095057976E+03  0.00000000000E+00 0.  1.
         23    2    1    2    0    0 -0.70299745054E+02  0.58324932835E+01 -0.20020244355E+03  0.24638306478E+03  0.12509006384E+03 0.  0.
          5    1    3    3  502    0 -0.33467254867E+02  0.30755569277E+02 -0.19630860281E+03  0.20154528555E+03  0.41800000000E+01 0.  1.
         -5    1    3    3    0  502 -0.36832490187E+02 -0.24923075994E+02 -0.38938407446E+01  0.44837779228E+02  0.41800000000E+01 0.  1.
        -11    1    1    2    0    0  0.58007359195E+02  0.28089813855E+02 -0.12946920723E+02  0.65738224188E+02  0.00000000000E+00 0. -1.
         11    1    1    2    0    0  0.12292385859E+02 -0.33922307139E+02 -0.63551215790E+02  0.73079290501E+02  0.00000000000E+00 0.  1.
</event>
<event>
 7    1  0.5109948E-006  0.1476292E+03  0.7561462E-02  0.1203417E+00
          2   -1    0    0  501    0  0.00000000000E+00  0.00000000000E+00  0.61429312031E+03  0.61429312031E+03  0.00000000000E+00 0. -1.
         -2   -1    0    0    0  501 -0.00000000000E+00 -0.00000000000E+00 -0.38572041160E+02  0.38572041160E+02  0.00000000000E+00 0.  1.
         23    2    1    2    0    0  0.51178323279E+02 -0.10016911289E+03  0.28553889936E+03  0.33141208756E+03  0.12509371199E+03 0.  0.
          5    1    3    3  502    0 -0.29123571636E+02 -0.64696554278E+02  0.18326327869E+03  0.19656227582E+03  0.41800000000E+01 0. -1.
         -5    1    3    3    0  502  0.80301894915E+02 -0.35472558613E+02  0.10227562068E+03  0.13484981174E+03  0.41800000000E+01 0. -1.
        -11    1    1    2    0    0 -0.49415265733E+02  0.15754944492E+02  0.84952478067E+02  0.99533965525E+02  0.00000000000E+00 0.  1.
         11    1    1    2    0    0 -0.17630575463E+01  0.84414168399E+02  0.20522970172E+03  0.22191910839E+03  0.00000000000E+00 0. -1.
</event>
<event>
 7    1  0.5109948E-006  0.1363961E+03  0.7561462E-02  0.1218262E+00
          2   -1    0    0  501    0  0.00000000000E+00  0.00000000000E+00  0.48029426183E+03  0.48029426183E+03  0.00000000000E+00 0. -1.
         -2   -1    0    0    0  501 -0.00000000000E+00 -0.00000000000E+00 -0.56754590960E+02  0.56754590960E+02  0.00000000000E+00 0.  1.
         23    2    1    2    0    0 -0.12276596759E+03 -0.33513204955E+01  0.19170651981E+03  0.25977139206E+03  0.12508825782E+03 0.  0.
          5    1    3    3  502    0 -0.58610868670E+02 -0.14547887332E+02  0.35710363770E+01  0.60639093437E+02  0.41800000000E+01 0. -1.
         -5    1    3    3    0  502 -0.64155098923E+02  0.11196566836E+02  0.18813548344E+03  0.19913229862E+03  0.41800000000E+01 0. -1.
        -11    1    1    2    0    0  0.40311164730E+01 -0.24674693329E+02  0.17040885320E+02  0.30256935790E+02  0.00000000000E+00 0.  1.
         11    1    1    2    0    0  0.11873485112E+03  0.28026013824E+02  0.21479226573E+03  0.24702052494E+03  0.00000000000E+00 0. -1.
</event>
<event>
 7    1  0.5109948E-006  0.6651135E+02  0.7561462E-02  0.1372375E+00
         -2   -1    0    0    0  501 -0.00000000000E+00  0.00000000000E+00  0.13612846659E+03  0.13612846659E+03  0.00000000000E+00 0.  1.
          2   -1    0    0  501    0  0.00000000000E+00 -0.00000000000E+00 -0.94858457641E+02  0.94858457641E+02  0.00000000000E+00 0. -1.
         23    2    1    2    0    0 -0.17154842030E+02 -0.21393304401E+02  0.34106354467E+02  0.13252056736E+03  0.12508595157E+03 0.  0.
          5    1    3    3  502    0 -0.44559551586E+02  0.17786650093E+02  0.60830205270E+02  0.77586756810E+02  0.41800000000E+01 0. -1.
         -5    1    3    3    0  502  0.27404709556E+02 -0.39179954494E+02 -0.26723850803E+02  0.54933810551E+02  0.41800000000E+01 0. -1.
        -11    1    1    2    0    0  0.18001666674E+02  0.27568468000E+01  0.49207500851E+02  0.52469403916E+02  0.00000000000E+00 0.  1.
         11    1    1    2    0    0 -0.84682464357E+00  0.18636457601E+02 -0.42043846367E+02  0.45996952956E+02  0.00000000000E+00 0. -1.
</event>
<event>
 7    1  0.5109948E-006  0.1368896E+03  0.7561462E-02  0.1217577E+00
          2   -1    0    0  501    0  0.00000000000E+00  0.00000000000E+00  0.62095923701E+02  0.62095923701E+02  0.00000000000E+00 0. -1.
         -2   -1    0    0    0  501 -0.00000000000E+00 -0.00000000000E+00 -0.39278855294E+03  0.39278855294E+03  0.00000000000E+00 0.  1.
         23    2    1    2    0    0 -0.64195998856E+02  0.65472212119E+02 -0.26594427510E+03  0.30887698455E+03  0.12755742745E+03 0.  0.
          5    1    3    3  502    0 -0.63814673930E+02 -0.12738055324E+02 -0.18538695884E+03  0.19652065431E+03  0.41800000000E+01 0. -1.
         -5    1    3    3    0  502 -0.38132492546E+00  0.78210267443E+02 -0.80557316253E+02  0.11235633024E+03  0.41800000000E+01 0.  1.
        -11    1    1    2    0    0  0.85031839172E+02 -0.32065652244E+02 -0.38546020118E+02  0.98713805487E+02  0.00000000000E+00 0.  1.
         11    1    1    2    0    0 -0.20835840316E+02 -0.33406559875E+02 -0.26202334022E+02  0.47293686603E+02  0.00000000000E+00 0. -1.
</event>
<event>
 7    1  0.5109948E-006  0.1098765E+03  0.7561462E-02  0.1260799E+00
          4   -1    0    0  501    0  0.00000000000E+00  0.00000000000E+00  0.38782758418E+03  0.38782758418E+03  0.00000000000E+00 0. -1.
         -4   -1    0    0    0  501 -0.00000000000E+00 -0.00000000000E+00 -0.34957398656E+02  0.34957398656E+02  0.00000000000E+00 0.  1.
         23    2    1    2    0    0 -0.17486134649E+02 -0.59261305719E+02  0.19520279111E+03  0.23993369313E+03  0.12508549150E+03 0.  0.
          5    1    3    3  502    0 -0.48844201436E+02 -0.84327765455E+02  0.15371488178E+03  0.18205127113E+03  0.41800000000E+01 0. -1.
         -5    1    3    3    0  502  0.31358066787E+02  0.25066459737E+02  0.41487909326E+02  0.57882422000E+02  0.41800000000E+01 0. -1.
        -11    1    1    2    0    0  0.35752852773E+02  0.27103703040E+02  0.12737455336E+03  0.13504500747E+03  0.00000000000E+00 0. -1.
         11    1    1    2    0    0 -0.18266718124E+02  0.32157602679E+02  0.30292841057E+02  0.47806282227E+02  0.00000000000E+00 0.  1.
</event>
<event>
 7    1  0.5109948E-006  0.1005361E+03  0.7561462E-02  0.1279173E+00
          2   -1    0    0  501    0  0.00000000000E+00  0.00000000000E+00  0.11719526722E+03  0.11719526722E+03  0.00000000000E+00 0. -1.
         -2   -1    0    0    0  501 -0.00000000000E+00 -0.00000000000E+00 -0.14834267712E+03  0.14834267712E+03  0.00000000000E+00 0.  1.
         23    2    1    2    0    0  0.65600133954E+02 -0.36216862953E+02 -0.18286033148E+02  0.14695645910E+03  0.12508710215E+03 0.  0.
          5    1    3    3  502    0  0.53369874612E+02  0.27631177140E+02  0.28607006200E+02  0.66690769001E+02  0.41800000000E+01 0.  1.
         -5    1    3    3    0  502  0.12230259342E+02 -0.63848040093E+02 -0.46893039349E+02  0.80265690096E+02  0.41800000000E+01 0.  1.
        -11    1    1    2    0    0 -0.52648207553E+02  0.33645342133E+02 -0.49450942677E+02  0.79682109268E+02  0.00000000000E+00 0.  1.
         11    1    1    2    0    0 -0.12951926401E+02  0.25715208199E+01  0.36589565923E+02  0.38899375975E+02  0.00000000000E+00 0. -1.
</event>
<event>
 7    1  0.5109948E-006  0.1177800E+03  0.7561462E-02  0.1246805E+00
         -2   -1    0    0    0  501 -0.00000000000E+00  0.00000000000E+00  0.27967853818E+02  0.27967853818E+02  0.00000000000E+00 0.  1.
          2   -1    0    0  501    0  0.00000000000E+00 -0.00000000000E+00 -0.49988611434E+03  0.49988611434E+03  0.00000000000E+00 0. -1.
         23    2    1    2    0    0  0.26708850406E+02  0.38291576354E+02 -0.25225108188E+03  0.28540615205E+03  0.12508579378E+03 0.  0.
          5    1    3    3  502    0 -0.49888444361E+02  0.23521233553E+02 -0.10947671677E+03  0.12265695750E+03  0.41800000000E+01 0. -1.
         -5    1    3    3    0  502  0.76597294767E+02  0.14770342800E+02 -0.14277436511E+03  0.16274919454E+03  0.41800000000E+01 0. -1.
        -11    1    1    2    0    0 -0.57488467704E+02 -0.41897663909E+02 -0.16334634341E+03  0.17816387419E+03  0.00000000000E+00 0.  1.
         11    1    1    2    0    0  0.30779617297E+02  0.36060875553E+01 -0.56320835233E+02  0.64283941928E+02  0.00000000000E+00 0. -1.
</event>
<event>
 7    1  0.5109948E-006  0.1133486E+03  0.7561462E-02  0.1254492E+00
         -2   -1    0    0    0  501 -0.00000000000E+00  0.00000000000E+00  0.20055134982E+03  0.20055134982E+03  0.00000000000E+00 0. -1.
          2   -1    0    0  501    0  0.00000000000E+00 -0.00000000000E+00 -0.11211218221E+03  0.11211218221E+03  0.00000000000E+00 0.  1.
         23    2    1    2    0    0 -0.98756957900E+02  0.25225430110E+02  0.59030018350E+02  0.17181932111E+03  0.12509227387E+03 0.  0.
          5    1    3    3  502    0 -0.55028000575E+02  0.34639926811E+02  0.94356790348E+02  0.11466770104E+03  0.41800000000E+01 0.  1.
         -5    1    3    3    0  502 -0.43728957325E+02 -0.94144967011E+01 -0.35326771999E+02  0.57151620071E+02  0.41800000000E+01 0.  1.
        -11    1    1    2    0    0  0.11150295328E+02 -0.26764072049E+02 -0.24507692756E+02  0.37964083590E+02  0.00000000000E+00 0.  1.
         11    1    1    2    0    0  0.87606662572E+02  0.15386419390E+01  0.53916842023E+02  0.10288012733E+03  0.00000000000E+00 0. -1.
</event>
<event>
 7    1  0.5109948E-006  0.1151237E+03  0.7561462E-02  0.1251365E+00
          1   -1    0    0  501    0  0.00000000000E+00  0.00000000000E+00  0.19516665760E+03  0.19516665760E+03  0.00000000000E+00 0. -1.
         -1   -1    0    0    0  501 -0.00000000000E+00 -0.00000000000E+00 -0.76153653085E+02  0.76153653085E+02  0.00000000000E+00 0.  1.
         23    2    1    2    0    0 -0.36392320980E+02  0.27496706878E+02  0.27531738088E+02  0.13596250546E+03  0.12508931359E+03 0.  0.
          5    1    3    3  502    0  0.43061608337E+02 -0.10567147213E+02  0.14300771178E+02  0.46775540286E+02  0.41800000000E+01 0.  1.
         -5    1    3    3    0  502 -0.79453929317E+02  0.38063854091E+02  0.13230966911E+02  0.89186965177E+02  0.41800000000E+01 0.  1.
        -11    1    1    2    0    0  0.64320549080E+02 -0.11543907070E+02  0.47125190148E+02  0.80567849487E+02  0.00000000000E+00 0. -1.
         11    1    1    2    0    0 -0.27928228101E+02 -0.15952799808E+02  0.44356076275E+02  0.54789955732E+02  0.00000000000E+00 0.  1.
</event>
<event>
 7    1  0.5109948E-006  0.1787656E+03  0.7561462E-02  0.1169003E+00
          1   -1    0    0  501    0  0.00000000000E+00  0.00000000000E+00  0.23473129123E+03  0.23473129123E+03  0.00000000000E+00 0. -1.
         -1   -1    0    0    0  501 -0.00000000000E+00 -0.00000000000E+00 -0.14565324773E+03  0.14565324773E+03  0.00000000000E+00 0.  1.
         23    2    1    2    0    0  0.14551331729E+03  0.21756453132E+02  0.24615971586E+02  0.19468144881E+03  0.12508977452E+03 0.  0.
          5    1    3    3  502    0  0.10443967281E+03 -0.40739789309E+02 -0.90801386961E+01  0.11254908711E+03  0.41800000000E+01 0. -1.
         -5    1    3    3    0  502  0.41073644484E+02  0.62496242440E+02  0.33696110282E+02  0.82132361700E+02  0.41800000000E+01 0. -1.
        -11    1    1    2    0    0 -0.77250368451E+02  0.31942806116E+02  0.12583670736E+02  0.84535856638E+02  0.00000000000E+00 0.  1.
         11    1    1    2    0    0 -0.68262948843E+02 -0.53699259248E+02  0.51878401176E+02  0.10116723352E+03  0.00000000000E+00 0. -1.
</event>
<event>
 6    1  0.5109948E-006  0.1117701E+03  0.7561462E-02  0.1257327E+00
         -4   -1    0    0    0  501 -0.00000000000E+00  0.00000000000E+00  0.80382834304E+02  0.80382834304E+02  0.00000000000E+00 0.  1.
          4   -1    0    0  501    0  0.00000000000E+00 -0.00000000000E+00 -0.17944665989E+03  0.17944665989E+03  0.00000000000E+00 0. -1.
          5    1    1    2  502    0  0.59190459380E+02  0.12165539275E+02 -0.42772030446E+02  0.74151397936E+02  0.41800000000E+01 0. -1.
         -5    1    1    2    0  502 -0.41177326992E+02 -0.47432330003E+02  0.12585672490E+02  0.64197116289E+02  0.41800000000E+01 0.  1.
        -11    1    1    2    0    0 -0.61928596220E+01  0.66413924795E+02 -0.47750446033E+02  0.82032103553E+02  0.00000000000E+00 0.  1.
         11    1    1    2    0    0 -0.11820272766E+02 -0.31147134067E+02 -0.21127021596E+02  0.39448876414E+02  0.00000000000E+00 0. -1.
</event>
<event>
 7    1  0.5109948E-006  0.1302189E+03  0.7561462E-02  0.1227131E+00
         -2   -1    0    0    0  501 -0.00000000000E+00  0.00000000000E+00  0.33800774572E+03  0.33800774572E+03  0.00000000000E+00 0.  1.
          2   -1    0    0  501    0  0.00000000000E+00 -0.00000000000E+00 -0.73565114769E+02  0.73565114769E+02  0.00000000000E+00 0. -1.
         23    2    1    2    0    0  0.93473831595E+01 -0.81885822544E+02  0.24872814610E+03  0.29035463866E+03  0.12508982382E+03 0.  0.
          5    1    3    3  502    0 -0.43798793864E+02 -0.83028657764E+02  0.13205827147E+03  0.16207699349E+03  0.41800000000E+01 0.  1.
         -5    1    3    3    0  502  0.53146177024E+02  0.11428352207E+01  0.11666987463E+03  0.12827764517E+03  0.41800000000E+01 0.  1.
        -11    1    1    2    0    0  0.61090400653E+01 -0.14394042631E+02  0.17787688092E+02  0.23683552974E+02  0.00000000000E+00 0.  1.
         11    1    1    2    0    0 -0.15456423225E+02  0.96279865175E+02 -0.20732032439E+01  0.97534668855E+02  0.00000000000E+00 0. -1.
</event>
<event>
 7    1  0.5109948E-006  0.1174378E+03  0.7561462E-02  0.1247385E+00
          1   -1    0    0  501    0  0.00000000000E+00  0.00000000000E+00  0.77070321000E+03  0.77070321000E+03  0.00000000000E+00 0. -1.
         -1   -1    0    0    0  501 -0.00000000000E+00 -0.00000000000E+00 -0.26475631637E+02  0.26475631637E+02  0.00000000000E+00 0.  1.
         23    2    1    2    0    0  0.85336275378E+02  0.14976913119E+02  0.28915679600E+03  0.32675115535E+03  0.12509227405E+03 0.  0.
          5    1    3    3  502    0  0.66424218499E+02 -0.31854647088E+02  0.25543460422E+03  0.26587817657E+03  0.41800000000E+01 0. -1.
         -5    1    3    3    0  502  0.18912056879E+02  0.46831560206E+02  0.33722191783E+02  0.60872978779E+02  0.41800000000E+01 0. -1.
        -11    1    1    2    0    0 -0.43221144798E+02 -0.42084867376E+02  0.33403159502E+03  0.33943528086E+03  0.00000000000E+00 0. -1.
         11    1    1    2    0    0 -0.42115130580E+02  0.27107954258E+02  0.12103918734E+03  0.13099240543E+03  0.00000000000E+00 0.  1.
</event>
<event>
 7    1  0.5109948E-006  0.1866520E+03  0.7561462E-02  0.1161516E+00
          2   -1    0    0  501    0  0.00000000000E+00  0.00000000000E+00  0.15093461693E+03  0.15093461693E+03  0.00000000000E+00 0. -1.
         -2   -1    0    0    0  501 -0.00000000000E+00 -0.00000000000E+00 -0.25550405517E+03  0.25550405517E+03  0.00000000000E+00 0.  1.
         23    2    1    2    0    0  0.25018151767E+01 -0.16316400676E+03 -0.44229059338E+02  0.21032195686E+03  0.12510141353E+03 0.  0.
          5    1    3    3  502    0  0.49976860011E+02 -0.14219854239E+03 -0.17499605587E+02  0.15179532467E+03  0.41800000000E+01 0.  1.
         -5    1    3    3    0  502 -0.47475044834E+02 -0.20965464362E+02 -0.26729453751E+02  0.58526632192E+02  0.41800000000E+01 0.  1.
        -11    1    1    2    0    0  0.19195871088E+02  0.12572763410E+03 -0.78204214795E+02  0.14930444955E+03  0.00000000000E+00 0.  1.
         11    1    1    2    0    0 -0.21697686265E+02  0.37436372656E+02  0.17863835886E+02  0.46812265694E+02  0.00000000000E+00 0. -1.
</event>
<event>
 7    1  0.5109948E-006  0.1286685E+03  0.7561462E-02  0.1229445E+00
         -1   -1    0    0    0  501 -0.00000000000E+00  0.00000000000E+00  0.77013433216E+03  0.77013433216E+03  0.00000000000E+00 0.  1.
          1   -1    0    0  501    0  0.00000000000E+00 -0.00000000000E+00 -0.30406454633E+02  0.30406454633E+02  0.00000000000E+00 0. -1.
         23    2    1    2    0    0  0.64407665415E+02 -0.79645784183E+02  0.49129614752E+03  0.51721515859E+03  0.12509123633E+03 0.  0.
          5    1    3    3  502    0  0.76438026476E+02 -0.90020644481E+02  0.48568899923E+03  0.49985774446E+03  0.41800000000E+01 0. -1.
         -5    1    3    3    0  502 -0.12030361060E+02  0.10374860298E+02  0.56071482945E+01  0.17357414135E+02  0.41800000000E+01 0. -1.
        -11    1    1    2    0    0 -0.29395065781E+02  0.82531178537E+02  0.22402983648E+03  0.24055110258E+03  0.00000000000E+00 0.  1.
         11    1    1    2    0    0 -0.35012599634E+02 -0.28853943537E+01  0.24401893524E+02  0.42774525611E+02  0.00000000000E+00 0. -1.
</event>
<event>
 7    1  0.5109948E-006  0.1314665E+03  0.7561462E-02  0.1225296E+00
         -2   -1    0    0    0  501 -0.00000000000E+00  0.00000000000E+00  0.11877476004E+03  0.11877476004E+03  0.00000000000E+00 0.  1.
          2   -1    0    0  501    0  0.00000000000E+00 -0.00000000000E+00 -0.25382335161E+03  0.25382335161E+03  0.00000000000E+00 0. -1.
         23    2    1    2    0    0 -0.64187450278E+02 -0.71524288382E+02  0.31170908351E+02  0.15979957649E+03  0.12380842669E+03 0.  0.
          5    1    3    3  502    0 -0.88424762466E+02 -0.21838987715E+02 -0.85818763597E+01  0.91580571103E+02  0.41800000000E+01 0.  1.
         -5    1    3    3    0  502  0.24237312188E+02 -0.49685300667E+02  0.39752784710E+02  0.68219005392E+02  0.41800000000E+01 0.  1.
        -11    1    1    2    0    0  0.25753490222E+02  0.73449459375E+02 -0.15378079367E+03  0.17235602062E+03  0.00000000000E+00 0. -1.
         11    1    1    2    0    0  0.38433960056E+02 -0.19251709928E+01 -0.12438706251E+02  0.40442514538E+02  0.00000000000E+00 0.  1.
</event>
<event>
 7    1  0.5109948E-006  0.1793685E+03  0.7561462E-02  0.1168416E+00
          1   -1    0    0  501    0  0.00000000000E+00  0.00000000000E+00  0.43311094603E+03  0.43311094603E+03  0.00000000000E+00 0. -1.
         -1   -1    0    0    0  501 -0.00000000000E+00 -0.00000000000E+00 -0.91513389122E+02  0.91513389122E+02  0.00000000000E+00 0.  1.
         23    2    1    2    0    0 -0.15523702526E+03 -0.31574488286E+02  0.11842257885E+03  0.23402347760E+03  0.12509036160E+03 0.  0.
          5    1    3    3  502    0 -0.33520370985E+02 -0.52656734685E+02 -0.41426759222E+00  0.62561897320E+02  0.41800000000E+01 0. -1.
         -5    1    3    3    0  502 -0.12171665428E+03  0.21082246399E+02  0.11883684644E+03  0.17146158028E+03  0.41800000000E+01 0. -1.
        -11    1    1    2    0    0  0.64961702881E+02  0.48062003474E+02  0.51171303337E+02  0.95647693669E+02  0.00000000000E+00 0.  1.
         11    1    1    2    0    0  0.90275322380E+02 -0.16487515188E+02  0.17200367472E+03  0.19495316388E+03  0.00000000000E+00 0. -1.
</event>
<event>
 7    1  0.5109948E-006  0.8771519E+02  0.7561462E-02  0.1308481E+00
         -2   -1    0    0    0  501 -0.00000000000E+00  0.00000000000E+00  0.62115197394E+02  0.62115197394E+02  0.00000000000E+00 0.  1.
          2   -1    0    0  501    0  0.00000000000E+00 -0.00000000000E+00 -0.16407867821E+03  0.16407867821E+03  0.00000000000E+00 0. -1.
         23    2    1    2    0    0  0.21070942149E+01 -0.40907503738E+02 -0.20023966731E+02  0.13257406866E+03  0.12448719102E+03 0.  0.
          5    1    3    3  502    0 -0.19631827914E+02  0.41263603602E+02 -0.50120609659E+01  0.46159363130E+02  0.41800000000E+01 0. -1.
         -5    1    3    3    0  502  0.21738922129E+02 -0.82171107340E+02 -0.15011905765E+02  0.86414705528E+02  0.41800000000E+01 0.  1.
        -11    1    1    2    0    0  0.73064347604E+01  0.12081634409E+02 -0.18199406720E+02  0.23034067896E+02  0.00000000000E+00 0. -1.
         11    1    1    2    0    0 -0.94135289752E+01  0.28825869329E+02 -0.63740107369E+02  0.70585739053E+02  0.00000000000E+00 0.  1.
</event>
<event>
 7    1  0.5109948E-006  0.1352214E+03  0.7561462E-02  0.1219908E+00
         -3   -1    0    0    0  501 -0.00000000000E+00  0.00000000000E+00  0.10375564141E+03  0.10375564141E+03  0.00000000000E+00 0.  1.
          3   -1    0    0  501    0  0.00000000000E+00 -0.00000000000E+00 -0.23279268051E+03  0.23279268051E+03  0.00000000000E+00 0. -1.
         23    2    1    2    0    0 -0.26843796735E+00 -0.10743658307E+03 -0.41277120079E+02  0.16998395150E+03  0.12509217276E+03 0.  0.
          5    1    3    3  502    0 -0.40505114635E+02 -0.10136311331E+03 -0.60405842343E+02  0.12482581160E+03  0.41800000000E+01 0.  1.
         -5    1    3    3    0  502  0.40236676668E+02 -0.60734697528E+01  0.19128722264E+02  0.45158139904E+02  0.41800000000E+01 0.  1.
        -11    1    1    2    0    0  0.24718722743E+02  0.28819217729E+02  0.94976025220E+01  0.39137795265E+02  0.00000000000E+00 0.  1.
         11    1    1    2    0    0 -0.24450284775E+02  0.78617365339E+02 -0.97257521538E+02  0.12742657515E+03  0.00000000000E+00 0. -1.
</event>
<event>
 7    1  0.5109948E-006  0.1537870E+03  0.7561462E-02  0.1195895E+00
          2   -1    0    0  501    0  0.00000000000E+00  0.00000000000E+00  0.73337682744E+02  0.73337682744E+02  0.00000000000E+00 0. -1.
         -2   -1    0    0    0  501 -0.00000000000E+00 -0.00000000000E+00 -0.33943476390E+03  0.33943476390E+03  0.00000000000E+00 0.  1.
         23    2    1    2    0    0 -0.20921342864E+02 -0.10892594137E+03 -0.17996836663E+03  0.24564162818E+03  0.12509449715E+03 0.  0.
          5    1    3    3  502    0 -0.89110640390E+01 -0.13505447267E+03 -0.12928967626E+03  0.18722288972E+03  0.41800000000E+01 0.  1.
         -5    1    3    3    0  502 -0.12010278825E+02  0.26128531293E+02 -0.50678690375E+02  0.58418738459E+02  0.41800000000E+01 0.  1.
        -11    1    1    2    0    0  0.54696346090E+02  0.45104769467E+02 -0.39158557145E+02  0.80990882832E+02  0.00000000000E+00 0.  1.
         11    1    1    2    0    0 -0.33775003226E+02  0.63821171908E+02 -0.46970157382E+02  0.86139935634E+02  0.00000000000E+00 0. -1.
</event>
<event>
 7    1  0.5109948E-006  0.1008501E+03  0.7561462E-02  0.1278518E+00
          2   -1    0    0  501    0  0.00000000000E+00  0.00000000000E+00  0.12283654046E+03  0.12283654046E+03  0.00000000000E+00 0. -1.
         -2   -1    0    0    0  501 -0.00000000000E+00 -0.00000000000E+00 -0.11516592703E+03  0.11516592703E+03  0.00000000000E+00 0.  1.
         23    2    1    2    0    0  0.42069697769E+02 -0.29282898461E+02  0.29657964223E+01  0.13520917852E+03  0.12508148701E+03 0.  0.
          5    1    3    3  502    0 -0.35031190177E+02 -0.38471112084E+02  0.19481961805E+02  0.55715617075E+02  0.41800000000E+01 0. -1.
         -5    1    3    3    0  502  0.77100887946E+02  0.91882136227E+01 -0.16516165383E+02  0.79493561441E+02  0.41800000000E+01 0. -1.
        -11    1    1    2    0    0  0.72187069717E+01  0.20427305327E+02  0.37233658322E+02  0.43078182939E+02  0.00000000000E+00 0. -1.
         11    1    1    2    0    0 -0.49288404740E+02  0.88555931341E+01 -0.32528841315E+02  0.59715106036E+02  0.00000000000E+00 0.  1.
</event>
<event>
 7    1  0.5109948E-006  0.1501514E+03  0.7561462E-02  0.1200287E+00
         -1   -1    0    0    0  501 -0.00000000000E+00  0.00000000000E+00  0.39697304782E+02  0.39697304782E+02  0.00000000000E+00 0.  1.
          1   -1    0    0  501    0  0.00000000000E+00 -0.00000000000E+00 -0.67273998156E+03  0.67273998156E+03  0.00000000000E+00 0. -1.
         23    2    1    2    0    0  0.36667439264E+01 -0.11955986620E+03 -0.29266988542E+03  0.34001484410E+03  0.12508567366E+03 0.  0.
          5    1    3    3  502    0 -0.80920794140E+01  0.22637392192E+02 -0.81893985525E+02  0.85451919462E+02  0.41800000000E+01 0.  1.
         -5    1    3    3    0  502  0.11758823340E+02 -0.14219725840E+03 -0.21077589990E+03  0.25456292463E+03  0.41800000000E+01 0.  1.
        -11    1    1    2    0    0  0.21221794437E+02  0.97870759218E+02 -0.15784624704E+03  0.18693444780E+03  0.00000000000E+00 0.  1.
         11    1    1    2    0    0 -0.24888538364E+02  0.21689106986E+02 -0.18252654431E+03  0.18548799444E+03  0.00000000000E+00 0. -1.
</event>
<event>
 7    1  0.1161095E-005  0.1361777E+03  0.7561462E-02  0.1218567E+00
          4   -1    0    0  501    0  0.00000000000E+00  0.00000000000E+00  0.93044295141E+03  0.93044295141E+03  0.00000000000E+00 0. -1.
         -4   -1    0    0    0  501 -0.00000000000E+00 -0.00000000000E+00 -0.22874576799E+02  0.22874576799E+02  0.00000000000E+00 0.  1.
         23    2    1    2    0    0 -0.76747119340E+02  0.57848831472E+02  0.45763617429E+03  0.48406083862E+03  0.12508964719E+03 0.  0.
          5    1    3    3  502    0 -0.20360717075E+02 -0.30866779077E+02  0.45860914925E+02  0.59059400337E+02  0.41800000000E+01 0. -1.
         -5    1    3    3    0  502 -0.56386402265E+02  0.88715610550E+02  0.41177525937E+03  0.42500143828E+03  0.41800000000E+01 0. -1.
        -11    1    1    2    0    0  0.34412374215E+02 -0.76344909676E+02  0.33680775841E+03  0.34706227519E+03  0.00000000000E+00 0.  1.
         11    1    1    2    0    0  0.42334745126E+02  0.18496078204E+02  0.11312444190E+03  0.12219441440E+03  0.00000000000E+00 0. -1.
</event>
<event>
 7    1  0.5109948E-006  0.1145182E+03  0.7561462E-02  0.1252425E+00
          1   -1    0    0  501    0  0.00000000000E+00  0.00000000000E+00  0.29311288205E+03  0.29311288205E+03  0.00000000000E+00 0. -1.
         -1   -1    0    0    0  501 -0.00000000000E+00 -0.00000000000E+00 -0.78101146348E+02  0.78101146348E+02  0.00000000000E+00 0.  1.
         23    2    1    2    0    0  0.28401304766E+02  0.68706072114E+02  0.24889483814E+02  0.14763120945E+03  0.12509328176E+03 0.  0.
          5    1    3    3  502    0 -0.19880103918E+01 -0.34608067840E+02 -0.62048101115E+01  0.35463257232E+02  0.41800000000E+01 0.  1.
         -5    1    3    3    0  502  0.30389315158E+02  0.10331413995E+03  0.31094293926E+02  0.11216795222E+03  0.41800000000E+01 0.  1.
        -11    1    1    2    0    0 -0.25091883832E+02 -0.91621192902E+01  0.26377793370E+01  0.26842223156E+02  0.00000000000E+00 0.  1.
         11    1    1    2    0    0 -0.33094209341E+01 -0.59543952824E+02  0.18748447255E+03  0.19674059579E+03  0.00000000000E+00 0. -1.
</event>
<event>
 6    1  0.5109948E-006  0.2444792E+03  0.7561462E-02  0.1116844E+00
          2   -1    0    0  501    0  0.00000000000E+00  0.00000000000E+00  0.25799360870E+04  0.25799360870E+04  0.00000000000E+00 0. -1.
         -2   -1    0    0    0  501 -0.00000000000E+00 -0.00000000000E+00 -0.23857340577E+02  0.23857340577E+02  0.00000000000E+00 0.  1.
          5    1    1    2  502    0 -0.19032789024E+03 -0.57349542549E+02  0.12080628403E+04  0.12243149000E+04  0.41800000000E+01 0. -1.
         -5    1    1    2    0  502  0.17271027980E+03 -0.15031422868E+02  0.86772519421E+03  0.88488376044E+03  0.41800000000E+01 0.  1.
        -11    1    1    2    0    0 -0.72811405593E+00  0.90753719702E+02  0.40175717199E+03  0.41188055676E+03  0.00000000000E+00 0.  1.
         11    1    1    2    0    0  0.18345724497E+02 -0.18372754285E+02  0.78533539964E+02  0.82714210428E+02  0.00000000000E+00 0. -1.
</event>
<event>
 7    1  0.5109948E-006  0.8956893E+02  0.7561462E-02  0.1303899E+00
         -1   -1    0    0    0  501 -0.00000000000E+00  0.00000000000E+00  0.14568149471E+03  0.14568149471E+03  0.00000000000E+00 0.  1.
          1   -1    0    0  501    0  0.00000000000E+00 -0.00000000000E+00 -0.11225214667E+03  0.11225214667E+03  0.00000000000E+00 0. -1.
         23    2    1    2    0    0  0.58423643963E+01 -0.74712543814E+01  0.85879976417E+02  0.15202719283E+03  0.12508774579E+03 0.  0.
          5    1    3    3  502    0 -0.51389305819E+02 -0.18729049396E+02  0.74394650142E+02  0.92431998862E+02  0.41800000000E+01 0. -1.
         -5    1    3    3    0  502  0.57231670215E+02  0.11257795014E+02  0.11485326274E+02  0.59595193966E+02  0.41800000000E+01 0. -1.
        -11    1    1    2    0    0  0.18796246064E+01 -0.28728694156E+02  0.12312175034E+02  0.31312306057E+02  0.00000000000E+00 0.  1.
         11    1    1    2    0    0 -0.77219890027E+01  0.36199948537E+02 -0.64762803416E+02  0.74594142495E+02  0.00000000000E+00 0. -1.
</event>
<event>
 7    1  0.5109948E-006  0.1080807E+03  0.7561462E-02  0.1264166E+00
          2   -1    0    0  501    0  0.00000000000E+00  0.00000000000E+00  0.65653090063E+02  0.65653090063E+02  0.00000000000E+00 0. -1.
         -2   -1    0    0    0  501 -0.00000000000E+00 -0.00000000000E+00 -0.31158547607E+03  0.31158547607E+03  0.00000000000E+00 0.  1.
         23    2    1    2    0    0  0.54772285869E+02  0.21247054393E+02 -0.22471601123E+03  0.26380963049E+03  0.12508714887E+03 0.  0.
          5    1    3    3  502    0 -0.24750487218E+02 -0.22238706256E+02 -0.18006493626E+02  0.38063800206E+02  0.41800000000E+01 0. -1.
         -5    1    3    3    0  502  0.79522773087E+02  0.43485760649E+02 -0.20670951761E+03  0.22574583028E+03  0.41800000000E+01 0. -1.
        -11    1    1    2    0    0  0.12749762622E+01  0.21417502289E+02 -0.35572982542E+02  0.41542412733E+02  0.00000000000E+00 0.  1.
         11    1    1    2    0    0 -0.56047262131E+02 -0.42664556682E+02  0.14356607773E+02  0.71886522910E+02  0.00000000000E+00 0. -1.
</event>
<event>
 7    1  0.5109948E-006  0.1342790E+03  0.7561462E-02  0.1221241E+00
          1   -1    0    0  501    0  0.00000000000E+00  0.00000000000E+00  0.15340048028E+03  0.15340048028E+03  0.00000000000E+00 0. -1.
         -1   -1    0    0    0  501 -0.00000000000E+00 -0.00000000000E+00 -0.15972444520E+03  0.15972444520E+03  0.00000000000E+00 0.  1.
         23    2    1    2    0    0 -0.31721999315E+02 -0.10643454565E+03 -0.33776208509E+02  0.16676326946E+03  0.11972701463E+03 0.  0.
          5    1    3    3  502    0  0.32601069688E+02 -0.47482892882E+02 -0.51794417090E+02  0.77573119719E+02  0.41800000000E+01 0. -1.
         -5    1    3    3    0  502 -0.64323069003E+02 -0.58951652768E+02  0.18018208582E+02  0.89190149739E+02  0.41800000000E+01 0.  1.
        -11    1    1    2    0    0  0.31478897069E+02  0.20593776226E+02  0.45096663153E+02  0.58725919383E+02  0.00000000000E+00 0. -1.
         11    1    1    2    0    0  0.24310224572E+00  0.85840769424E+02 -0.17644419560E+02  0.87635736635E+02  0.00000000000E+00 0.  1.
</event>
<event>
 7    1  0.5109948E-006  0.1529993E+03  0.7561462E-02  0.1196835E+00
          1   -1    0    0  501    0  0.00000000000E+00  0.00000000000E+00  0.77573172298E+03  0.77573172298E+03  0.00000000000E+00 0.  1.
         -1   -1    0    0    0  501 -0.00000000000E+00 -0.00000000000E+00 -0.59836823190E+02  0.59836823190E+02  0.00000000000E+00 0. -1.
         23    2    1    2    0    0  0.13177256513E+02  0.13211600633E+03  0.12207309305E+03  0.21949018550E+03  0.12508326134E+03 0.  0.
          5    1    3    3  502    0 -0.45454084677E+02  0.60300305712E+02  0.97676595678E+02  0.12353295279E+03  0.41800000000E+01 0.  1.
         -5    1    3    3    0  502  0.58631341191E+02  0.71815700616E+02  0.24396497371E+02  0.95957232707E+02  0.41800000000E+01 0.  1.
        -11    1    1    2    0    0 -0.25502713507E+02 -0.98953629190E+02  0.55163675579E+03  0.56102167469E+03  0.00000000000E+00 0.  1.
         11    1    1    2    0    0  0.12325456994E+02 -0.33162377139E+02  0.42185050942E+02  0.55056685976E+02  0.00000000000E+00 0. -1.
</event>
<event>
 7    1  0.5109948E-006  0.6184626E+02  0.7561462E-02  0.1390243E+00
         -3   -1    0    0    0  501 -0.00000000000E+00  0.00000000000E+00  0.43277796529E+03  0.43277796529E+03  0.00000000000E+00 0.  1.
          3   -1    0    0  501    0  0.00000000000E+00 -0.00000000000E+00 -0.41100421662E+02  0.41100421662E+02  0.00000000000E+00 0. -1.
         23    2    1    2    0    0 -0.12508532170E+02 -0.43601955587E+02  0.32358869685E+03  0.34987888218E+03  0.12509194044E+03 0.  0.
          5    1    3    3  502    0 -0.81277489868E+01 -0.14650800333E+02 -0.65125889306E+01  0.18455147481E+02  0.41800000000E+01 0.  1.
         -5    1    3    3    0  502 -0.43807831832E+01 -0.28951155255E+02  0.33010128578E+03  0.33142373470E+03  0.41800000000E+01 0.  1.
        -11    1    1    2    0    0 -0.25066814301E+02  0.22868967758E+02  0.73295941938E+02  0.80768991390E+02  0.00000000000E+00 0.  1.
         11    1    1    2    0    0  0.37575346471E+02  0.20732987830E+02 -0.52070951595E+01  0.43230513376E+02  0.00000000000E+00 0. -1.
</event>
<event>
 7    1  0.5109948E-006  0.1328706E+03  0.7561462E-02  0.1223257E+00
         -1   -1    0    0    0  501 -0.00000000000E+00  0.00000000000E+00  0.98256626730E+03  0.98256626730E+03  0.00000000000E+00 0.  1.
          1   -1    0    0  501    0  0.00000000000E+00 -0.00000000000E+00 -0.19467577270E+02  0.19467577270E+02  0.00000000000E+00 0. -1.
         23    2    1    2    0    0  0.48455091010E+02 -0.67854082675E+02  0.48327684649E+03  0.50611833958E+03  0.12508873220E+03 0.  0.
          5    1    3    3  502    0 -0.36335267734E+02 -0.33101117739E+02  0.93750500148E+02  0.10593660536E+03  0.41800000000E+01 0.  1.
         -5    1    3    3    0  502  0.84790358744E+02 -0.34752964935E+02  0.38952634635E+03  0.40018173422E+03  0.41800000000E+01 0.  1.
        -11    1    1    2    0    0 -0.69602363049E+02  0.75035841213E+02  0.37318131803E+03  0.38696144838E+03  0.00000000000E+00 0. -1.
         11    1    1    2    0    0  0.21147272039E+02 -0.71817585388E+01  0.10664052551E+03  0.10895405661E+03  0.00000000000E+00 0.  1.
</event>
<event>
 7    1  0.5109948E-006  0.9534917E+02  0.7561462E-02  0.1290392E+00
          1   -1    0    0  501    0  0.00000000000E+00  0.00000000000E+00  0.44973172388E+03  0.44973172388E+03  0.00000000000E+00 0. -1.
         -1   -1    0    0    0  501 -0.00000000000E+00 -0.00000000000E+00 -0.27431188601E+02  0.27431188601E+02  0.00000000000E+00 0.  1.
         23    2    1    2    0    0 -0.66198848087E+01  0.14033491491E+02  0.27412766757E+03  0.30171910557E+03  0.12509068222E+03 0.  0.
          5    1    3    3  502    0  0.56829541960E+02 -0.43027625549E-01  0.91140955091E+02  0.10748834721E+03  0.41800000000E+01 0. -1.
         -5    1    3    3    0  502 -0.63449426768E+02  0.14076519116E+02  0.18298671248E+03  0.19423075836E+03  0.41800000000E+01 0. -1.
        -11    1    1    2    0    0  0.24702577644E+01 -0.41116062494E+02  0.22733871372E+02  0.47047440695E+02  0.00000000000E+00 0.  1.
         11    1    1    2    0    0  0.41496270443E+01  0.27082571003E+02  0.12543899634E+03  0.12839636622E+03  0.00000000000E+00 0. -1.
</event>
<event>
 7    1  0.5109948E-006  0.9654325E+02  0.7561462E-02  0.1287738E+00
         -2   -1    0    0    0  501 -0.00000000000E+00  0.00000000000E+00  0.45746182454E+03  0.45746182454E+03  0.00000000000E+00 0.  1.
          2   -1    0    0  501    0  0.00000000000E+00 -0.00000000000E+00 -0.44561846899E+02  0.44561846899E+02  0.00000000000E+00 0. -1.
         23    2    1    2    0    0 -0.62183973739E+02 -0.39980302107E+02  0.32430989000E+03  0.35537637313E+03  0.12510072216E+03 0.  0.
          5    1    3    3  502    0 -0.16499765745E+02  0.64545512488E+01 -0.56199553146E+01  0.19051503857E+02  0.41800000000E+01 0.  1.
         -5    1    3    3    0  502 -0.45684207994E+02 -0.46434853356E+02  0.32992984531E+03  0.33632486928E+03  0.41800000000E+01 0.  1.
        -11    1    1    2    0    0  0.81641697366E+02  0.37994891789E+02  0.49068835047E+02  0.10255110494E+03  0.00000000000E+00 0. -1.
         11    1    1    2    0    0 -0.19457723627E+02  0.19854103183E+01  0.39521252597E+02  0.44096193370E+02  0.00000000000E+00 0.  1.
</event>
<event>
 6    1  0.5109948E-006  0.1095546E+03  0.7561462E-02  0.1261397E+00
         -2   -1    0    0    0  501 -0.00000000000E+00  0.00000000000E+00  0.65024204278E+02  0.65024204278E+02  0.00000000000E+00 0.  1.
          2   -1    0    0  501    0  0.00000000000E+00 -0.00000000000E+00 -0.37660531557E+03  0.37660531557E+03  0.00000000000E+00 0. -1.
          5    1    1    2  502    0 -0.41820686084E+02  0.66896147950E+02 -0.10494450119E+03  0.13135785140E+03  0.41800000000E+01 0. -1.
         -5    1    1    2    0  502 -0.11869068122E+02 -0.28150946103E+02  0.33387712402E+02  0.45448457443E+02  0.41800000000E+01 0.  1.
        -11    1    1    2    0    0  0.11756602305E+02  0.28044029363E+02 -0.43578868186E+02  0.53139467753E+02  0.00000000000E+00 0. -1.
         11    1    1    2    0    0  0.41933151900E+02 -0.66789231211E+02 -0.19644545432E+03  0.21168374325E+03  0.00000000000E+00 0.  1.
</event>
<event>
 7    1  0.5109948E-006  0.9355438E+02  0.7561462E-02  0.1294466E+00
          2   -1    0    0  501    0  0.00000000000E+00  0.00000000000E+00  0.24128152909E+02  0.24128152909E+02  0.00000000000E+00 0. -1.
         -2   -1    0    0    0  501 -0.00000000000E+00 -0.00000000000E+00 -0.53725819500E+03  0.53725819500E+03  0.00000000000E+00 0.  1.
         23    2    1    2    0    0 -0.18515440813E+02 -0.18382813656E+02 -0.35246945471E+03  0.37491588772E+03  0.12508579847E+03 0.  0.
          5    1    3    3  502    0 -0.57538966181E+02  0.14378323895E+02 -0.27991218852E+03  0.28615690540E+03  0.41800000000E+01 0.  1.
         -5    1    3    3    0  502  0.39023525368E+02 -0.32761137551E+02 -0.72557266187E+02  0.88758982319E+02  0.41800000000E+01 0.  1.
        -11    1    1    2    0    0 -0.27248111667E+02  0.13783415334E+02 -0.15594264177E+02  0.34287362146E+02  0.00000000000E+00 0. -1.
         11    1    1    2    0    0  0.45763552480E+02  0.45993983223E+01 -0.14506632321E+03  0.15218309804E+03  0.00000000000E+00 0.  1.
</event>
<event>
 7    1  0.5109948E-006  0.1754593E+03  0.7561462E-02  0.1172271E+00
          2   -1    0    0  501    0  0.00000000000E+00  0.00000000000E+00  0.12436177689E+04  0.12436177689E+04  0.00000000000E+00 0. -1.
         -2   -1    0    0    0  501 -0.00000000000E+00 -0.00000000000E+00 -0.29115820798E+02  0.29115820798E+02  0.00000000000E+00 0.  1.
         23    2    1    2    0    0 -0.61468080314E+02 -0.14315099853E+03  0.68499597217E+03  0.71353796372E+03  0.12508561270E+03 0.  0.
          5    1    3    3  502    0 -0.81748949895E+02 -0.12884608110E+03  0.66224815691E+03  0.67961334386E+03  0.41800000000E+01 0.  1.
         -5    1    3    3    0  502  0.20280869581E+02 -0.14304917430E+02  0.22747815263E+02  0.33924619864E+02  0.41800000000E+01 0.  1.
        -11    1    1    2    0    0  0.70479415139E+02  0.69780174927E+02  0.37534754121E+03  0.38822982558E+03  0.00000000000E+00 0. -1.
         11    1    1    2    0    0 -0.90113348249E+01  0.73370823602E+02  0.15415843469E+03  0.17096580037E+03  0.00000000000E+00 0.  1.
</event>
<event>
 7    1  0.5109948E-006  0.1461559E+03  0.7561462E-02  0.1205278E+00
         -1   -1    0    0    0  501 -0.00000000000E+00  0.00000000000E+00  0.55668543482E+02  0.55668543482E+02  0.00000000000E+00 0.  1.
          1   -1    0    0  501    0  0.00000000000E+00 -0.00000000000E+00 -0.43133710675E+03  0.43133710675E+03  0.00000000000E+00 0. -1.
         23    2    1    2    0    0 -0.54540772851E+02 -0.94566878997E+02 -0.22701444809E+03  0.28124797944E+03  0.12508907143E+03 0.  0.
          5    1    3    3  502    0 -0.59971272501E+02 -0.11440763593E+03 -0.22586320918E+03  0.26022552208E+03  0.41800000000E+01 0. -1.
         -5    1    3    3    0  502  0.54304996505E+01  0.19840756932E+02 -0.11512389083E+01  0.21022457352E+02  0.41800000000E+01 0. -1.
        -11    1    1    2    0    0  0.75043799456E+02  0.42777319530E+02 -0.95398116708E+02  0.12869448929E+03  0.00000000000E+00 0.  1.
         11    1    1    2    0    0 -0.20503026605E+02  0.51789559467E+02 -0.53255998472E+02  0.77063181500E+02  0.00000000000E+00 0. -1.
</event>
<event>
 7    1  0.5109948E-006  0.9305655E+02  0.7561462E-02  0.1295614E+00
          2   -1    0    0  501    0  0.00000000000E+00  0.00000000000E+00  0.90479642870E+02  0.90479642870E+02  0.00000000000E+00 0. -1.
         -2   -1    0    0    0  501 -0.00000000000E+00 -0.00000000000E+00 -0.16838083201E+03  0.16838083201E+03  0.00000000000E+00 0.  1.
         23    2    1    2    0    0  0.35634682755E+02 -0.39950120109E+02 -0.68519314793E+02  0.15234105701E+03  0.12508820263E+03 0.  0.
          5    1    3    3  502    0  0.24506208156E+02  0.18966416257E+02 -0.84541011910E+02  0.90138417329E+02  0.41800000000E+01 0. -1.
         -5    1    3    3    0  502  0.11128474600E+02 -0.58916536366E+02  0.16021697117E+02  0.62202639677E+02  0.41800000000E+01 0. -1.
        -11    1    1    2    0    0  0.22350759914E+02 -0.30401898619E+01  0.18465082290E+02  0.29150617268E+02  0.00000000000E+00 0. -1.
         11    1    1    2    0    0 -0.57985442669E+02  0.42990309971E+02 -0.27846956633E+02  0.77368800603E+02  0.00000000000E+00 0.  1.
</event>
<event>
 7    1  0.5109948E-006  0.1141663E+03  0.7561462E-02  0.1253043E+00
          1   -1    0    0  501    0  0.00000000000E+00  0.00000000000E+00  0.54840929741E+02  0.54840929741E+02  0.00000000000E+00 0. -1.
         -1   -1    0    0    0  501 -0.00000000000E+00 -0.00000000000E+00 -0.32143422846E+03  0.32143422846E+03  0.00000000000E+00 0.  1.
         23    2    1    2    0    0  0.36784892530E+02 -0.65576853875E+02 -0.19411575736E+03  0.23897497988E+03  0.11736550462E+03 0.  0.
          5    1    3    3  502    0  0.72802663195E+02 -0.41298658249E+02 -0.76292391185E+02  0.11333052675E+03  0.41800000000E+01 0. -1.
         -5    1    3    3    0  502 -0.36017770665E+02 -0.24278195625E+02 -0.11782336617E+03  0.12564445313E+03  0.41800000000E+01 0.  1.
        -11    1    1    2    0    0 -0.39414624351E+02  0.44024463465E+01 -0.64269922502E+02  0.75521633225E+02  0.00000000000E+00 0. -1.
         11    1    1    2    0    0  0.26297318212E+01  0.61174407528E+02 -0.82076188556E+01  0.61778545088E+02  0.00000000000E+00 0.  1.
</event>
<event>
 7    1  0.5109948E-006  0.9018260E+02  0.7561462E-02  0.1302410E+00
         -1   -1    0    0    0  501 -0.00000000000E+00  0.00000000000E+00  0.72722011369E+02  0.72722011369E+02  0.00000000000E+00 0.  1.
          1   -1    0    0  501    0  0.00000000000E+00 -0.00000000000E+00 -0.24978909482E+03  0.24978909482E+03  0.00000000000E+00 0. -1.
         23    2    1    2    0    0  0.36048953546E+02  0.12070248227E+02 -0.12191285545E+02  0.13125784145E+03  0.12503909610E+03 0.  0.
          5    1    3    3  502    0 -0.43640445315E+01 -0.31322045781E+02  0.40685109352E+02  0.51699767501E+02  0.41800000000E+01 0.  1.
         -5    1    3    3    0  502  0.40412998077E+02  0.43392294009E+02 -0.52876394897E+02  0.79558073948E+02  0.41800000000E+01 0.  1.
        -11    1    1    2    0    0  0.25900190606E+02  0.38448904854E-01 -0.88274189818E+02  0.91995401732E+02  0.00000000000E+00 0. -1.
         11    1    1    2    0    0 -0.61949144152E+02 -0.12108697132E+02 -0.76601608085E+02  0.99257863007E+02  0.00000000000E+00 0.  1.
</event>
<event>
 7    1  0.5109948E-006  0.1021069E+03  0.7561462E-02  0.1275927E+00
         -2   -1    0    0    0  501 -0.00000000000E+00  0.00000000000E+00  0.33589383086E+02  0.33589383086E+02  0.00000000000E+00 0.  1.
          2   -1    0    0  501    0  0.00000000000E+00 -0.00000000000E+00 -0.52268666929E+03  0.52268666929E+03  0.00000000000E+00 0. -1.
         23    2    1    2    0    0  0.35694054622E+02  0.57095457099E+02 -0.19410569124E+03  0.24053768294E+03  0.12508957104E+03 0.  0.
          5    1    3    3  502    0  0.28388143177E+02  0.91955882894E+02 -0.95634622774E+02  0.13573954672E+03  0.41800000000E+01 0.  1.
         -5    1    3    3    0  502  0.73059114456E+01 -0.34860425794E+02 -0.98471068471E+02  0.10479813622E+03  0.41800000000E+01 0.  1.
        -11    1    1    2    0    0 -0.51164580865E+00 -0.23079266854E+02 -0.77399913422E+01  0.24347932273E+02  0.00000000000E+00 0.  1.
         11    1    1    2    0    0 -0.35182408814E+02 -0.34016190245E+02 -0.28725160362E+03  0.29139043716E+03  0.00000000000E+00 0. -1.
</event>
<event>
 7    1  0.5109948E-006  0.9681027E+02  0.7561462E-02  0.1287150E+00
         -3   -1    0    0    0  501 -0.00000000000E+00  0.00000000000E+00  0.11526261992E+03  0.11526261992E+03  0.00000000000E+00 0.  1.
          3   -1    0    0  501    0  0.00000000000E+00 -0.00000000000E+00 -0.16498885414E+03  0.16498885414E+03  0.00000000000E+00 0. -1.
         23    2    1    2    0    0  0.22204829200E+02 -0.66919872013E+02  0.23799755262E+02  0.14555360844E+03  0.12509236935E+03 0.  0.
          5    1    3    3  502    0 -0.25211815699E+02 -0.68401153332E+02 -0.25179079444E+02  0.77238668227E+02  0.41800000000E+01 0.  1.
         -5    1    3    3    0  502  0.47416644899E+02  0.14812813186E+01  0.48978834705E+02  0.68314940217E+02  0.41800000000E+01 0.  1.
        -11    1    1    2    0    0  0.27933899020E+01  0.16118972418E+02  0.19711591390E+02  0.25615837564E+02  0.00000000000E+00 0.  1.
         11    1    1    2    0    0 -0.24998219102E+02  0.50800899595E+02 -0.93237580869E+02  0.10908202805E+03  0.00000000000E+00 0. -1.
</event>
<event>
 7    1  0.5109948E-006  0.2295154E+03  0.7561462E-02  0.1126981E+00
         -1   -1    0    0    0  501 -0.00000000000E+00  0.00000000000E+00  0.77667761845E+03  0.77667761845E+03  0.00000000000E+00 0.  1.
          1   -1    0    0  501    0  0.00000000000E+00 -0.00000000000E+00 -0.96136243414E+02  0.96136243414E+02  0.00000000000E+00 0. -1.
         23    2    1    2    0    0 -0.19073515163E+03 -0.92853186828E+02  0.55827845920E+03  0.61018336556E+03  0.12508912514E+03 0.  0.
          5    1    3    3  502    0 -0.16998665719E+03 -0.11151787428E+03  0.39277220772E+03  0.44228857036E+03  0.41800000000E+01 0.  1.
         -5    1    3    3    0  502 -0.20748494444E+02  0.18664687455E+02  0.16550625147E+03  0.16789479520E+03  0.41800000000E+01 0.  1.
        -11    1    1    2    0    0  0.25700239447E+02  0.51150580522E+02  0.84490932599E+01  0.57864249518E+02  0.00000000000E+00 0.  1.
         11    1    1    2    0    0  0.16503491219E+03  0.41702606307E+02  0.11381382258E+03  0.20476624678E+03  0.00000000000E+00 0. -1.
</event>
<event>
 7    1  0.5109948E-006  0.1795549E+03  0.7561462E-02  0.1168234E+00
         -1   -1    0    0    0  501 -0.00000000000E+00  0.00000000000E+00  0.15185862424E+03  0.15185862424E+03  0.00000000000E+00 0.  1.
          1   -1    0    0  501    0  0.00000000000E+00 -0.00000000000E+00 -0.23384409086E+03  0.23384409086E+03  0.00000000000E+00 0. -1.
         23    2    1    2    0    0 -0.11393614220E+03  0.97828750490E+02 -0.97023836416E+01  0.19568550693E+03  0.12508705949E+03 0.  0.
          5    1    3    3  502    0 -0.13224559618E+03  0.68739085747E+02  0.19523289009E+02  0.15037483443E+03  0.41800000000E+01 0.  1.
         -5    1    3    3    0  502  0.18309453977E+02  0.29089664743E+02 -0.29225672651E+02  0.45310672492E+02  0.41800000000E+01 0.  1.
        -11    1    1    2    0    0  0.19869452211E+02  0.17554881382E+02 -0.67287159600E+01  0.27354060210E+02  0.00000000000E+00 0.  1.
         11    1    1    2    0    0  0.94066689989E+02 -0.11538363187E+03 -0.65554367014E+02  0.16266314796E+03  0.00000000000E+00 0. -1.
</event>
<event>
 7    1  0.5109948E-006  0.1230244E+03  0.7561462E-02  0.1238190E+00
          4   -1    0    0  501    0  0.00000000000E+00  0.00000000000E+00  0.98028756129E+02  0.98028756129E+02  0.00000000000E+00 0. -1.
         -4   -1    0    0    0  501 -0.00000000000E+00 -0.00000000000E+00 -0.16992549775E+03  0.16992549775E+03  0.00000000000E+00 0.  1.
         23    2    1    2    0    0  0.12122813974E+02 -0.68782156764E+02 -0.45408686640E+02  0.15029209297E+03  0.12509123342E+03 0.  0.
          5    1    3    3  502    0  0.29360618415E+02  0.23812865704E+02 -0.40979292196E+02  0.55909509707E+02  0.41800000000E+01 0.  1.
         -5    1    3    3    0  502 -0.17237804441E+02 -0.92595022468E+02 -0.44293944439E+01  0.94382583261E+02  0.41800000000E+01 0.  1.
        -11    1    1    2    0    0  0.36954831729E+02  0.47654224933E+02 -0.21398243830E+02  0.63988042485E+02  0.00000000000E+00 0.  1.
         11    1    1    2    0    0 -0.49077645703E+02  0.21127931831E+02 -0.50898111493E+01  0.53674118425E+02  0.00000000000E+00 0. -1.
</event>
<event>
 7    1  0.5109948E-006  0.9694385E+02  0.7561462E-02  0.1286857E+00
         -1   -1    0    0    0  501 -0.00000000000E+00  0.00000000000E+00  0.69374578486E+03  0.69374578486E+03  0.00000000000E+00 0.  1.
          1   -1    0    0  501    0  0.00000000000E+00 -0.00000000000E+00 -0.24938275575E+02  0.24938275575E+02  0.00000000000E+00 0. -1.
         23    2    1    2    0    0 -0.52132053786E+02 -0.30101484099E+02  0.46807627950E+03  0.48822725525E+03  0.12508636600E+03 0.  0.
          5    1    3    3  502    0 -0.58126703540E+02 -0.96493459455E+01  0.46188011485E+03  0.46564206902E+03  0.41800000000E+01 0.  1.
         -5    1    3    3    0  502  0.59946497535E+01 -0.20452138153E+02  0.61961646457E+01  0.22585186229E+02  0.41800000000E+01 0.  1.
        -11    1    1    2    0    0 -0.17385299010E+02  0.39301759650E+02  0.71287350118E+02  0.83239192813E+02  0.00000000000E+00 0.  1.
         11    1    1    2    0    0  0.69517352797E+02 -0.92002755515E+01  0.12944387967E+03  0.14721761238E+03  0.00000000000E+00 0. -1.
</event>
<event>
 7    1  0.5109948E-006  0.1117970E+03  0.7561462E-02  0.1257278E+00
          1   -1    0    0  501    0  0.00000000000E+00  0.00000000000E+00  0.10730377712E+03  0.10730377712E+03  0.00000000000E+00 0. -1.
         -1   -1    0    0    0  501 -0.00000000000E+00 -0.00000000000E+00 -0.14914512869E+03  0.14914512869E+03  0.00000000000E+00 0.  1.
         23    2    1    2    0    0  0.57029160290E+02 -0.29025840279E+02 -0.31142745919E+02  0.14391875271E+03  0.12509161534E+03 0.  0.
          5    1    3    3  502    0 -0.80475923674E+01  0.26472296306E+02 -0.49018153060E+02  0.56442873280E+02  0.41800000000E+01 0.  1.
         -5    1    3    3    0  502  0.65076752657E+02 -0.55498136585E+02  0.17875407141E+02  0.87475879426E+02  0.41800000000E+01 0.  1.
        -11    1    1    2    0    0 -0.76078292822E+02  0.42030634354E+02  0.43727810924E+00  0.86917616598E+02  0.00000000000E+00 0.  1.
         11    1    1    2    0    0  0.19049132532E+02 -0.13004794075E+02 -0.11135883761E+02  0.25612536506E+02  0.00000000000E+00 0. -1.
</event>
<event>
 7    1  0.5109948E-006  0.1729790E+03  0.7561462E-02  0.1174776E+00
          2   -1    0    0  501    0  0.00000000000E+00  0.00000000000E+00  0.37847577726E+03  0.37847577726E+03  0.00000000000E+00 0. -1.
         -2   -1    0    0    0  501 -0.00000000000E+00 -0.00000000000E+00 -0.88764794620E+02  0.88764794620E+02  0.00000000000E+00 0.  1.
         23    2    1    2    0    0  0.53337863224E+02  0.13482539940E+03  0.10927941072E+03  0.22047748179E+03  0.12508203067E+03 0.  0.
          5    1    3    3  502    0 -0.48777487831E+01  0.12187246554E+03  0.10420512283E+03  0.16047700867E+03  0.41800000000E+01 0.  1.
         -5    1    3    3    0  502  0.58215612007E+02  0.12952933862E+02  0.50742878869E+01  0.60000473120E+02  0.41800000000E+01 0.  1.
        -11    1    1    2    0    0 -0.17268514547E+02 -0.12575949734E+03  0.16029509912E+03  0.20447046625E+03  0.00000000000E+00 0.  1.
         11    1    1    2    0    0 -0.36069348677E+02 -0.90659020560E+01  0.20136472803E+02  0.42292623837E+02  0.00000000000E+00 0. -1.
</event>
<event>
 7    1  0.5109948E-006  0.9234546E+02  0.7561462E-02  0.1297269E+00
         -1   -1    0    0    0  501 -0.00000000000E+00  0.00000000000E+00  0.14088998206E+03  0.14088998206E+03  0.00000000000E+00 0.  1.
          1   -1    0    0  501    0  0.00000000000E+00 -0.00000000000E+00 -0.11380273908E+03  0.11380273908E+03  0.00000000000E+00 0. -1.
         23    2    1    2    0    0 -0.28752954984E+02 -0.13348195496E+02  0.73630991542E+02  0.14857377052E+03  0.12509090945E+03 0.  0.
          5    1    3    3  502    0 -0.57573427540E+02 -0.16509470937E+02  0.94953010174E+02  0.11234237282E+03  0.41800000000E+01 0.  1.
         -5    1    3    3    0  502  0.28820472556E+02  0.31612754411E+01 -0.21322018632E+02  0.36231397700E+02  0.41800000000E+01 0.  1.
        -11    1    1    2    0    0  0.36035617692E+02  0.47959612251E+02 -0.29977877492E+02  0.67062383559E+02  0.00000000000E+00 0.  1.
         11    1    1    2    0    0 -0.72826627083E+01 -0.34611416755E+02 -0.16565871074E+02  0.39056567058E+02  0.00000000000E+00 0. -1.
</event>
<event>
 6    1  0.5109948E-006  0.1040837E+03  0.7561462E-02  0.1271936E+00
          3   -1    0    0  501    0  0.00000000000E+00  0.00000000000E+00  0.82088434343E+03  0.82088434343E+03  0.00000000000E+00 0. -1.
         -3   -1    0    0    0  501 -0.00000000000E+00 -0.00000000000E+00 -0.17927514303E+02  0.17927514303E+02  0.00000000000E+00 0.  1.
          5    1    1    2  502    0 -0.11208024399E+02 -0.51322515437E+02  0.33021195192E+03  0.33439052917E+03  0.41800000000E+01 0. -1.
         -5    1    1    2    0  502  0.56999800796E+01  0.66433722796E+02  0.10964071717E+03  0.12839193338E+03  0.41800000000E+01 0.  1.
        -11    1    1    2    0    0  0.25528679705E+02 -0.45556865372E+02  0.28624973544E+03  0.29097431590E+03  0.00000000000E+00 0. -1.
         11    1    1    2    0    0 -0.20020635385E+02  0.30445658014E+02  0.76854424592E+02  0.85055079287E+02  0.00000000000E+00 0.  1.
</event>
<event>
 7    1  0.5109948E-006  0.1173473E+03  0.7561462E-02  0.1247538E+00
          1   -1    0    0  501    0  0.00000000000E+00  0.00000000000E+00  0.42606700881E+03  0.42606700881E+03  0.00000000000E+00 0. -1.
         -1   -1    0    0    0  501 -0.00000000000E+00 -0.00000000000E+00 -0.79998375696E+02  0.79998375696E+02  0.00000000000E+00 0.  1.
         23    2    1    2    0    0 -0.93062125075E+02 -0.93609299535E+01  0.23478134406E+02  0.15794641816E+03  0.12509061548E+03 0.  0.
          5    1    3    3  502    0 -0.10093725776E+03 -0.19449519177E+02  0.59947955112E+02  0.11907075007E+03  0.41800000000E+01 0. -1.
         -5    1    3    3    0  502  0.78751326840E+01  0.10088589224E+02 -0.36469820705E+02  0.38875668092E+02  0.41800000000E+01 0. -1.
        -11    1    1    2    0    0  0.13744633024E+02 -0.27609505669E+02  0.16503288983E+03  0.16789000704E+03  0.00000000000E+00 0. -1.
         11    1    1    2    0    0  0.79317492051E+02  0.36970435622E+02  0.15755760888E+03  0.18022895931E+03  0.00000000000E+00 0.  1.
</event>
<event>
 7    1  0.5165903E-006  0.1125659E+03  0.7561462E-02  0.1255891E+00
          3   -1    0    0  501    0  0.00000000000E+00  0.00000000000E+00  0.58328363744E+03  0.58328363744E+03  0.00000000000E+00 0. -1.
         -3   -1    0    0    0  501 -0.00000000000E+00 -0.00000000000E+00 -0.33361944031E+02  0.33361944031E+02  0.00000000000E+00 0.  1.
         23    2    1    2    0    0  0.84188149823E+02 -0.10191670541E+02  0.25575764987E+03  0.29707026943E+03  0.12508898751E+03 0.  0.
          5    1    3    3  502    0  0.34858014571E+02  0.21924645798E+02  0.77146511203E+01  0.42104150806E+02  0.41800000000E+01 0.  1.
         -5    1    3    3    0  502  0.49330135252E+02 -0.32116316340E+02  0.24804299875E+03  0.25496611863E+03  0.41800000000E+01 0.  1.
        -11    1    1    2    0    0 -0.56646689324E+02 -0.38706399820E+02  0.15385600646E+03  0.16845979794E+03  0.00000000000E+00 0.  1.
         11    1    1    2    0    0 -0.27541460499E+02  0.48898070362E+02  0.14030803707E+03  0.15111551409E+03  0.00000000000E+00 0. -1.
</event>
<event>
 7    1  0.5109948E-006  0.1046291E+03  0.7561462E-02  0.1270852E+00
          4   -1    0    0  501    0  0.00000000000E+00  0.00000000000E+00  0.49223676615E+03  0.49223676615E+03  0.00000000000E+00 0. -1.
         -4   -1    0    0    0  501 -0.00000000000E+00 -0.00000000000E+00 -0.38912636040E+02  0.38912636040E+02  0.00000000000E+00 0.  1.
         23    2    1    2    0    0 -0.76147609426E+02 -0.33289282920E+02  0.20270939088E+03  0.25228010627E+03  0.12509004793E+03 0.  0.
          5    1    3    3  502    0 -0.84968051660E+02 -0.34138149192E+02  0.21664830613E+03  0.23524230908E+03  0.41800000000E+01 0.  1.
         -5    1    3    3    0  502  0.88204422341E+01  0.84886627233E+00 -0.13938915242E+02  0.17037797196E+02  0.41800000000E+01 0.  1.
        -11    1    1    2    0    0 -0.50268673735E+00  0.31110377539E+02  0.14530960664E+03  0.14860346586E+03  0.00000000000E+00 0. -1.
         11    1    1    2    0    0  0.76650296163E+02  0.21789053813E+01  0.10530513259E+03  0.13026583005E+03  0.00000000000E+00 0.  1.
</event>
<event>
 7    1  0.5109948E-006  0.1077094E+03  0.7561462E-02  0.1264871E+00
         -1   -1    0    0    0  501 -0.00000000000E+00  0.00000000000E+00  0.87512543015E+01  0.87512543015E+01  0.00000000000E+00 0.  1.
          1   -1    0    0  501    0  0.00000000000E+00 -0.00000000000E+00 -0.13384384504E+04  0.13384384504E+04  0.00000000000E+00 0. -1.
         23    2    1    2    0    0  0.41165541138E+01 -0.13899506504E+02 -0.80425174984E+03  0.81404520850E+03  0.12505431644E+03 0.  0.
          5    1    3    3  502    0 -0.18903916340E+02  0.51831590634E+02 -0.31102281253E+03  0.31590589446E+03  0.41800000000E+01 0. -1.
         -5    1    3    3    0  502  0.23020470453E+02 -0.65731097139E+02 -0.49322893731E+03  0.49813931404E+03  0.41800000000E+01 0. -1.
        -11    1    1    2    0    0 -0.36811197455E+02 -0.21095157094E+02 -0.24153816525E+03  0.24523612128E+03  0.00000000000E+00 0.  1.
         11    1    1    2    0    0  0.32694643341E+02  0.34994663598E+02 -0.28389728104E+03  0.28790837495E+03  0.00000000000E+00 0. -1.
</event>
<event>
 7    1  0.5109948E-006  0.2158637E+03  0.7561462E-02  0.1137005E+00
         -1   -1    0    0    0  501 -0.00000000000E+00  0.00000000000E+00  0.86815045252E+02  0.86815045252E+02  0.00000000000E+00 0.  1.
          1   -1    0    0  501    0  0.00000000000E+00 -0.00000000000E+00 -0.72000648892E+03  0.72000648892E+03  0.00000000000E+00 0. -1.
         23    2    1    2    0    0 -0.16131069523E+03  0.11854114599E+03 -0.17485947912E+03  0.29376405170E+03  0.12509331295E+03 0.  0.
          5    1    3    3  502    0 -0.15409950322E+03  0.11335447994E+03 -0.19385346442E+03  0.27238306313E+03  0.41800000000E+01 0.  1.
         -5    1    3    3    0  502 -0.72111920142E+01  0.51866660481E+01  0.18993985293E+02  0.21380988571E+02  0.41800000000E+01 0.  1.
        -11    1    1    2    0    0  0.11130565373E+03 -0.10854555951E+02 -0.22224271302E+03  0.24879427933E+03  0.00000000000E+00 0. -1.
         11    1    1    2    0    0  0.50005041506E+02 -0.10768659004E+03 -0.23608925153E+03  0.26426320314E+03  0.00000000000E+00 0.  1.
</event>
<event>
 7    1  0.5109948E-006  0.1336233E+03  0.7561462E-02  0.1222176E+00
          1   -1    0    0  501    0  0.00000000000E+00  0.00000000000E+00  0.54981972766E+03  0.54981972766E+03  0.00000000000E+00 0. -1.
         -1   -1    0    0    0  501 -0.00000000000E+00 -0.00000000000E+00 -0.46329063741E+02  0.46329063741E+02  0.00000000000E+00 0.  1.
         23    2    1    2    0    0 -0.70953109596E+02 -0.78722632930E+02  0.17178223107E+03  0.23528864138E+03  0.12091324640E+03 0.  0.
          5    1    3    3  502    0  0.56297045749E+01  0.73600993465E+01  0.97739871070E+02  0.98267082142E+02  0.41800000000E+01 0. -1.
         -5    1    3    3    0  502 -0.76582814170E+02 -0.86082732277E+02  0.74042360003E+02  0.13702155924E+03  0.41800000000E+01 0.  1.
        -11    1    1    2    0    0  0.73436220388E+02  0.11278154439E+02  0.18553846114E+03  0.19986144149E+03  0.00000000000E+00 0. -1.
         11    1    1    2    0    0 -0.24831107925E+01  0.67444478491E+02  0.14616997171E+03  0.16099870853E+03  0.00000000000E+00 0.  1.
</event>
<event>
 7    1  0.5109948E-006  0.9813956E+02  0.7561462E-02  0.1284258E+00
         -1   -1    0    0    0  501 -0.00000000000E+00  0.00000000000E+00  0.49299415565E+02  0.49299415565E+02  0.00000000000E+00 0.  1.
          1   -1    0    0  501    0  0.00000000000E+00 -0.00000000000E+00 -0.48239335027E+03  0.48239335027E+03  0.00000000000E+00 0. -1.
         23    2    1    2    0    0  0.68741264478E+02  0.32872115856E+02 -0.98323458114E+02  0.17641361209E+03  0.12509325590E+03 0.  0.
          5    1    3    3  502    0  0.37732876786E+02  0.57009788234E+02 -0.11473461220E+03  0.13362406064E+03  0.41800000000E+01 0.  1.
         -5    1    3    3    0  502  0.31008387692E+02 -0.24137672378E+02  0.16411154086E+02  0.42789551453E+02  0.41800000000E+01 0.  1.
        -11    1    1    2    0    0 -0.12554467959E+02  0.11226981573E+02 -0.45830804740E+01  0.17454638570E+02  0.00000000000E+00 0.  1.
         11    1    1    2    0    0 -0.56186796518E+02 -0.44099097429E+02 -0.33018739612E+03  0.33782451517E+03  0.00000000000E+00 0. -1.
</event>
<event>
 7    1  0.5109948E-006  0.1234546E+03  0.7561462E-02  0.1237504E+00
         -2   -1    0    0    0  501 -0.00000000000E+00  0.00000000000E+00  0.71872811872E+02  0.71872811872E+02  0.00000000000E+00 0.  1.
          2   -1    0    0  501    0  0.00000000000E+00 -0.00000000000E+00 -0.27235225762E+03  0.27235225762E+03  0.00000000000E+00 0. -1.
         23    2    1    2    0    0  0.43709719673E+02  0.38619015933E+02 -0.32142467898E+02  0.14170982500E+03  0.12508624335E+03 0.  0.
          5    1    3    3  502    0  0.11379750075E+02 -0.45820235904E+02 -0.13692946778E+02  0.49335199620E+02  0.41800000000E+01 0.  1.
         -5    1    3    3    0  502  0.32329969598E+02  0.84439251837E+02 -0.18449521120E+02  0.92374625382E+02  0.41800000000E+01 0.  1.
        -11    1    1    2    0    0 -0.40065078555E+02  0.23715460037E+02 -0.47576937094E+02  0.66567248010E+02  0.00000000000E+00 0.  1.
         11    1    1    2    0    0 -0.36446411177E+01 -0.62334475969E+02 -0.12076004075E+03  0.13594799648E+03  0.00000000000E+00 0. -1.
</event>
<event>
 7    1  0.5109948E-006  0.1108952E+03  0.7561462E-02  0.1258921E+00
         -2   -1    0    0    0  501 -0.00000000000E+00  0.00000000000E+00  0.20666892393E+02  0.20666892393E+02  0.00000000000E+00 0. -1.
          2   -1    0    0  501    0  0.00000000000E+00 -0.00000000000E+00 -0.85496612469E+03  0.85496612469E+03  0.00000000000E+00 0.  1.
         23    2    1    2    0    0  0.73777002745E+02 -0.13084332496E+02 -0.42733880561E+03  0.45153098285E+03  0.12509007875E+03 0.  0.
          5    1    3    3  502    0  0.59714390868E+02  0.25388025932E+02 -0.86494722751E+02  0.10820891738E+03  0.41800000000E+01 0.  1.
         -5    1    3    3    0  502  0.14062611877E+02 -0.38472358429E+02 -0.34084408286E+03  0.34332206547E+03  0.41800000000E+01 0.  1.
        -11    1    1    2    0    0 -0.88701371031E+02  0.29433467458E+02 -0.27888696707E+03  0.29412956776E+03  0.00000000000E+00 0.  1.
         11    1    1    2    0    0  0.14924368286E+02 -0.16349134962E+02 -0.12807345962E+03  0.12997246648E+03  0.00000000000E+00 0. -1.
</event>
<event>
 7    1  0.5109948E-006  0.5745945E+02  0.7561462E-02  0.1408813E+00
          3   -1    0    0  501    0  0.00000000000E+00  0.00000000000E+00  0.24128629014E+03  0.24128629014E+03  0.00000000000E+00 0.  1.
         -3   -1    0    0    0  501 -0.00000000000E+00 -0.00000000000E+00 -0.56294471791E+02  0.56294471791E+02  0.00000000000E+00 0. -1.
         23    2    1    2    0    0  0.22034944957E+02 -0.39422641058E+02  0.78457182117E+02  0.15441126085E+03  0.12509046577E+03 0.  0.
          5    1    3    3  502    0 -0.26861792056E+01 -0.13453059981E+00 -0.33120224582E+02  0.33491123206E+02  0.41800000000E+01 0. -1.
         -5    1    3    3    0  502  0.24721124163E+02 -0.39288110458E+02  0.11157740670E+03  0.12092013765E+03  0.41800000000E+01 0. -1.
        -11    1    1    2    0    0  0.13645715176E+02  0.81361906006E+01 -0.90066257133E+01  0.18262596937E+02  0.00000000000E+00 0. -1.
         11    1    1    2    0    0 -0.35680660133E+02  0.31286450458E+02  0.11554126194E+03  0.12490690414E+03  0.00000000000E+00 0.  1.
</event>
<event>
 7    1  0.5109948E-006  0.1161367E+03  0.7561462E-02  0.1249610E+00
         -1   -1    0    0    0  501 -0.00000000000E+00  0.00000000000E+00  0.42362344860E+03  0.42362344860E+03  0.00000000000E+00 0. -1.
          1   -1    0    0  501    0  0.00000000000E+00 -0.00000000000E+00 -0.43366277085E+02  0.43366277085E+02  0.00000000000E+00 0.  1.
         23    2    1    2    0    0  0.27578476542E+02  0.77320428273E+02  0.20716386687E+03  0.25560850182E+03  0.12521907789E+03 0.  0.
          5    1    3    3  502    0  0.57893903838E+02  0.53721053821E+02  0.20160810725E+03  0.21656628785E+03  0.41800000000E+01 0. -1.
         -5    1    3    3    0  502 -0.30315427296E+02  0.23599374452E+02  0.55557596266E+01  0.39042213970E+02  0.41800000000E+01 0. -1.
        -11    1    1    2    0    0 -0.55896153572E+02 -0.46758502984E+02  0.73876335489E+02  0.10377114498E+03  0.00000000000E+00 0.  1.
         11    1    1    2    0    0  0.28317677030E+02 -0.30561925289E+02  0.99216969150E+02  0.10761007888E+03  0.00000000000E+00 0. -1.
</event>
<event>
 7    1  0.5109948E-006  0.8190224E+02  0.7561462E-02  0.1323738E+00
          3   -1    0    0  501    0  0.00000000000E+00  0.00000000000E+00  0.22795341998E+03  0.22795341998E+03  0.00000000000E+00 0. -1.
         -3   -1    0    0    0  501 -0.00000000000E+00 -0.00000000000E+00 -0.62737229179E+02  0.62737229179E+02  0.00000000000E+00 0.  1.
         23    2    1    2    0    0  0.33514011318E+02  0.24104738141E+02  0.58117406325E+02  0.14397641436E+03  0.12508935854E+03 0.  0.
          5    1    3    3  502    0  0.11948048025E+02  0.46568805218E+02  0.88160660600E+02  0.10050464640E+03  0.41800000000E+01 0. -1.
         -5    1    3    3    0  502  0.21565963292E+02 -0.22464067076E+02 -0.30043254275E+02  0.43471767962E+02  0.41800000000E+01 0. -1.
        -11    1    1    2    0    0  0.28246737961E+01  0.23817517192E+02  0.11516705658E+00  0.23984707017E+02  0.00000000000E+00 0.  1.
         11    1    1    2    0    0 -0.36338685114E+02 -0.47922255334E+02  0.10698361741E+03  0.12272952777E+03  0.00000000000E+00 0. -1.
</event>
<event>
 7    1  0.5109948E-006  0.1762299E+03  0.7561462E-02  0.1171502E+00
         -3   -1    0    0    0  501 -0.00000000000E+00  0.00000000000E+00  0.74995853757E+03  0.74995853757E+03  0.00000000000E+00 0.  1.
          3   -1    0    0  501    0  0.00000000000E+00 -0.00000000000E+00 -0.62335165582E+02  0.62335165582E+02  0.00000000000E+00 0. -1.
         23    2    1    2    0    0 -0.76902155842E+02 -0.14310228674E+03  0.52880820620E+03  0.56716627575E+03  0.12508900576E+03 0.  0.
          5    1    3    3  502    0 -0.32839464507E+02 -0.29946328325E+02  0.33814258911E+03  0.34107637852E+03  0.41800000000E+01 0. -1.
         -5    1    3    3    0  502 -0.44062691336E+02 -0.11315595842E+03  0.19066561708E+03  0.22608989723E+03  0.41800000000E+01 0. -1.
        -11    1    1    2    0    0  0.97738550149E+02  0.12529052388E+03  0.12946957425E+03  0.20497051060E+03  0.00000000000E+00 0.  1.
         11    1    1    2    0    0 -0.20836394307E+02  0.17811762864E+02  0.29345591538E+02  0.40156916799E+02  0.00000000000E+00 0. -1.
</event>
<event>
 7    1  0.5109948E-006  0.2742754E+03  0.7561462E-02  0.1098857E+00
         -2   -1    0    0    0  501 -0.00000000000E+00  0.00000000000E+00  0.10055507638E+03  0.10055507638E+03  0.00000000000E+00 0.  1.
          2   -1    0    0  501    0  0.00000000000E+00 -0.00000000000E+00 -0.82301763645E+03  0.82301763645E+03  0.00000000000E+00 0. -1.
         23    2    1    2    0    0  0.14778566247E+03  0.21471167094E+03 -0.28289453900E+03  0.40449806742E+03  0.12509061787E+03 0.  0.
          5    1    3    3  502    0  0.11406273301E+03  0.66537839700E+02 -0.16916682038E+03  0.21464500155E+03  0.41800000000E+01 0.  1.
         -5    1    3    3    0  502  0.33722929456E+02  0.14817383124E+03 -0.11372771862E+03  0.18985306587E+03  0.41800000000E+01 0.  1.
        -11    1    1    2    0    0 -0.10909998073E+03 -0.18812730639E+03 -0.29110999094E+03  0.36337269577E+03  0.00000000000E+00 0.  1.
         11    1    1    2    0    0 -0.38685681736E+02 -0.26584364556E+02 -0.14845803013E+03  0.15570194964E+03  0.00000000000E+00 0. -1.
</event>
<event>
 7    1  0.5109948E-006  0.1079953E+03  0.7561462E-02  0.1264328E+00
         -2   -1    0    0    0  501 -0.00000000000E+00  0.00000000000E+00  0.23087042901E+03  0.23087042901E+03  0.00000000000E+00 0.  1.
          2   -1    0    0  501    0  0.00000000000E+00 -0.00000000000E+00 -0.80139868178E+02  0.80139868178E+02  0.00000000000E+00 0. -1.
         23    2    1    2    0    0  0.79839544236E+02  0.13273039413E+01  0.12173970750E+03  0.18547718689E+03  0.11491351494E+03 0.  0.
          5    1    3    3  502    0  0.64286011974E+02 -0.20902274910E+02  0.76814412617E+01  0.68162110969E+02  0.41800000000E+01 0. -1.
         -5    1    3    3    0  502  0.15553532263E+02  0.22229578851E+02  0.11405826624E+03  0.11731507593E+03  0.41800000000E+01 0.  1.
        -11    1    1    2    0    0 -0.46087189843E+02  0.44387945809E+02  0.61229212818E+01  0.64279148763E+02  0.00000000000E+00 0. -1.
         11    1    1    2    0    0 -0.33752354394E+02 -0.45715249750E+02  0.22867932047E+02  0.61253961529E+02  0.00000000000E+00 0.  1.
</event>
<event>
 7    1  0.5109948E-006  0.1324296E+03  0.7561462E-02  0.1223894E+00
         -1   -1    0    0    0  501 -0.00000000000E+00  0.00000000000E+00  0.12568242204E+03  0.12568242204E+03  0.00000000000E+00 0.  1.
          1   -1    0    0  501    0  0.00000000000E+00 -0.00000000000E+00 -0.21491370612E+03  0.21491370612E+03  0.00000000000E+00 0. -1.
         23    2    1    2    0    0 -0.87072601687E+02  0.76090011962E+02 -0.40727982191E+01  0.17039482567E+03  0.12508589467E+03 0.  0.
          5    1    3    3  502    0 -0.93799043885E+02  0.66161791077E+02 -0.48134544952E+02  0.12453935141E+03  0.41800000000E+01 0. -1.
         -5    1    3    3    0  502  0.67264421980E+01  0.99282208846E+01  0.44061746733E+02  0.45855474262E+02  0.41800000000E+01 0. -1.
        -11    1    1    2    0    0  0.61306981877E+02 -0.89318993934E+02 -0.37898955880E+02  0.11477264291E+03  0.00000000000E+00 0.  1.
         11    1    1    2    0    0  0.25765619810E+02  0.13228981973E+02 -0.47259529981E+02  0.55428659575E+02  0.00000000000E+00 0. -1.
</event>
<event>
 7    1  0.5109948E-006  0.5919428E+02  0.7561462E-02  0.1401244E+00
          2   -1    0    0  501    0  0.00000000000E+00  0.00000000000E+00  0.11477461284E+02  0.11477461284E+02  0.00000000000E+00 0. -1.
         -2   -1    0    0    0  501 -0.00000000000E+00 -0.00000000000E+00 -0.11402830924E+04  0.11402830924E+04  0.00000000000E+00 0.  1.
         23    2    1    2    0    0  0.31452218296E+02  0.19909529030E+02 -0.92083143289E+03  0.93003193864E+03  0.12507296960E+03 0.  0.
          5    1    3    3  502    0  0.31013937491E+02  0.40496043479E+01 -0.50515273468E+02  0.59561135547E+02  0.41800000000E+01 0.  1.
         -5    1    3    3    0  502  0.43828080491E+00  0.15859924683E+02 -0.87031615942E+03  0.87047080310E+03  0.41800000000E+01 0.  1.
        -11    1    1    2    0    0 -0.84793342502E+01  0.21477373781E+02 -0.31755198257E+02  0.39262823513E+02  0.00000000000E+00 0.  1.
         11    1    1    2    0    0 -0.22972884046E+02 -0.41386902812E+02 -0.17621899996E+03  0.18246579152E+03  0.00000000000E+00 0. -1.
</event>
<event>
 7    1  0.5109948E-006  0.1091390E+03  0.7561462E-02  0.1262173E+00
          1   -1    0    0  501    0  0.00000000000E+00  0.00000000000E+00  0.40097898809E+02  0.40097898809E+02  0.00000000000E+00 0. -1.
         -1   -1    0    0    0  501 -0.00000000000E+00 -0.00000000000E+00 -0.39203325575E+03  0.39203325575E+03  0.00000000000E+00 0.  1.
         23    2    1    2    0    0  0.26563400617E+02 -0.32224246052E+02 -0.23088774095E+03  0.26589604377E+03  0.12509013105E+03 0.  0.
          5    1    3    3  502    0  0.59814252527E+02  0.23652098187E+02 -0.90308808505E+02  0.11095188078E+03  0.41800000000E+01 0.  1.
         -5    1    3    3    0  502 -0.33250851909E+02 -0.55876344240E+02 -0.14057893245E+03  0.15494416300E+03  0.41800000000E+01 0.  1.
        -11    1    1    2    0    0 -0.38436729885E+02 -0.14025964900E+02 -0.55937180786E+01  0.41296483840E+02  0.00000000000E+00 0. -1.
         11    1    1    2    0    0  0.11873329268E+02  0.46250210952E+02 -0.11545389791E+03  0.12493862694E+03  0.00000000000E+00 0.  1.
</event>
<event>
 7    1  0.5109948E-006  0.1239616E+03  0.7561462E-02  0.1236701E+00
         -1   -1    0    0    0  501 -0.00000000000E+00  0.00000000000E+00  0.50674261424E+02  0.50674261424E+02  0.00000000000E+00 0.  1.
          1   -1    0    0  501    0  0.00000000000E+00 -0.00000000000E+00 -0.32244083796E+03  0.32244083796E+03  0.00000000000E+00 0. -1.
         23    2    1    2    0    0  0.56614299861E+02  0.32797183707E+02 -0.13404780595E+03  0.19469451274E+03  0.12512515656E+03 0.  0.
          5    1    3    3  502    0  0.39988455574E+02 -0.44768309256E+02 -0.43555696956E+02  0.74282226880E+02  0.41800000000E+01 0. -1.
         -5    1    3    3    0  502  0.16625844286E+02  0.77565492963E+02 -0.90492108989E+02  0.12041228586E+03  0.41800000000E+01 0. -1.
        -11    1    1    2    0    0  0.22088764801E+02  0.21635553192E+01 -0.53701239450E+02  0.58106949847E+02  0.00000000000E+00 0. -1.
         11    1    1    2    0    0 -0.78703064661E+02 -0.34960739026E+02 -0.84017531145E+02  0.12031363680E+03  0.00000000000E+00 0.  1.
</event>
<event>
 7    1  0.5109948E-006  0.1837260E+03  0.7561462E-02  0.1164245E+00
          2   -1    0    0  501    0  0.00000000000E+00  0.00000000000E+00  0.36360659488E+03  0.36360659488E+03  0.00000000000E+00 0. -1.
         -2   -1    0    0    0  501 -0.00000000000E+00 -0.00000000000E+00 -0.10474198445E+03  0.10474198445E+03  0.00000000000E+00 0.  1.
         23    2    1    2    0    0  0.15485093185E+03  0.44777026449E+02  0.15306809049E+03  0.25504203328E+03  0.12503121698E+03 0.  0.
          5    1    3    3  502    0  0.14168226602E+03  0.76343621598E+02  0.93366734476E+02  0.18611026992E+03  0.41800000000E+01 0.  1.
         -5    1    3    3    0  502  0.13168665828E+02 -0.31566595148E+02  0.59701356018E+02  0.68931763356E+02  0.41800000000E+01 0.  1.
        -11    1    1    2    0    0 -0.11751037034E+01 -0.15517350490E+02 -0.10156080588E+02  0.18582653412E+02  0.00000000000E+00 0.  1.
         11    1    1    2    0    0 -0.15367582815E+03 -0.29259675959E+02  0.11595260053E+03  0.19472389264E+03  0.00000000000E+00 0. -1.
</event>
<event>
 7    1  0.5109948E-006  0.3298320E+03  0.7561462E-02  0.1071211E+00
          1   -1    0    0  501    0  0.00000000000E+00  0.00000000000E+00  0.72708774747E+03  0.72708774747E+03  0.00000000000E+00 0. -1.
         -1   -1    0    0    0  501 -0.00000000000E+00 -0.00000000000E+00 -0.19824392753E+03  0.19824392753E+03  0.00000000000E+00 0.  1.
         23    2    1    2    0    0 -0.66156177525E+02  0.31647820737E+03  0.65279137805E+02  0.35274402154E+03  0.12502753033E+03 0.  0.
          5    1    3    3  502    0 -0.71306577903E+02  0.31286913455E+03  0.36497257755E+02  0.32298799610E+03  0.41800000000E+01 0.  1.
         -5    1    3    3    0  502  0.51504003771E+01  0.36090728189E+01  0.28781880051E+02  0.29756025439E+02  0.41800000000E+01 0.  1.
        -11    1    1    2    0    0 -0.52762653408E+01 -0.14930257497E+03  0.25828745374E+03  0.29838147836E+03  0.00000000000E+00 0.  1.
         11    1    1    2    0    0  0.71432442866E+02 -0.16717563240E+03  0.20527722840E+03  0.27420617510E+03  0.00000000000E+00 0. -1.
</event>
<event>
 7    1  0.5109948E-006  0.1367776E+03  0.7561462E-02  0.1217732E+00
         -1   -1    0    0    0  501 -0.00000000000E+00  0.00000000000E+00  0.17553424226E+03  0.17553424226E+03  0.00000000000E+00 0.  1.
          1   -1    0    0  501    0  0.00000000000E+00 -0.00000000000E+00 -0.19962646803E+03  0.19962646803E+03  0.00000000000E+00 0. -1.
         23    2    1    2    0    0  0.39391358528E+01 -0.10800899442E+03  0.95813264813E+02  0.19107367919E+03  0.12509000559E+03 0.  0.
          5    1    3    3  502    0  0.17717067668E+02 -0.13285409312E+03  0.90745039722E+02  0.16191429579E+03  0.41800000000E+01 0.  1.
         -5    1    3    3    0  502 -0.13777931816E+02  0.24845098704E+02  0.50682250909E+01  0.29159383400E+02  0.41800000000E+01 0.  1.
        -11    1    1    2    0    0 -0.14182736849E+02  0.59759682734E+02 -0.11995210041E+03  0.13476229479E+03  0.00000000000E+00 0. -1.
         11    1    1    2    0    0  0.10243600996E+02  0.48249311684E+02  0.46609826786E-01  0.49324736308E+02  0.00000000000E+00 0.  1.
</event>
<event>
 7    1  0.5109948E-006  0.6628149E+02  0.7561462E-02  0.1373215E+00
          2   -1    0    0  501    0  0.00000000000E+00  0.00000000000E+00  0.16923139316E+03  0.16923139316E+03  0.00000000000E+00 0. -1.
         -2   -1    0    0    0  501 -0.00000000000E+00 -0.00000000000E+00 -0.86557811800E+02  0.86557811800E+02  0.00000000000E+00 0.  1.
         23    2    1    2    0    0 -0.12131738382E+00 -0.49996963350E+01 -0.10561757863E+02  0.12563271814E+03  0.12508803882E+03 0.  0.
          5    1    3    3  502    0  0.27919216342E+02  0.80369872591E+01  0.49729103938E+02  0.57745406603E+02  0.41800000000E+01 0.  1.
         -5    1    3    3    0  502 -0.28040533726E+02 -0.13036683594E+02 -0.60290861800E+02  0.67887311534E+02  0.41800000000E+01 0.  1.
        -11    1    1    2    0    0  0.35116180892E+02  0.10339654898E+02  0.74541942027E+01  0.37357992921E+02  0.00000000000E+00 0.  1.
         11    1    1    2    0    0 -0.34994863508E+02 -0.53399585627E+01  0.85781145023E+02  0.92798493904E+02  0.00000000000E+00 0. -1.
</event>
<event>
 7    1  0.5109948E-006  0.8515584E+02  0.7561462E-02  0.1315025E+00
         -3   -1    0    0    0  501 -0.00000000000E+00  0.00000000000E+00  0.10981890531E+03  0.10981890531E+03  0.00000000000E+00 0.  1.
          3   -1    0    0  501    0  0.00000000000E+00 -0.00000000000E+00 -0.14557075232E+03  0.14557075232E+03  0.00000000000E+00 0. -1.
         23    2    1    2    0    0  0.46152981989E+02  0.43277541998E+02 -0.13969134517E+02  0.14088034020E+03  0.12509632347E+03 0.  0.
          5    1    3    3  502    0  0.39763498556E+01  0.17257259953E+02  0.53815239273E+02  0.56808245505E+02  0.41800000000E+01 0. -1.
         -5    1    3    3    0  502  0.42176632134E+02  0.26020282044E+02 -0.67784373790E+02  0.84072094692E+02  0.41800000000E+01 0. -1.
        -11    1    1    2    0    0 -0.67109938444E+02 -0.17872672477E+02  0.82512938438E+01  0.69937544348E+02  0.00000000000E+00 0.  1.
         11    1    1    2    0    0  0.20956956454E+02 -0.25404869521E+02 -0.30034006342E+02  0.44571773087E+02  0.00000000000E+00 0. -1.
</event>
<event>
 7    1  0.5109948E-006  0.1118892E+03  0.7561462E-02  0.1257111E+00
         -2   -1    0    0    0  501 -0.00000000000E+00  0.00000000000E+00  0.57238697154E+02  0.57238697154E+02  0.00000000000E+00 0.  1.
          2   -1    0    0  501    0  0.00000000000E+00 -0.00000000000E+00 -0.39429791594E+03  0.39429791594E+03  0.00000000000E+00 0. -1.
         23    2    1    2    0    0 -0.63897686068E+02  0.32399615550E+01 -0.62014255678E+02  0.15357462078E+03  0.12508391025E+03 0.  0.
          5    1    3    3  502    0  0.23140167409E+02 -0.12290804632E+01  0.22162521493E+02  0.32336167761E+02  0.41800000000E+01 0. -1.
         -5    1    3    3    0  502 -0.87037853477E+02  0.44690420182E+01 -0.84176777171E+02  0.12123845301E+03  0.41800000000E+01 0. -1.
        -11    1    1    2    0    0  0.78880622971E+02  0.23517896248E+02 -0.17638343248E+03  0.19464418660E+03  0.00000000000E+00 0. -1.
         11    1    1    2    0    0 -0.14982936903E+02 -0.26757857803E+02 -0.98661530632E+02  0.10331780572E+03  0.00000000000E+00 0.  1.
</event>
<event>
 7    1  0.5109948E-006  0.8850744E+02  0.7561462E-02  0.1306507E+00
         -1   -1    0    0    0  501 -0.00000000000E+00  0.00000000000E+00  0.10687607099E+03  0.10687607099E+03  0.00000000000E+00 0.  1.
          1   -1    0    0  501    0  0.00000000000E+00 -0.00000000000E+00 -0.21648619105E+03  0.21648619105E+03  0.00000000000E+00 0. -1.
         23    2    1    2    0    0 -0.31584181634E+02  0.24600569977E+02  0.45375545688E+02  0.13895628539E+03  0.12508861072E+03 0.  0.
          5    1    3    3  502    0 -0.51656985949E+02  0.22483665023E+02  0.80431981309E+02  0.98289040119E+02  0.41800000000E+01 0.  1.
         -5    1    3    3    0  502  0.20072804315E+02  0.21169049542E+01 -0.35056435621E+02  0.40667245273E+02  0.41800000000E+01 0.  1.
        -11    1    1    2    0    0  0.64133145693E+02 -0.13664828947E+02 -0.10324546122E+03  0.12230867994E+03  0.00000000000E+00 0. -1.
         11    1    1    2    0    0 -0.32548964059E+02 -0.10935741030E+02 -0.51740204531E+02  0.62097296706E+02  0.00000000000E+00 0.  1.
</event>
<event>
 7    1  0.5109948E-006  0.1136567E+03  0.7561462E-02  0.1253944E+00
         -2   -1    0    0    0  501 -0.00000000000E+00  0.00000000000E+00  0.63501024691E+03  0.63501024691E+03  0.00000000000E+00 0.  1.
          2   -1    0    0  501    0  0.00000000000E+00 -0.00000000000E+00 -0.28697817251E+02  0.28697817251E+02  0.00000000000E+00 0. -1.
         23    2    1    2    0    0  0.51360225448E+02  0.32957340555E+02  0.47561935160E+03  0.49556958959E+03  0.12510552132E+03 0.  0.
          5    1    3    3  502    0 -0.11022719466E+02 -0.36599482291E+02  0.22092192923E+03  0.22424315745E+03  0.41800000000E+01 0.  1.
         -5    1    3    3    0  502  0.62382944914E+02  0.69556822846E+02  0.25469742237E+03  0.27132643215E+03  0.41800000000E+01 0.  1.
        -11    1    1    2    0    0 -0.47000350906E+02  0.13321447190E+02  0.30245715946E+02  0.57456916673E+02  0.00000000000E+00 0. -1.
         11    1    1    2    0    0 -0.43598745420E+01 -0.46278787745E+02  0.10044736211E+03  0.11068155789E+03  0.00000000000E+00 0.  1.
</event>
<event>
 7    1  0.5109948E-006  0.6554262E+02  0.7561462E-02  0.1375942E+00
          1   -1    0    0  501    0  0.00000000000E+00  0.00000000000E+00  0.74138199262E+02  0.74138199262E+02  0.00000000000E+00 0. -1.
         -1   -1    0    0    0  501 -0.00000000000E+00 -0.00000000000E+00 -0.17474489360E+03  0.17474489360E+03  0.00000000000E+00 0.  1.
         23    2    1    2    0    0  0.38221769010E+01  0.21353253299E+01 -0.11646558250E+03  0.17097158530E+03  0.12509149620E+03 0.  0.
          5    1    3    3  502    0  0.39695747593E+02  0.94236924497E+01 -0.12633746086E+03  0.13282765063E+03  0.41800000000E+01 0. -1.
         -5    1    3    3    0  502 -0.35873570692E+02 -0.72883671198E+01  0.98718783589E+01  0.38143934666E+02  0.41800000000E+01 0. -1.
        -11    1    1    2    0    0 -0.11740185795E+02 -0.25761552700E+02 -0.19700619674E+02  0.34490636056E+02  0.00000000000E+00 0.  1.
         11    1    1    2    0    0  0.79180088940E+01  0.23626227370E+02  0.35559507838E+02  0.43420871505E+02  0.00000000000E+00 0. -1.
</event>
<event>
 7    1  0.5109948E-006  0.2317461E+03  0.7561462E-02  0.1125417E+00
         -2   -1    0    0    0  501 -0.00000000000E+00  0.00000000000E+00  0.23079448665E+03  0.23079448665E+03  0.00000000000E+00 0. -1.
          2   -1    0    0  501    0  0.00000000000E+00 -0.00000000000E+00 -0.32262803844E+03  0.32262803844E+03  0.00000000000E+00 0.  1.
         23    2    1    2    0    0 -0.22863534513E+03 -0.69926676245E+01  0.63730779863E+02  0.26838708547E+03  0.12508795668E+03 0.  0.
          5    1    3    3  502    0 -0.61761787040E+02  0.18554983650E+02 -0.34262060963E+02  0.73144835621E+02  0.41800000000E+01 0. -1.
         -5    1    3    3    0  502 -0.16687355809E+03 -0.25547651275E+02  0.97992840826E+02  0.19524224985E+03  0.41800000000E+01 0. -1.
        -11    1    1    2    0    0  0.97504215057E+02  0.14867196490E+02 -0.10557304068E+03  0.14447758443E+03  0.00000000000E+00 0.  1.
         11    1    1    2    0    0  0.13113113007E+03 -0.78745288654E+01 -0.49991290974E+02  0.14055785518E+03  0.00000000000E+00 0. -1.
</event>
<event>
 7    1  0.5109948E-006  0.1244930E+03  0.7561462E-02  0.1235864E+00
          4   -1    0    0  501    0  0.00000000000E+00  0.00000000000E+00  0.25245910810E+03  0.25245910810E+03  0.00000000000E+00 0. -1.
         -4   -1    0    0    0  501 -0.00000000000E+00 -0.00000000000E+00 -0.62918800366E+02  0.62918800366E+02  0.00000000000E+00 0.  1.
         23    2    1    2    0    0  0.53681152489E+02 -0.36141080541E+02  0.10720418807E+03  0.17699955107E+03  0.12509300262E+03 0.  0.
          5    1    3    3  502    0  0.38279988885E+02  0.43796945769E+02  0.34415798944E+02  0.67715948083E+02  0.41800000000E+01 0. -1.
         -5    1    3    3    0  502  0.15401163604E+02 -0.79938026310E+02  0.72788389129E+02  0.10928360299E+03  0.41800000000E+01 0. -1.
        -11    1    1    2    0    0 -0.69320604117E+02  0.52169419912E+02  0.53727657878E+02  0.10204732113E+03  0.00000000000E+00 0.  1.
         11    1    1    2    0    0  0.15639451628E+02 -0.16028339371E+02  0.28608461786E+02  0.36331036264E+02  0.00000000000E+00 0. -1.
</event>
<event>
 7    1  0.5109948E-006  0.2331988E+03  0.7561462E-02  0.1124408E+00
         -2   -1    0    0    0  501 -0.00000000000E+00  0.00000000000E+00  0.17024211345E+04  0.17024211345E+04  0.00000000000E+00 0. -1.
          2   -1    0    0  501    0  0.00000000000E+00 -0.00000000000E+00 -0.32615919605E+02  0.32615919605E+02  0.00000000000E+00 0.  1.
         23    2    1    2    0    0  0.20812879569E+03  0.72412251454E+00  0.91032484744E+03  0.94215420657E+03  0.12508037871E+03 0.  0.
          5    1    3    3  502    0  0.94877358234E+02  0.62128591752E+02  0.45469527573E+03  0.46864372522E+03  0.41800000000E+01 0.  1.
         -5    1    3    3    0  502  0.11325143746E+03 -0.61404469238E+02  0.45562957171E+03  0.47351048134E+03  0.41800000000E+01 0.  1.
        -11    1    1    2    0    0 -0.98024199823E+02 -0.41712235729E+02  0.43281695614E+03  0.44573441856E+03  0.00000000000E+00 0. -1.
         11    1    1    2    0    0 -0.11010459587E+03  0.40988113214E+02  0.32666341135E+03  0.34714842902E+03  0.00000000000E+00 0.  1.
</event>
<event>
 7    1  0.5109948E-006  0.1399074E+03  0.7561462E-02  0.1213454E+00
         -2   -1    0    0    0  501 -0.00000000000E+00  0.00000000000E+00  0.13806366145E+03  0.13806366145E+03  0.00000000000E+00 0.  1.
          2   -1    0    0  501    0  0.00000000000E+00 -0.00000000000E+00 -0.22926849725E+03  0.22926849725E+03  0.00000000000E+00 0. -1.
         23    2    1    2    0    0  0.47470660621E+02  0.92837485248E+02  0.49413260476E+02  0.17018020492E+03  0.12508944619E+03 0.  0.
          5    1    3    3  502    0  0.46061742185E+02  0.11314120820E+03  0.70063426017E+02  0.14088638384E+03  0.41800000000E+01 0.  1.
         -5    1    3    3    0  502  0.14089184358E+01 -0.20303722948E+02 -0.20650165542E+02  0.29293821082E+02  0.41800000000E+01 0.  1.
        -11    1    1    2    0    0  0.24143112970E+02 -0.72433009769E+01 -0.15949946170E+02  0.29828779656E+02  0.00000000000E+00 0.  1.
         11    1    1    2    0    0 -0.71613773591E+02 -0.85594184271E+02 -0.12466815010E+03  0.16732317412E+03  0.00000000000E+00 0. -1.
</event>
<event>
 7    1  0.5539383E-006  0.9366410E+02  0.7561462E-02  0.1294214E+00
          1   -1    0    0  501    0  0.00000000000E+00  0.00000000000E+00  0.42172970947E+03  0.42172970947E+03  0.00000000000E+00 0. -1.
         -1   -1    0    0    0  501 -0.00000000000E+00 -0.00000000000E+00 -0.44087964353E+02  0.44087964353E+02  0.00000000000E+00 0.  1.
         23    2    1    2    0    0  0.16048951686E+02 -0.76521553561E+02  0.16410034845E+03  0.22065753969E+03  0.12509080082E+03 0.  0.
          5    1    3    3  502    0 -0.81196952870E+01 -0.25621877513E+02 -0.16235509215E+02  0.31677661187E+02  0.41800000000E+01 0. -1.
         -5    1    3    3    0  502  0.24168646973E+02 -0.50899676048E+02  0.18033585767E+03  0.18897987850E+03  0.41800000000E+01 0. -1.
        -11    1    1    2    0    0  0.25072715092E+02  0.13780672722E+02  0.13736440702E+02  0.31737009719E+02  0.00000000000E+00 0.  1.
         11    1    1    2    0    0 -0.41121666777E+02  0.62740880839E+02  0.19980495597E+03  0.21342312442E+03  0.00000000000E+00 0. -1.
</event>
<event>
 7    1  0.5109948E-006  0.1361809E+03  0.7561462E-02  0.1218562E+00
          1   -1    0    0  501    0  0.00000000000E+00  0.00000000000E+00  0.59740955657E+03  0.59740955657E+03  0.00000000000E+00 0. -1.
         -1   -1    0    0    0  501 -0.00000000000E+00 -0.00000000000E+00 -0.41374612118E+02  0.41374612118E+02  0.00000000000E+00 0.  1.
         23    2    1    2    0    0 -0.76690461798E+02  0.82418588178E+02  0.26387079113E+03  0.31296031807E+03  0.12506844392E+03 0.  0.
          5    1    3    3  502    0  0.18744904196E+02 -0.12400289415E+02  0.91237568056E+02  0.94057986560E+02  0.41800000000E+01 0. -1.
         -5    1    3    3    0  502 -0.95435365995E+02  0.94818877593E+02  0.17263322308E+03  0.21890233151E+03  0.41800000000E+01 0. -1.
        -11    1    1    2    0    0  0.45074699170E+02 -0.64114143189E+02  0.85620283082E+02  0.11607404851E+03  0.00000000000E+00 0.  1.
         11    1    1    2    0    0  0.31615762628E+02 -0.18304444990E+02  0.20654387023E+03  0.20974980211E+03  0.00000000000E+00 0. -1.
</event>
<event>
 7    1  0.5109948E-006  0.1004782E+03  0.7561462E-02  0.1279294E+00
         -2   -1    0    0    0  501 -0.00000000000E+00  0.00000000000E+00  0.18091874223E+02  0.18091874223E+02  0.00000000000E+00 0.  1.
          2   -1    0    0  501    0  0.00000000000E+00 -0.00000000000E+00 -0.76652055978E+03  0.76652055978E+03  0.00000000000E+00 0. -1.
         23    2    1    2    0    0  0.73825980074E+01 -0.45620619282E+02 -0.35303227570E+03  0.37737318619E+03  0.12507194054E+03 0.  0.
          5    1    3    3  502    0  0.49745406286E+02 -0.19843352659E+02 -0.29951134053E+03  0.30429078132E+03  0.41800000000E+01 0. -1.
         -5    1    3    3    0  502 -0.42362808278E+02 -0.25777266623E+02 -0.53520935170E+02  0.73082404867E+02  0.41800000000E+01 0. -1.
        -11    1    1    2    0    0  0.36137673274E+02  0.39476947412E+02 -0.22164386992E+03  0.22801395983E+03  0.00000000000E+00 0.  1.
         11    1    1    2    0    0 -0.43520271282E+02  0.61436718697E+01 -0.17375253995E+03  0.17922528799E+03  0.00000000000E+00 0. -1.
</event>
<event>
 7    1  0.5109948E-006  0.9941008E+02  0.7561462E-02  0.1281541E+00
          1   -1    0    0  501    0  0.00000000000E+00  0.00000000000E+00  0.88929383732E+02  0.88929383732E+02  0.00000000000E+00 0. -1.
         -1   -1    0    0    0  501 -0.00000000000E+00 -0.00000000000E+00 -0.16021978985E+03  0.16021978985E+03  0.00000000000E+00 0.  1.
         23    2    1    2    0    0  0.95096928659E+01 -0.45191813444E+02 -0.35833997373E+02  0.13807260833E+03  0.12508891055E+03 0.  0.
          5    1    3    3  502    0 -0.28410780017E+02 -0.58248603127E+02  0.21119132005E+02  0.68290279865E+02  0.41800000000E+01 0. -1.
         -5    1    3    3    0  502  0.37920472883E+02  0.13056789683E+02 -0.56953129378E+02  0.69782328468E+02  0.41800000000E+01 0. -1.
        -11    1    1    2    0    0  0.28447277144E+02  0.47674626832E+02 -0.45449194809E+02  0.71747800867E+02  0.00000000000E+00 0.  1.
         11    1    1    2    0    0 -0.37956970010E+02 -0.24828133873E+01  0.99927860612E+01  0.39328764383E+02  0.00000000000E+00 0. -1.
</event>
<event>
 7    1  0.5109948E-006  0.1122643E+03  0.7561462E-02  0.1256433E+00
          2   -1    0    0  501    0  0.00000000000E+00  0.00000000000E+00  0.44177930069E+03  0.44177930069E+03  0.00000000000E+00 0. -1.
         -2   -1    0    0    0  501 -0.00000000000E+00 -0.00000000000E+00 -0.39667978798E+02  0.39667978798E+02  0.00000000000E+00 0.  1.
         23    2    1    2    0    0 -0.69051189536E+02 -0.24424428757E+02  0.24961182141E+03  0.28864209589E+03  0.12507429248E+03 0.  0.
          5    1    3    3  502    0  0.19185369026E+02  0.25809994092E+02  0.11793600679E+03  0.12231356538E+03  0.41800000000E+01 0.  1.
         -5    1    3    3    0  502 -0.88236558562E+02 -0.50234422849E+02  0.13167581462E+03  0.16632853051E+03  0.41800000000E+01 0.  1.
        -11    1    1    2    0    0  0.42317016185E+02 -0.13195580054E+02  0.13720122502E+03  0.14418401208E+03  0.00000000000E+00 0. -1.
         11    1    1    2    0    0  0.26734173351E+02  0.37620008811E+02  0.15298275467E+02  0.48621171520E+02  0.00000000000E+00 0.  1.
</event>
<event>
 7    1  0.5109948E-006  0.1818636E+03  0.7561462E-02  0.1166012E+00
         -2   -1    0    0    0  501 -0.00000000000E+00  0.00000000000E+00  0.11240180553E+03  0.11240180553E+03  0.00000000000E+00 0.  1.
          2   -1    0    0  501    0  0.00000000000E+00 -0.00000000000E+00 -0.37355692045E+03  0.37355692045E+03  0.00000000000E+00 0. -1.
         23    2    1    2    0    0  0.13439680563E+03 -0.59749444626E+02 -0.28526981992E+02  0.19517607745E+03  0.12508962792E+03 0.  0.
          5    1    3    3  502    0  0.95751739369E+02 -0.96734449797E+02 -0.36379641269E+02  0.14094999137E+03  0.41800000000E+01 0.  1.
         -5    1    3    3    0  502  0.38645066258E+02  0.36985005171E+02  0.78526592774E+01  0.54226086078E+02  0.41800000000E+01 0.  1.
        -11    1    1    2    0    0  0.10629250239E+02  0.21389572558E+02 -0.40602546519E+02  0.47106916251E+02  0.00000000000E+00 0.  1.
         11    1    1    2    0    0 -0.14502605587E+03  0.38359872068E+02 -0.19202558641E+03  0.24367573228E+03  0.00000000000E+00 0. -1.
</event>
<event>
 7    1  0.5109948E-006  0.1273107E+03  0.7561462E-02  0.1231502E+00
          1   -1    0    0  501    0  0.00000000000E+00  0.00000000000E+00  0.52134498464E+03  0.52134498464E+03  0.00000000000E+00 0. -1.
         -1   -1    0    0    0  501 -0.00000000000E+00 -0.00000000000E+00 -0.33986675564E+02  0.33986675564E+02  0.00000000000E+00 0.  1.
         23    2    1    2    0    0  0.30921147717E+02 -0.66486565248E+02  0.22227162558E+03  0.26538352301E+03  0.12508860065E+03 0.  0.
          5    1    3    3  502    0  0.22729120601E+02  0.31745724791E+02  0.10515960127E+03  0.11225158397E+03  0.41800000000E+01 0. -1.
         -5    1    3    3    0  502  0.81920271151E+01 -0.98232290039E+02  0.11711202432E+03  0.15313193904E+03  0.41800000000E+01 0. -1.
        -11    1    1    2    0    0 -0.46526765665E+02  0.82258617192E+02  0.22671363831E+03  0.24562225840E+03  0.00000000000E+00 0. -1.
         11    1    1    2    0    0  0.15605617948E+02 -0.15772051943E+02  0.38373045176E+02  0.44325878786E+02  0.00000000000E+00 0.  1.
</event>
<event>
 7    1  0.5109948E-006  0.3376022E+03  0.7561462E-02  0.1067822E+00
          2   -1    0    0  501    0  0.00000000000E+00  0.00000000000E+00  0.82804429721E+03  0.82804429721E+03  0.00000000000E+00 0. -1.
         -2   -1    0    0    0  501 -0.00000000000E+00 -0.00000000000E+00 -0.14523947807E+03  0.14523947807E+03  0.00000000000E+00 0.  1.
         23    2    1    2    0    0 -0.23655287523E+03 -0.22780661720E+03  0.37171146202E+03  0.51153614459E+03  0.12508676432E+03 0.  0.
          5    1    3    3  502    0 -0.83158230529E+02 -0.42798616015E+02  0.18440484950E+03  0.20680820525E+03  0.41800000000E+01 0. -1.
         -5    1    3    3    0  502 -0.15339464470E+03 -0.18500800118E+03  0.18730661251E+03  0.30472793934E+03  0.41800000000E+01 0. -1.
        -11    1    1    2    0    0  0.16650285653E+03  0.21171788267E+03  0.24586758828E+03  0.36468964071E+03  0.00000000000E+00 0. -1.
         11    1    1    2    0    0  0.70050018700E+02  0.16088734530E+02  0.65225768836E+02  0.97057989980E+02  0.00000000000E+00 0.  1.
</event>
<event>
 7    1  0.5109948E-006  0.1223764E+03  0.7561462E-02  0.1239227E+00
          3   -1    0    0  501    0  0.00000000000E+00  0.00000000000E+00  0.17539721370E+02  0.17539721370E+02  0.00000000000E+00 0. -1.
         -3   -1    0    0    0  501 -0.00000000000E+00 -0.00000000000E+00 -0.11251049147E+04  0.11251049147E+04  0.00000000000E+00 0.  1.
         23    2    1    2    0    0 -0.71522832203E+02  0.50427965407E+02 -0.70727254183E+03  0.72356002142E+03  0.12508461517E+03 0.  0.
          5    1    3    3  502    0 -0.92286209582E+02  0.17815667880E+02 -0.29931191427E+03  0.31375027797E+03  0.41800000000E+01 0. -1.
         -5    1    3    3    0  502  0.20763377379E+02  0.32612297527E+02 -0.40796062756E+03  0.40980974345E+03  0.41800000000E+01 0. -1.
        -11    1    1    2    0    0  0.46046891562E+01 -0.44351458687E+02 -0.77853219630E+02  0.89718330661E+02  0.00000000000E+00 0. -1.
         11    1    1    2    0    0  0.66918143047E+02 -0.60765067202E+01 -0.32243943182E+03  0.32936628394E+03  0.00000000000E+00 0.  1.
</event>
<event>
 7    1  0.5109948E-006  0.1677248E+03  0.7561462E-02  0.1180242E+00
         -1   -1    0    0    0  501 -0.00000000000E+00  0.00000000000E+00  0.32603633532E+02  0.32603633532E+02  0.00000000000E+00 0.  1.
          1   -1    0    0  501    0  0.00000000000E+00 -0.00000000000E+00 -0.91017781656E+03  0.91017781656E+03  0.00000000000E+00 0. -1.
         23    2    1    2    0    0 -0.18680279865E+02 -0.14024912178E+03 -0.44918528239E+03  0.48727015072E+03  0.12508402316E+03 0.  0.
          5    1    3    3  502    0 -0.45274855152E+02 -0.86389334234E+01 -0.61487510947E+02  0.76958625781E+02  0.41800000000E+01 0. -1.
         -5    1    3    3    0  502  0.26594575286E+02 -0.13161018835E+03 -0.38769777145E+03  0.41031152494E+03  0.41800000000E+01 0. -1.
        -11    1    1    2    0    0  0.38764061528E+02  0.55240707434E+02 -0.18721107174E+03  0.19900294873E+03  0.00000000000E+00 0.  1.
         11    1    1    2    0    0 -0.20083781663E+02  0.85008414344E+02 -0.24117782890E+03  0.25650835064E+03  0.00000000000E+00 0. -1.
</event>
<event>
 7    1  0.5109948E-006  0.2241267E+03  0.7561462E-02  0.1130843E+00
         -1   -1    0    0    0  501 -0.00000000000E+00  0.00000000000E+00  0.27783078098E+03  0.27783078098E+03  0.00000000000E+00 0.  1.
          1   -1    0    0  501    0  0.00000000000E+00 -0.00000000000E+00 -0.32661211704E+03  0.32661211704E+03  0.00000000000E+00 0. -1.
         23    2    1    2    0    0 -0.15285962146E+03 -0.13030523193E+03  0.17195510999E+03  0.29250900407E+03  0.12508972886E+03 0.  0.
          5    1    3    3  502    0 -0.52389259463E+02 -0.12428702285E+03  0.85407852267E+02  0.15969931805E+03  0.41800000000E+01 0.  1.
         -5    1    3    3    0  502 -0.10047036200E+03 -0.60182090777E+01  0.86547257725E+02  0.13280968602E+03  0.41800000000E+01 0.  1.
        -11    1    1    2    0    0  0.24755490915E+02 -0.60480601613E+01 -0.60335936436E+02  0.65496859373E+02  0.00000000000E+00 0. -1.
         11    1    1    2    0    0  0.12810413055E+03  0.13635329209E+03 -0.16040050961E+03  0.24643703458E+03  0.00000000000E+00 0.  1.
</event>
<event>
 7    1  0.5109948E-006  0.2427050E+03  0.7561462E-02  0.1118004E+00
         -1   -1    0    0    0  501 -0.00000000000E+00  0.00000000000E+00  0.29046678798E+03  0.29046678798E+03  0.00000000000E+00 0.  1.
          1   -1    0    0  501    0  0.00000000000E+00 -0.00000000000E+00 -0.29534061465E+03  0.29534061465E+03  0.00000000000E+00 0. -1.
         23    2    1    2    0    0  0.21972535525E+03 -0.90723562502E+02  0.12974207911E+03  0.29830976670E+03  0.12508282572E+03 0.  0.
          5    1    3    3  502    0  0.19563447865E+03 -0.55583751653E+02  0.14821020307E+03  0.25168658959E+03  0.41800000000E+01 0.  1.
         -5    1    3    3    0  502  0.24090876598E+02 -0.35139810849E+02 -0.18468123965E+02  0.46623177117E+02  0.41800000000E+01 0.  1.
        -11    1    1    2    0    0 -0.16955744804E+03  0.57645414358E+02 -0.54201323221E+02  0.18711094416E+03  0.00000000000E+00 0. -1.
         11    1    1    2    0    0 -0.50167907201E+02  0.33078148144E+02 -0.80414582558E+02  0.10038669177E+03  0.00000000000E+00 0.  1.
</event>
<event>
 7    1  0.5109948E-006  0.9115912E+02  0.7561462E-02  0.1300069E+00
         -2   -1    0    0    0  501 -0.00000000000E+00  0.00000000000E+00  0.17338370262E+03  0.17338370262E+03  0.00000000000E+00 0.  1.
          2   -1    0    0  501    0  0.00000000000E+00 -0.00000000000E+00 -0.88789646525E+02  0.88789646525E+02  0.00000000000E+00 0. -1.
         23    2    1    2    0    0  0.22215984259E+02 -0.56636575143E+02  0.54666005016E+02  0.14945421524E+03  0.12508772421E+03 0.  0.
          5    1    3    3  502    0  0.39692913647E+02  0.18645278863E+02 -0.13755004076E+02  0.46150258448E+02  0.41800000000E+01 0. -1.
         -5    1    3    3    0  502 -0.17476929388E+02 -0.75281854005E+02  0.68421009092E+02  0.10330395679E+03  0.41800000000E+01 0. -1.
        -11    1    1    2    0    0 -0.32456151852E+01  0.10295963716E+02  0.55467938171E+02  0.56508698903E+02  0.00000000000E+00 0.  1.
         11    1    1    2    0    0 -0.18970369074E+02  0.46340611427E+02 -0.25539887096E+02  0.56210435002E+02  0.00000000000E+00 0. -1.
</event>
<event>
 7    1  0.5109948E-006  0.1941816E+03  0.7561462E-02  0.1154743E+00
          1   -1    0    0  501    0  0.00000000000E+00  0.00000000000E+00  0.50225032758E+03  0.50225032758E+03  0.00000000000E+00 0. -1.
         -1   -1    0    0    0  501 -0.00000000000E+00 -0.00000000000E+00 -0.99463668990E+02  0.99463668990E+02  0.00000000000E+00 0.  1.
         23    2    1    2    0    0  0.20225793901E+02  0.18462779155E+03  0.12942050061E+03  0.25863736866E+03  0.12508844205E+03 0.  0.
          5    1    3    3  502    0  0.64064335884E+01  0.12895806670E+03  0.14329623997E+02  0.12997705906E+03  0.41800000000E+01 0.  1.
         -5    1    3    3    0  502  0.13819360313E+02  0.55669724853E+02  0.11509087662E+03  0.12866030959E+03  0.41800000000E+01 0.  1.
        -11    1    1    2    0    0  0.30163389096E+02 -0.81097517618E+02  0.15765797123E+03  0.17984068866E+03  0.00000000000E+00 0. -1.
         11    1    1    2    0    0 -0.50389182997E+02 -0.10353027394E+03  0.11570818675E+03  0.16323593926E+03  0.00000000000E+00 0.  1.
</event>
<event>
 7    1  0.5109948E-006  0.1325629E+03  0.7561462E-02  0.1223702E+00
         -1   -1    0    0    0  501 -0.00000000000E+00  0.00000000000E+00  0.61291982885E+02  0.61291982885E+02  0.00000000000E+00 0.  1.
          1   -1    0    0  501    0  0.00000000000E+00 -0.00000000000E+00 -0.44817066091E+03  0.44817066091E+03  0.00000000000E+00 0. -1.
         23    2    1    2    0    0  0.91259154468E+02 -0.84533189566E+02 -0.18979726265E+03  0.25912271643E+03  0.12508991906E+03 0.  0.
          5    1    3    3  502    0  0.26943655244E+02 -0.55846275119E+02 -0.17677865282E+03  0.18738444838E+03  0.41800000000E+01 0.  1.
         -5    1    3    3    0  502  0.64315499224E+02 -0.28686914448E+02 -0.13018609827E+02  0.71738268050E+02  0.41800000000E+01 0.  1.
        -11    1    1    2    0    0 -0.32049914363E+02  0.37425819584E+01 -0.11911546768E+03  0.12340866489E+03  0.00000000000E+00 0. -1.
         11    1    1    2    0    0 -0.59209240105E+02  0.80790607608E+02 -0.77965947695E+02  0.12693126247E+03  0.00000000000E+00 0.  1.
</event>
<event>
 7    1  0.5109948E-006  0.1243309E+03  0.7561462E-02  0.1236119E+00
          2   -1    0    0  501    0  0.00000000000E+00  0.00000000000E+00  0.14794115677E+03  0.14794115677E+03  0.00000000000E+00 0. -1.
         -2   -1    0    0    0  501 -0.00000000000E+00 -0.00000000000E+00 -0.13620838279E+03  0.13620838279E+03  0.00000000000E+00 0.  1.
         23    2    1    2    0    0 -0.12927284683E+02  0.85257155969E+02 -0.21169900772E+02  0.15339931356E+03  0.12508911770E+03 0.  0.
          5    1    3    3  502    0  0.41277447215E+01 -0.30525088012E+02 -0.18680886278E+02  0.36266612563E+02  0.41800000000E+01 0.  1.
         -5    1    3    3    0  502 -0.17055029405E+02  0.11578224398E+03 -0.24890144935E+01  0.11713270100E+03  0.41800000000E+01 0.  1.
        -11    1    1    2    0    0  0.25434077249E+02 -0.84155687371E+02 -0.76990373101E+01  0.88251612891E+02  0.00000000000E+00 0.  1.
         11    1    1    2    0    0 -0.12506792566E+02 -0.11014685983E+01  0.40601712063E+02  0.42498613105E+02  0.00000000000E+00 0. -1.
</event>
<event>
 7    1  0.5109948E-006  0.1101673E+03  0.7561462E-02  0.1260260E+00
         -2   -1    0    0    0  501 -0.00000000000E+00  0.00000000000E+00  0.22956776186E+02  0.22956776186E+02  0.00000000000E+00 0.  1.
          2   -1    0    0  501    0  0.00000000000E+00 -0.00000000000E+00 -0.68272088788E+03  0.68272088788E+03  0.00000000000E+00 0. -1.
         23    2    1    2    0    0  0.52061258517E+02 -0.33292959625E+02 -0.41256193637E+03  0.43551569230E+03  0.12509105123E+03 0.  0.
          5    1    3    3  502    0  0.61984185213E+02 -0.57647214318E+02 -0.15565150162E+03  0.17722895613E+03  0.41800000000E+01 0. -1.
         -5    1    3    3    0  502 -0.99229266961E+01  0.24354254693E+02 -0.25691043475E+03  0.25828673617E+03  0.41800000000E+01 0. -1.
        -11    1    1    2    0    0 -0.53898409752E+02  0.60878051492E+02 -0.18735654034E+03  0.20423919540E+03  0.00000000000E+00 0.  1.
         11    1    1    2    0    0  0.18371512345E+01 -0.27585091867E+02 -0.59845634974E+02  0.65922776363E+02  0.00000000000E+00 0. -1.
</event>
<event>
 6    1  0.5109948E-006  0.1159055E+03  0.7561462E-02  0.1250009E+00
          2   -1    0    0  501    0  0.00000000000E+00  0.00000000000E+00  0.18526395515E+03  0.18526395515E+03  0.00000000000E+00 0. -1.
         -2   -1    0    0    0  501 -0.00000000000E+00 -0.00000000000E+00 -0.81450116667E+02  0.81450116667E+02  0.00000000000E+00 0.  1.
          5    1    1    2  502    0 -0.87434408254E+02  0.53484892264E+02  0.13191036773E+02  0.10342574775E+03  0.41800000000E+01 0. -1.
         -5    1    1    2    0  502  0.79075578588E+02 -0.63799023268E+02  0.62002845977E+02  0.11910116628E+03  0.41800000000E+01 0.  1.
        -11    1    1    2    0    0 -0.41388988756E+01  0.13928674790E+02  0.21446712970E+01  0.14688025064E+02  0.00000000000E+00 0. -1.
         11    1    1    2    0    0  0.12497728542E+02 -0.36145437857E+01  0.26475284434E+02  0.29499132722E+02  0.00000000000E+00 0.  1.
</event>
<event>
 7    1  0.5109948E-006  0.2243485E+03  0.7561462E-02  0.1130682E+00
         -1   -1    0    0    0  501 -0.00000000000E+00  0.00000000000E+00  0.10047501917E+04  0.10047501917E+04  0.00000000000E+00 0.  1.
          1   -1    0    0  501    0  0.00000000000E+00 -0.00000000000E+00 -0.79831317961E+02  0.79831317961E+02  0.00000000000E+00 0. -1.
         23    2    1    2    0    0 -0.76733032883E+02 -0.18001660125E+03  0.80141491311E+03  0.83439363244E+03  0.12511169350E+03 0.  0.
          5    1    3    3  502    0 -0.27782199647E+01  0.18662369324E+02  0.49032168471E+02  0.52703211286E+02  0.41800000000E+01 0.  1.
         -5    1    3    3    0  502 -0.73954812918E+02 -0.19867897057E+03  0.75238274463E+03  0.78169042115E+03  0.41800000000E+01 0.  1.
        -11    1    1    2    0    0 -0.21027207439E+02  0.16118936686E+02  0.11266385414E+02  0.28790536863E+02  0.00000000000E+00 0. -1.
         11    1    1    2    0    0  0.97760240322E+02  0.16389766456E+03  0.11223757526E+03  0.22139734040E+03  0.00000000000E+00 0.  1.
</event>
<event>
 7    1  0.5109948E-006  0.8758448E+02  0.7561462E-02  0.1308809E+00
         -1   -1    0    0    0  501 -0.00000000000E+00  0.00000000000E+00  0.49142302654E+03  0.49142302654E+03  0.00000000000E+00 0. -1.
          1   -1    0    0  501    0  0.00000000000E+00 -0.00000000000E+00 -0.25210059549E+02  0.25210059549E+02  0.00000000000E+00 0.  1.
         23    2    1    2    0    0 -0.25335668854E+02  0.98777194989E+01  0.27609733086E+03  0.30433149522E+03  0.12509379449E+03 0.  0.
          5    1    3    3  502    0 -0.45563988006E+02 -0.34603888932E+02  0.22992322656E+03  0.23697187310E+03  0.41800000000E+01 0. -1.
         -5    1    3    3    0  502  0.20228319151E+02  0.44481608431E+02  0.46174104301E+02  0.67359622121E+02  0.41800000000E+01 0. -1.
        -11    1    1    2    0    0  0.31122110389E+02  0.20869343997E+02  0.17223855876E+03  0.17626751373E+03  0.00000000000E+00 0. -1.
         11    1    1    2    0    0 -0.57864415351E+01 -0.30747063496E+02  0.17877077371E+02  0.36034077130E+02  0.00000000000E+00 0.  1.
</event>
<event>
 7    1  0.5109948E-006  0.1016964E+03  0.7561462E-02  0.1276769E+00
         -1   -1    0    0    0  501 -0.00000000000E+00  0.00000000000E+00  0.45345142461E+02  0.45345142461E+02  0.00000000000E+00 0.  1.
          1   -1    0    0  501    0  0.00000000000E+00 -0.00000000000E+00 -0.45513779195E+03  0.45513779195E+03  0.00000000000E+00 0. -1.
         23    2    1    2    0    0  0.19830512432E+02 -0.91219469219E+02 -0.20800259129E+03  0.26005013976E+03  0.12508699540E+03 0.  0.
          5    1    3    3  502    0 -0.14355883394E+02 -0.36141357535E+01  0.12805102315E+02  0.20014904710E+02  0.41800000000E+01 0. -1.
         -5    1    3    3    0  502  0.34186395827E+02 -0.87605333466E+02 -0.22080769360E+03  0.24003523505E+03  0.41800000000E+01 0. -1.
        -11    1    1    2    0    0 -0.31060140499E+01  0.37180602758E+02 -0.74752590023E+01  0.38051597101E+02  0.00000000000E+00 0.  1.
         11    1    1    2    0    0 -0.16724498383E+02  0.54038866461E+02 -0.19431479920E+03  0.20238119755E+03  0.00000000000E+00 0. -1.
</event>
<event>
 7    1  0.5109948E-006  0.1145626E+03  0.7561462E-02  0.1252347E+00
         -2   -1    0    0    0  501 -0.00000000000E+00  0.00000000000E+00  0.12453489200E+02  0.12453489200E+02  0.00000000000E+00 0.  1.
          2   -1    0    0  501    0  0.00000000000E+00 -0.00000000000E+00 -0.14197913899E+04  0.14197913899E+04  0.00000000000E+00 0. -1.
         23    2    1    2    0    0 -0.61112455316E+02 -0.39078853589E+02 -0.91496151992E+03  0.92631726554E+03  0.12508878652E+03 0.  0.
          5    1    3    3  502    0  0.13874793190E+02 -0.43769041862E+02 -0.62676821693E+03  0.62846170055E+03  0.41800000000E+01 0. -1.
         -5    1    3    3    0  502 -0.74987248506E+02  0.46901882728E+01 -0.28819330299E+03  0.29785556498E+03  0.41800000000E+01 0. -1.
        -11    1    1    2    0    0  0.69387744505E+02  0.55847191787E+02 -0.45995837016E+03  0.46850322325E+03  0.00000000000E+00 0. -1.
         11    1    1    2    0    0 -0.82752891889E+01 -0.16768338198E+02 -0.32418010600E+02  0.37424390287E+02  0.00000000000E+00 0.  1.
</event>
<event>
 7    1  0.5109948E-006  0.1295122E+03  0.7561462E-02  0.1228181E+00
          2   -1    0    0  501    0  0.00000000000E+00  0.00000000000E+00  0.26116734011E+02  0.26116734011E+02  0.00000000000E+00 0.  1.
         -2   -1    0    0    0  501 -0.00000000000E+00 -0.00000000000E+00 -0.91912334541E+03  0.91912334541E+03  0.00000000000E+00 0. -1.
         23    2    1    2    0    0 -0.46519567888E+02 -0.61611655509E+02 -0.71440577193E+03  0.72937177969E+03  0.12509004661E+03 0.  0.
          5    1    3    3  502    0  0.37393802038E+02 -0.48866760686E+02 -0.27614845588E+03  0.28295176058E+03  0.41800000000E+01 0. -1.
         -5    1    3    3    0  502 -0.83913369926E+02 -0.12744894823E+02 -0.43825731604E+03  0.44642001911E+03  0.41800000000E+01 0. -1.
        -11    1    1    2    0    0  0.53808972888E+02  0.77812951786E+02 -0.17310781837E+03  0.19727285117E+03  0.00000000000E+00 0.  1.
         11    1    1    2    0    0 -0.72894049998E+01 -0.16201296277E+02 -0.54930211095E+01  0.18595448562E+02  0.00000000000E+00 0. -1.
</event>
<event>
 7    1  0.5109948E-006  0.1736785E+03  0.7561462E-02  0.1174065E+00
          1   -1    0    0  501    0  0.00000000000E+00  0.00000000000E+00  0.27074361038E+03  0.27074361038E+03  0.00000000000E+00 0. -1.
         -1   -1    0    0    0  501 -0.00000000000E+00 -0.00000000000E+00 -0.13178520835E+03  0.13178520835E+03  0.00000000000E+00 0.  1.
         23    2    1    2    0    0  0.75712528665E+02 -0.13312656921E+03  0.46010890743E+02  0.20302595938E+03  0.12508983848E+03 0.  0.
          5    1    3    3  502    0  0.10569406528E+03 -0.12279850106E+03  0.23169174746E+02  0.16372229646E+03  0.41800000000E+01 0.  1.
         -5    1    3    3    0  502 -0.29981536617E+02 -0.10328068146E+02  0.22841715998E+02  0.39303662924E+02  0.41800000000E+01 0.  1.
        -11    1    1    2    0    0 -0.66637858552E+02  0.11235635912E+03  0.32023752525E+02  0.13449935447E+03  0.00000000000E+00 0.  1.
         11    1    1    2    0    0 -0.90746701131E+01  0.20770210087E+02  0.60923758761E+02  0.65003504877E+02  0.00000000000E+00 0. -1.
</event>
<event>
 7    1  0.5109948E-006  0.1083135E+03  0.7561462E-02  0.1263725E+00
         -2   -1    0    0    0  501 -0.00000000000E+00  0.00000000000E+00  0.66672354427E+02  0.66672354427E+02  0.00000000000E+00 0.  1.
          2   -1    0    0  501    0  0.00000000000E+00 -0.00000000000E+00 -0.27941308993E+03  0.27941308993E+03  0.00000000000E+00 0. -1.
         23    2    1    2    0    0 -0.77606245139E+00 -0.47672875681E+02 -0.31643722302E+02  0.13746731173E+03  0.12499052478E+03 0.  0.
          5    1    3    3  502    0  0.43355011836E+02  0.11499494149E+02  0.17892386971E+02  0.48471696159E+02  0.41800000000E+01 0. -1.
         -5    1    3    3    0  502 -0.44131074288E+02 -0.59172369830E+02 -0.49536109273E+02  0.88995615571E+02  0.41800000000E+01 0. -1.
        -11    1    1    2    0    0 -0.17434070894E+02 -0.20597990041E+02 -0.23027672579E+02  0.35475311501E+02  0.00000000000E+00 0. -1.
         11    1    1    2    0    0  0.18210133346E+02  0.68270865723E+02 -0.15806934063E+03  0.17314282113E+03  0.00000000000E+00 0.  1.
</event>
<event>
 7    1  0.6691100E-006  0.2286806E+03  0.7561462E-02  0.1127572E+00
         -2   -1    0    0    0  501 -0.00000000000E+00  0.00000000000E+00  0.50911230243E+02  0.50911230243E+02  0.00000000000E+00 0.  1.
          2   -1    0    0  501    0  0.00000000000E+00 -0.00000000000E+00 -0.10635287169E+04  0.10635287169E+04  0.00000000000E+00 0. -1.
         23    2    1    2    0    0  0.10087999732E+03  0.17698989542E+03 -0.46390325190E+03  0.52187714547E+03  0.12508929171E+03 0.  0.
          5    1    3    3  502    0 -0.26680100882E+02  0.11219004737E+02 -0.69999277804E+02  0.75862145656E+02  0.41800000000E+01 0. -1.
         -5    1    3    3    0  502  0.12756009821E+03  0.16577089068E+03 -0.39390397409E+03  0.44601499981E+03  0.41800000000E+01 0. -1.
        -11    1    1    2    0    0 -0.58890019901E+02 -0.30105699071E+02 -0.22665294525E+03  0.23610579228E+03  0.00000000000E+00 0. -1.
         11    1    1    2    0    0 -0.41989977423E+02 -0.14688419635E+03 -0.32206128952E+03  0.35645700940E+03  0.00000000000E+00 0.  1.
</event>
<event>
 7    1  0.5109948E-006  0.1199665E+03  0.7561462E-02  0.1243152E+00
         -1   -1    0    0    0  501 -0.00000000000E+00  0.00000000000E+00  0.55394144575E+02  0.55394144575E+02  0.00000000000E+00 0.  1.
          1   -1    0    0  501    0  0.00000000000E+00 -0.00000000000E+00 -0.33174426512E+03  0.33174426512E+03  0.00000000000E+00 0. -1.
         23    2    1    2    0    0 -0.72794794624E+02 -0.11794292360E+02 -0.10164461603E+03  0.17725036403E+03  0.12509147103E+03 0.  0.
          5    1    3    3  502    0 -0.54339577544E+02  0.44483938261E+02 -0.93964416750E+02  0.11738140596E+03  0.41800000000E+01 0. -1.
         -5    1    3    3    0  502 -0.18455217080E+02 -0.56278230620E+02 -0.76801992777E+01  0.59868958068E+02  0.41800000000E+01 0. -1.
        -11    1    1    2    0    0  0.25446580566E+02 -0.35241999622E+02 -0.10369131077E+03  0.11243404702E+03  0.00000000000E+00 0.  1.
         11    1    1    2    0    0  0.47348214058E+02  0.47036291982E+02 -0.71014193740E+02  0.97453998637E+02  0.00000000000E+00 0. -1.
</event>
<event>
 7    1  0.5109948E-006  0.1101442E+03  0.7561462E-02  0.1260303E+00
         -1   -1    0    0    0  501 -0.00000000000E+00  0.00000000000E+00  0.68016545308E+02  0.68016545308E+02  0.00000000000E+00 0.  1.
          1   -1    0    0  501    0  0.00000000000E+00 -0.00000000000E+00 -0.22000797321E+03  0.22000797321E+03  0.00000000000E+00 0. -1.
         23    2    1    2    0    0  0.56390483472E+02  0.28087206710E+01 -0.72311552178E+02  0.15512554441E+03  0.12508876213E+03 0.  0.
          5    1    3    3  502    0  0.10871322700E+02 -0.58492267881E+02 -0.41627842531E+02  0.72731566275E+02  0.41800000000E+01 0. -1.
         -5    1    3    3    0  502  0.45519160772E+02  0.61300988552E+02 -0.30683709647E+02  0.82393978132E+02  0.41800000000E+01 0. -1.
        -11    1    1    2    0    0  0.13040464401E+02 -0.66596735720E+01  0.11223024440E+02  0.18448881848E+02  0.00000000000E+00 0.  1.
         11    1    1    2    0    0 -0.69430947873E+02  0.38509529010E+01 -0.90902900169E+02  0.11445009227E+03  0.00000000000E+00 0. -1.
</event>
<event>
 7    1  0.5109948E-006  0.1377875E+03  0.7561462E-02  0.1216337E+00
          1   -1    0    0  501    0  0.00000000000E+00  0.00000000000E+00  0.10337790925E+04  0.10337790925E+04  0.00000000000E+00 0. -1.
         -1   -1    0    0    0  501 -0.00000000000E+00 -0.00000000000E+00 -0.20018258093E+02  0.20018258093E+02  0.00000000000E+00 0.  1.
         23    2    1    2    0    0  0.94718666574E+02 -0.37475484722E+01  0.56863554433E+03  0.58989766095E+03  0.12508876128E+03 0.  0.
          5    1    3    3  502    0  0.11475974044E+03 -0.31511289699E+02  0.38302834688E+03  0.40111213684E+03  0.41800000000E+01 0.  1.
         -5    1    3    3    0  502 -0.20041073866E+02  0.27763741227E+02  0.18560719745E+03  0.18878552411E+03  0.41800000000E+01 0.  1.
        -11    1    1    2    0    0 -0.15567270226E+02  0.33896015179E+02  0.69852913002E+02  0.79187809682E+02  0.00000000000E+00 0.  1.
         11    1    1    2    0    0 -0.79151396348E+02 -0.30148466707E+02  0.37527237705E+03  0.38471187994E+03  0.00000000000E+00 0. -1.
</event>
<event>
 7    1  0.5109948E-006  0.1034690E+03  0.7561462E-02  0.1273166E+00
          1   -1    0    0  501    0  0.00000000000E+00  0.00000000000E+00  0.33268852404E+03  0.33268852404E+03  0.00000000000E+00 0. -1.
         -1   -1    0    0    0  501 -0.00000000000E+00 -0.00000000000E+00 -0.41694804946E+02  0.41694804946E+02  0.00000000000E+00 0.  1.
         23    2    1    2    0    0  0.78672402291E+01 -0.36295589755E+02  0.11312812781E+03  0.17268905903E+03  0.12507707424E+03 0.  0.
          5    1    3    3  502    0  0.66221624433E+02 -0.18935458559E+02  0.67135619179E+02  0.96273147325E+02  0.41800000000E+01 0.  1.
         -5    1    3    3    0  502 -0.58354384204E+02 -0.17360131196E+02  0.45992508634E+02  0.76415911703E+02  0.41800000000E+01 0.  1.
        -11    1    1    2    0    0 -0.12225669291E+02  0.55698282859E+02  0.62410025064E+02  0.84538612075E+02  0.00000000000E+00 0.  1.
         11    1    1    2    0    0  0.43584290622E+01 -0.19402693104E+02  0.11545556621E+03  0.11715565788E+03  0.00000000000E+00 0. -1.
</event>
<event>
 7    1  0.5109948E-006  0.1121642E+03  0.7561462E-02  0.1256614E+00
         -4   -1    0    0    0  501 -0.00000000000E+00  0.00000000000E+00  0.97445991244E+02  0.97445991244E+02  0.00000000000E+00 0.  1.
          4   -1    0    0  501    0  0.00000000000E+00 -0.00000000000E+00 -0.13778981931E+03  0.13778981931E+03  0.00000000000E+00 0. -1.
         23    2    1    2    0    0 -0.35583950113E+02  0.82646198507E+01 -0.14529357641E+01  0.13031785425E+03  0.12508441416E+03 0.  0.
          5    1    3    3  502    0 -0.31467771107E+01  0.63042634430E+02  0.13741672135E+02  0.64734704101E+02  0.41800000000E+01 0. -1.
         -5    1    3    3    0  502 -0.32437173003E+02 -0.54778014579E+02 -0.15194607899E+02  0.65583150144E+02  0.41800000000E+01 0. -1.
        -11    1    1    2    0    0 -0.23644406635E+02  0.20621311944E+02 -0.15493238859E+02  0.34990526171E+02  0.00000000000E+00 0.  1.
         11    1    1    2    0    0  0.59228356748E+02 -0.28885931795E+02 -0.23397653441E+02  0.69927430135E+02  0.00000000000E+00 0. -1.
</event>
<event>
 7    1  0.5109948E-006  0.1379844E+03  0.7561462E-02  0.1216067E+00
          1   -1    0    0  501    0  0.00000000000E+00  0.00000000000E+00  0.10864883248E+04  0.10864883248E+04  0.00000000000E+00 0. -1.
         -1   -1    0    0    0  501 -0.00000000000E+00 -0.00000000000E+00 -0.26456231505E+02  0.26456231505E+02  0.00000000000E+00 0.  1.
         23    2    1    2    0    0 -0.60191762719E+02  0.10470031833E+03  0.40686215896E+03  0.44245904077E+03  0.12509189184E+03 0.  0.
          5    1    3    3  502    0 -0.50757256762E+00  0.41487958459E+02  0.30771850007E+03  0.31053124805E+03  0.41800000000E+01 0.  1.
         -5    1    3    3    0  502 -0.59684190151E+02  0.63212359871E+02  0.99143658891E+02  0.13192779272E+03  0.41800000000E+01 0.  1.
        -11    1    1    2    0    0  0.76482701956E+02 -0.10619603934E+03  0.61788659590E+03  0.63159405306E+03  0.00000000000E+00 0. -1.
         11    1    1    2    0    0 -0.16290939238E+02  0.14957210128E+01  0.35283338461E+02  0.38891462502E+02  0.00000000000E+00 0.  1.
</event>
<event>
 7    1  0.5109948E-006  0.1676656E+03  0.7561462E-02  0.1180304E+00
          1   -1    0    0  501    0  0.00000000000E+00  0.00000000000E+00  0.14640405010E+03  0.14640405010E+03  0.00000000000E+00 0. -1.
         -1   -1    0    0    0  501 -0.00000000000E+00 -0.00000000000E+00 -0.29255761913E+03  0.29255761913E+03  0.00000000000E+00 0.  1.
         23    2    1    2    0    0  0.10637570099E+03  0.11805601957E+03 -0.15508568007E+03  0.25485620880E+03  0.12508839068E+03 0.  0.
          5    1    3    3  502    0  0.60666391245E+01 -0.94752978876E+01 -0.71102317886E+02  0.72108233850E+02  0.41800000000E+01 0. -1.
         -5    1    3    3    0  502  0.10030906186E+03  0.12753131746E+03 -0.83983362184E+02  0.18274797495E+03  0.41800000000E+01 0. -1.
        -11    1    1    2    0    0 -0.50967058005E+02 -0.75787459544E+02  0.49074388579E+02  0.10368064255E+03  0.00000000000E+00 0. -1.
         11    1    1    2    0    0 -0.55408642984E+02 -0.42268560025E+02 -0.40142277544E+02  0.80424817876E+02  0.00000000000E+00 0.  1.
</event>
<event>
 7    1  0.5109948E-006  0.9867451E+02  0.7561462E-02  0.1283108E+00
         -2   -1    0    0    0  501 -0.00000000000E+00  0.00000000000E+00  0.50551485861E+02  0.50551485861E+02  0.00000000000E+00 0. -1.
          2   -1    0    0  501    0  0.00000000000E+00 -0.00000000000E+00 -0.33306431308E+03  0.33306431308E+03  0.00000000000E+00 0.  1.
         23    2    1    2    0    0 -0.66904186157E+02  0.11317646123E+02 -0.12633225356E+03  0.19029263006E+03  0.12508871863E+03 0.  0.
          5    1    3    3  502    0 -0.66874097595E+02 -0.31852787530E+02 -0.12680924388E+03  0.14691766993E+03  0.41800000000E+01 0.  1.
         -5    1    3    3    0  502 -0.30088562806E-01  0.43170433653E+02  0.47699032477E+00  0.43374960137E+02  0.41800000000E+01 0.  1.
        -11    1    1    2    0    0  0.39421408857E+02  0.14572971557E+02 -0.11184333212E+02  0.43491473712E+02  0.00000000000E+00 0. -1.
         11    1    1    2    0    0  0.27482777300E+02 -0.25890617680E+02 -0.14499624045E+03  0.14983169517E+03  0.00000000000E+00 0.  1.
</event>
<event>
 7    1  0.5109948E-006  0.1650248E+03  0.7561462E-02  0.1183138E+00
          2   -1    0    0  501    0  0.00000000000E+00  0.00000000000E+00  0.29577593019E+03  0.29577593019E+03  0.00000000000E+00 0. -1.
         -2   -1    0    0    0  501 -0.00000000000E+00 -0.00000000000E+00 -0.21430162248E+03  0.21430162248E+03  0.00000000000E+00 0.  1.
         23    2    1    2    0    0 -0.11816669855E+03 -0.45242146094E+02 -0.14938565162E+03  0.23232382658E+03  0.12509223420E+03 0.  0.
          5    1    3    3  502    0  0.13325770496E+02 -0.42065984144E+02 -0.53629849262E+02  0.69575543930E+02  0.41800000000E+01 0.  1.
         -5    1    3    3    0  502 -0.13149246904E+03 -0.31761619500E+01 -0.95755802358E+02  0.16274828265E+03  0.41800000000E+01 0.  1.
        -11    1    1    2    0    0  0.12691545495E+03  0.21367583959E+02  0.18594341251E+03  0.22613946804E+03  0.00000000000E+00 0.  1.
         11    1    1    2    0    0 -0.87487564006E+01  0.23874562135E+02  0.44916546818E+02  0.51614258047E+02  0.00000000000E+00 0. -1.
</event>
<event>
 7    1  0.5109948E-006  0.3121069E+03  0.7561462E-02  0.1079340E+00
          2   -1    0    0  501    0  0.00000000000E+00  0.00000000000E+00  0.69779539917E+03  0.69779539917E+03  0.00000000000E+00 0. -1.
         -2   -1    0    0    0  501 -0.00000000000E+00 -0.00000000000E+00 -0.14381563966E+03  0.14381563966E+03  0.00000000000E+00 0.  1.
         23    2    1    2    0    0 -0.20489460308E+03 -0.21258779755E+03  0.32802120851E+03  0.45871641618E+03  0.12508983653E+03 0.  0.
          5    1    3    3  502    0 -0.15189835997E+03 -0.21946300616E+03  0.26838300626E+03  0.37852877471E+03  0.41800000000E+01 0. -1.
         -5    1    3    3    0  502 -0.52996243115E+02  0.68752086070E+01  0.59638202246E+02  0.80187641472E+02  0.41800000000E+01 0. -1.
        -11    1    1    2    0    0  0.91088504883E+02  0.46322846274E+02  0.43467114620E+02  0.11105094264E+03  0.00000000000E+00 0.  1.
         11    1    1    2    0    0  0.11380609820E+03  0.16626495127E+03  0.18249143638E+03  0.27184368001E+03  0.00000000000E+00 0. -1.
</event>
<event>
 7    1  0.5109948E-006  0.1197437E+03  0.7561462E-02  0.1243520E+00
          2   -1    0    0  501    0  0.00000000000E+00  0.00000000000E+00  0.46634566016E+03  0.46634566016E+03  0.00000000000E+00 0. -1.
         -2   -1    0    0    0  501 -0.00000000000E+00 -0.00000000000E+00 -0.39893899698E+02  0.39893899698E+02  0.00000000000E+00 0.  1.
         23    2    1    2    0    0 -0.47224930973E+01  0.71933690014E+02  0.26229369946E+03  0.29940476712E+03  0.12509385315E+03 0.  0.
          5    1    3    3  502    0  0.57433737086E+02  0.51356564709E+02  0.16376056843E+03  0.18102797316E+03  0.41800000000E+01 0. -1.
         -5    1    3    3    0  502 -0.62156230183E+02  0.20577125305E+02  0.98533131036E+02  0.11837679396E+03  0.41800000000E+01 0. -1.
        -11    1    1    2    0    0  0.32585846344E+02 -0.55537016255E+02  0.34188151772E+02  0.72904233609E+02  0.00000000000E+00 0.  1.
         11    1    1    2    0    0 -0.27863353247E+02 -0.16396673759E+02  0.12996990922E+03  0.13393055913E+03  0.00000000000E+00 0. -1.
</event>
<event>
 7    1  0.5109948E-006  0.1290674E+03  0.7561462E-02  0.1228846E+00
          2   -1    0    0  501    0  0.00000000000E+00  0.00000000000E+00  0.10873530002E+03  0.10873530002E+03  0.00000000000E+00 0. -1.
         -2   -1    0    0    0  501 -0.00000000000E+00 -0.00000000000E+00 -0.24111280451E+03  0.24111280451E+03  0.00000000000E+00 0.  1.
         23    2    1    2    0    0 -0.34190254984E+02  0.10797867529E+03 -0.11278770335E+03  0.20296906544E+03  0.12508799961E+03 0.  0.
          5    1    3    3  502    0 -0.13393865831E+02  0.34616935513E+02  0.25339793675E+02  0.45136519690E+02  0.41800000000E+01 0. -1.
         -5    1    3    3    0  502 -0.20796389153E+02  0.73361739773E+02 -0.13812749702E+03  0.15783254575E+03  0.41800000000E+01 0. -1.
        -11    1    1    2    0    0  0.65042663436E+02 -0.72690683721E+02 -0.21818750627E+02  0.99952696040E+02  0.00000000000E+00 0.  1.
         11    1    1    2    0    0 -0.30852408452E+02 -0.35287991565E+02  0.22289494952E+01  0.46926343048E+02  0.00000000000E+00 0. -1.
</event>
<event>
 7    1  0.5109948E-006  0.7191064E+02  0.7561462E-02  0.1353714E+00
         -3   -1    0    0    0  501 -0.00000000000E+00  0.00000000000E+00  0.44452319389E+02  0.44452319389E+02  0.00000000000E+00 0.  1.
          3   -1    0    0  501    0  0.00000000000E+00 -0.00000000000E+00 -0.32471137944E+03  0.32471137944E+03  0.00000000000E+00 0. -1.
         23    2    1    2    0    0  0.49795764712E+02  0.97178557439E+01 -0.16965465907E+03  0.21680984657E+03  0.12509896610E+03 0.  0.
          5    1    3    3  502    0  0.46914201009E+02  0.96061896337E+01 -0.18992465046E+03  0.19591341554E+03  0.41800000000E+01 0. -1.
         -5    1    3    3    0  502  0.28815637030E+01  0.11166611015E+00  0.20269991389E+02  0.20896431026E+02  0.41800000000E+01 0. -1.
        -11    1    1    2    0    0 -0.67604884286E+02  0.46879573639E+01 -0.41296187913E+02  0.79358505906E+02  0.00000000000E+00 0.  1.
         11    1    1    2    0    0  0.17809119573E+02 -0.14405813108E+02 -0.69308213064E+02  0.72995346354E+02  0.00000000000E+00 0. -1.
</event>
<event>
 7    1  0.5109948E-006  0.8767704E+02  0.7561462E-02  0.1308577E+00
         -1   -1    0    0    0  501 -0.00000000000E+00  0.00000000000E+00  0.13259637255E+03  0.13259637255E+03  0.00000000000E+00 0.  1.
          1   -1    0    0  501    0  0.00000000000E+00 -0.00000000000E+00 -0.11771748689E+03  0.11771748689E+03  0.00000000000E+00 0. -1.
         23    2    1    2    0    0  0.27803215468E+02 -0.41455170353E+02 -0.23012572873E+02  0.13663390452E+03  0.12509074872E+03 0.  0.
          5    1    3    3  502    0  0.74890810658E+01  0.35561471467E+02  0.24281343115E+02  0.43906270755E+02  0.41800000000E+01 0. -1.
         -5    1    3    3    0  502  0.20314134402E+02 -0.77016641820E+02 -0.47293915988E+02  0.92727633763E+02  0.41800000000E+01 0. -1.
        -11    1    1    2    0    0 -0.12334695671E+02  0.41757577172E+02 -0.24114481637E+02  0.49772966489E+02  0.00000000000E+00 0. -1.
         11    1    1    2    0    0 -0.15468519798E+02 -0.30240681827E+00  0.62005940166E+02  0.63906988433E+02  0.00000000000E+00 0.  1.
</event>
<event>
 7    1  0.5109948E-006  0.1348871E+03  0.7561462E-02  0.1220379E+00
          1   -1    0    0  501    0  0.00000000000E+00  0.00000000000E+00  0.54249107869E+02  0.54249107869E+02  0.00000000000E+00 0. -1.
         -1   -1    0    0    0  501 -0.00000000000E+00 -0.00000000000E+00 -0.57301321827E+03  0.57301321827E+03  0.00000000000E+00 0.  1.
         23    2    1    2    0    0  0.68746468399E+01 -0.90023333197E+02 -0.46439688528E+03  0.48934922353E+03  0.12508690668E+03 0.  0.
          5    1    3    3  502    0  0.59792304645E+02 -0.58540161270E+02 -0.34399759401E+03  0.35405350903E+03  0.41800000000E+01 0. -1.
         -5    1    3    3    0  502 -0.52917657806E+02 -0.31483171927E+02 -0.12039929128E+03  0.13529571450E+03  0.41800000000E+01 0. -1.
        -11    1    1    2    0    0  0.37910170470E+02  0.25334113023E+02 -0.71495080784E+01  0.46153155618E+02  0.00000000000E+00 0.  1.
         11    1    1    2    0    0 -0.44784817310E+02  0.64689220174E+02 -0.47217717035E+02  0.91759946983E+02  0.00000000000E+00 0. -1.
</event>
<event>
 7    1  0.5109948E-006  0.3399617E+03  0.7561462E-02  0.1066812E+00
         -2   -1    0    0    0  501 -0.00000000000E+00  0.00000000000E+00  0.21739712748E+03  0.21739712748E+03  0.00000000000E+00 0.  1.
          2   -1    0    0  501    0  0.00000000000E+00 -0.00000000000E+00 -0.59720300752E+03  0.59720300752E+03  0.00000000000E+00 0. -1.
         23    2    1    2    0    0 -0.24441061240E+03  0.23074071595E+03 -0.11306542674E+03  0.37604532970E+03  0.12509386003E+03 0.  0.
          5    1    3    3  502    0 -0.19977706412E+03  0.22096345964E+03 -0.13270677126E+03  0.32613537892E+03  0.41800000000E+01 0. -1.
         -5    1    3    3    0  502 -0.44633548276E+02  0.97772563104E+01  0.19641344517E+02  0.49909950782E+02  0.41800000000E+01 0. -1.
        -11    1    1    2    0    0  0.13746882640E+03 -0.12862542684E+03 -0.20496678761E+03  0.27830480176E+03  0.00000000000E+00 0. -1.
         11    1    1    2    0    0  0.10694178600E+03 -0.10211528911E+03 -0.61773665686E+02  0.16025000354E+03  0.00000000000E+00 0.  1.
</event>
<event>
 7    1  0.5109948E-006  0.1039977E+03  0.7561462E-02  0.1272107E+00
          1   -1    0    0  501    0  0.00000000000E+00  0.00000000000E+00  0.37182797755E+02  0.37182797755E+02  0.00000000000E+00 0. -1.
         -1   -1    0    0    0  501 -0.00000000000E+00 -0.00000000000E+00 -0.10619800711E+04  0.10619800711E+04  0.00000000000E+00 0.  1.
         23    2    1    2    0    0  0.93410041892E+01 -0.70421586486E+01 -0.99147865427E+03  0.99857723771E+03  0.11827819511E+03 0.  0.
          5    1    3    3  502    0  0.15524861040E+02  0.53975430187E+02 -0.40784929032E+03  0.41171942435E+03  0.41800000000E+01 0. -1.
         -5    1    3    3    0  502 -0.61838568504E+01 -0.61017588836E+02 -0.58362936394E+03  0.58685781335E+03  0.41800000000E+01 0.  1.
        -11    1    1    2    0    0 -0.36716602125E+02  0.35248093456E+02 -0.34111853500E+02  0.61271163797E+02  0.00000000000E+00 0.  1.
         11    1    1    2    0    0  0.27375597935E+02 -0.28205934807E+02  0.79323444360E+00  0.39314467331E+02  0.00000000000E+00 0. -1.
</event>
<event>
 7    1  0.5109948E-006  0.1362586E+03  0.7561462E-02  0.1218454E+00
         -1   -1    0    0    0  501 -0.00000000000E+00  0.00000000000E+00  0.35549687829E+02  0.35549687829E+02  0.00000000000E+00 0.  1.
          1   -1    0    0  501    0  0.00000000000E+00 -0.00000000000E+00 -0.71895279806E+03  0.71895279806E+03  0.00000000000E+00 0. -1.
         23    2    1    2    0    0  0.59991486050E+02  0.94293978297E+02 -0.28470751512E+03  0.33044761925E+03  0.12508767789E+03 0.  0.
          5    1    3    3  502    0  0.64907599040E+02  0.12766309925E+02 -0.53430728322E+02  0.85136891013E+02  0.41800000000E+01 0. -1.
         -5    1    3    3    0  502 -0.49161129902E+01  0.81527668372E+02 -0.23127678680E+03  0.24531072824E+03  0.41800000000E+01 0. -1.
        -11    1    1    2    0    0 -0.33910790105E+02 -0.92256476241E+02 -0.37836468729E+03  0.39092331176E+03  0.00000000000E+00 0.  1.
         11    1    1    2    0    0 -0.26080695945E+02 -0.20375020560E+01 -0.20330907829E+02  0.33131554880E+02  0.00000000000E+00 0. -1.
</event>
<event>
 7    1  0.5109948E-006  0.6360847E+02  0.7561462E-02  0.1383284E+00
          2   -1    0    0  501    0  0.00000000000E+00  0.00000000000E+00  0.24656148004E+03  0.24656148004E+03  0.00000000000E+00 0. -1.
         -2   -1    0    0    0  501 -0.00000000000E+00 -0.00000000000E+00 -0.75851679776E+02  0.75851679776E+02  0.00000000000E+00 0.  1.
         23    2    1    2    0    0 -0.52500931655E+02  0.10910837686E+02  0.18382895363E+02  0.13733455674E+03  0.12508978947E+03 0.  0.
          5    1    3    3  502    0 -0.52493878897E+02  0.76243421049E+01  0.68611120510E+02  0.86825665398E+02  0.41800000000E+01 0.  1.
         -5    1    3    3    0  502 -0.70527581767E-02  0.32864955814E+01 -0.50228225147E+02  0.50508891340E+02  0.41800000000E+01 0.  1.
        -11    1    1    2    0    0  0.24251860005E+02 -0.26909784107E+02  0.79381812620E+01  0.37085090213E+02  0.00000000000E+00 0.  1.
         11    1    1    2    0    0  0.28249071650E+02  0.15998946421E+02  0.14438872364E+03  0.14799351286E+03  0.00000000000E+00 0. -1.
</event>
<event>
 7    1  0.5109948E-006  0.1016440E+03  0.7561462E-02  0.1276876E+00
          2   -1    0    0  501    0  0.00000000000E+00  0.00000000000E+00  0.46372670219E+03  0.46372670219E+03  0.00000000000E+00 0. -1.
         -2   -1    0    0    0  501 -0.00000000000E+00 -0.00000000000E+00 -0.37520423013E+02  0.37520423013E+02  0.00000000000E+00 0.  1.
         23    2    1    2    0    0  0.34863724327E+02  0.83287851756E+01  0.89846199635E+02  0.15056659317E+03  0.11538245730E+03 0.  0.
          5    1    3    3  502    0 -0.39364429130E+02 -0.34891043324E+01  0.54375958897E+02  0.67349457576E+02  0.41800000000E+01 0. -1.
         -5    1    3    3    0  502  0.74228153457E+02  0.11817889508E+02  0.35470240738E+02  0.83217135592E+02  0.41800000000E+01 0.  1.
        -11    1    1    2    0    0 -0.25378948663E+02 -0.44307767041E+02  0.26828083467E+03  0.27309682441E+03  0.00000000000E+00 0. -1.
         11    1    1    2    0    0 -0.94847756645E+01  0.35978981865E+02  0.68079244875E+02  0.77583707620E+02  0.00000000000E+00 0.  1.
</event>
<event>
 7    1  0.5109948E-006  0.1020349E+03  0.7561462E-02  0.1276074E+00
         -2   -1    0    0    0  501 -0.00000000000E+00  0.00000000000E+00  0.13986642096E+03  0.13986642096E+03  0.00000000000E+00 0.  1.
          2   -1    0    0  501    0  0.00000000000E+00 -0.00000000000E+00 -0.12600873286E+03  0.12600873286E+03  0.00000000000E+00 0. -1.
         23    2    1    2    0    0  0.61187814742E+02  0.28755331340E+02  0.39444842494E+02  0.14756036848E+03  0.12508936403E+03 0.  0.
          5    1    3    3  502    0  0.64305318774E+02  0.69674103714E+02  0.46543348540E+02  0.10570435395E+03  0.41800000000E+01 0. -1.
         -5    1    3    3    0  502 -0.31175040315E+01 -0.40918772374E+02 -0.70985060463E+01  0.41856014527E+02  0.41800000000E+01 0. -1.
        -11    1    1    2    0    0 -0.25909939068E+02 -0.15715266864E+02  0.35439691653E+02  0.46629028507E+02  0.00000000000E+00 0.  1.
         11    1    1    2    0    0 -0.35277875675E+02 -0.13040064476E+02 -0.61026846051E+02  0.71685756832E+02  0.00000000000E+00 0. -1.
</event>
<event>
 7    1  0.5109948E-006  0.1571622E+03  0.7561462E-02  0.1191938E+00
         -3   -1    0    0    0  501 -0.00000000000E+00  0.00000000000E+00  0.28786396492E+03  0.28786396492E+03  0.00000000000E+00 0.  1.
          3   -1    0    0  501    0  0.00000000000E+00 -0.00000000000E+00 -0.99376414918E+02  0.99376414918E+02  0.00000000000E+00 0. -1.
         23    2    1    2    0    0 -0.12378421847E+03 -0.19047205967E+02  0.12880904461E+03  0.21891633993E+03  0.12508902876E+03 0.  0.
          5    1    3    3  502    0 -0.14843823205E+03 -0.16205997533E+02  0.12193751407E+03  0.19282835069E+03  0.41800000000E+01 0.  1.
         -5    1    3    3    0  502  0.24654013577E+02 -0.28412084341E+01  0.68715305386E+01  0.26087989243E+02  0.41800000000E+01 0.  1.
        -11    1    1    2    0    0  0.66251936296E+02  0.41325275678E+02  0.71072183202E+02  0.10558575992E+03  0.00000000000E+00 0.  1.
         11    1    1    2    0    0  0.57532282175E+02 -0.22278069711E+02 -0.11393677810E+02  0.62738279993E+02  0.00000000000E+00 0. -1.
</event>
<event>
 7    1  0.5109948E-006  0.1116168E+03  0.7561462E-02  0.1257605E+00
         -2   -1    0    0    0  501 -0.00000000000E+00  0.00000000000E+00  0.20421522180E+02  0.20421522180E+02  0.00000000000E+00 0.  1.
          2   -1    0    0  501    0  0.00000000000E+00 -0.00000000000E+00 -0.71612349994E+03  0.71612349994E+03  0.00000000000E+00 0. -1.
         23    2    1    2    0    0 -0.37831111181E+02  0.26107137644E+02 -0.31099080431E+03  0.33834158809E+03  0.12508786616E+03 0.  0.
          5    1    3    3  502    0 -0.40671889817E+02 -0.43658576364E+02 -0.18240203934E+03  0.19195898069E+03  0.41800000000E+01 0. -1.
         -5    1    3    3    0  502  0.28407786355E+01  0.69765714008E+02 -0.12858876497E+03  0.14638260740E+03  0.41800000000E+01 0. -1.
        -11    1    1    2    0    0  0.12983727456E+02 -0.54335105161E+02 -0.30490799403E+03  0.30998349256E+03  0.00000000000E+00 0. -1.
         11    1    1    2    0    0  0.24847383725E+02  0.28227967517E+02 -0.79803179422E+02  0.88219941476E+02  0.00000000000E+00 0.  1.
</event>
<event>
 7    1  0.5109948E-006  0.1269340E+03  0.7561462E-02  0.1232077E+00
         -2   -1    0    0    0  501 -0.00000000000E+00  0.00000000000E+00  0.47871437571E+02  0.47871437571E+02  0.00000000000E+00 0.  1.
          2   -1    0    0  501    0  0.00000000000E+00 -0.00000000000E+00 -0.49106879466E+03  0.49106879466E+03  0.00000000000E+00 0. -1.
         23    2    1    2    0    0  0.75171007323E+02  0.15561298149E+02 -0.10764343366E+03  0.18201378283E+03  0.12509625889E+03 0.  0.
          5    1    3    3  502    0  0.10664918255E+03  0.14120465657E+02 -0.10455738701E+03  0.15007716438E+03  0.41800000000E+01 0.  1.
         -5    1    3    3    0  502 -0.31478175227E+02  0.14408324924E+01 -0.30860466414E+01  0.31936618446E+02  0.41800000000E+01 0.  1.
        -11    1    1    2    0    0 -0.99783707947E+01 -0.42665763380E+02 -0.73891915981E+02  0.85906638253E+02  0.00000000000E+00 0.  1.
         11    1    1    2    0    0 -0.65192636529E+02  0.27104465231E+02 -0.26166200745E+03  0.27101981115E+03  0.00000000000E+00 0. -1.
</event>
<event>
 7    1  0.5109948E-006  0.1298089E+03  0.7561462E-02  0.1227740E+00
          1   -1    0    0  501    0  0.00000000000E+00  0.00000000000E+00  0.39344718189E+03  0.39344718189E+03  0.00000000000E+00 0. -1.
         -1   -1    0    0    0  501 -0.00000000000E+00 -0.00000000000E+00 -0.62717083027E+02  0.62717083027E+02  0.00000000000E+00 0.  1.
         23    2    1    2    0    0 -0.38199937933E+02 -0.81605800935E+02  0.27651927324E+03  0.31658838411E+03  0.12508618820E+03 0.  0.
          5    1    3    3  502    0 -0.69568976096E+02 -0.88600694575E+01  0.16856621277E+03  0.18262087436E+03  0.41800000000E+01 0. -1.
         -5    1    3    3    0  502  0.31369038163E+02 -0.72745731478E+02  0.10795306047E+03  0.13396750975E+03  0.41800000000E+01 0. -1.
        -11    1    1    2    0    0 -0.15043798062E+02  0.39124277007E+02 -0.12997839704E+02  0.43885860461E+02  0.00000000000E+00 0.  1.
         11    1    1    2    0    0  0.53243735996E+02  0.42481523928E+02  0.67208665326E+02  0.95690020342E+02  0.00000000000E+00 0. -1.
</event>
<event>
 7    1  0.5109948E-006  0.9700407E+02  0.7561462E-02  0.1286725E+00
         -2   -1    0    0    0  501 -0.00000000000E+00  0.00000000000E+00  0.31110409227E+02  0.31110409227E+02  0.00000000000E+00 0. -1.
          2   -1    0    0  501    0  0.00000000000E+00 -0.00000000000E+00 -0.42960428267E+03  0.42960428267E+03  0.00000000000E+00 0.  1.
         23    2    1    2    0    0 -0.27913115956E+02 -0.25266615401E+01 -0.16551955613E+03  0.20935545258E+03  0.12508979175E+03 0.  0.
          5    1    3    3  502    0  0.28805748910E+02 -0.34929895121E+02 -0.19765528815E+02  0.49578395222E+02  0.41800000000E+01 0.  1.
         -5    1    3    3    0  502 -0.56718864866E+02  0.32403233581E+02 -0.14575402731E+03  0.15977705735E+03  0.41800000000E+01 0.  1.
        -11    1    1    2    0    0 -0.21421271568E+02 -0.19581660588E+02 -0.31823636357E+02  0.43070362640E+02  0.00000000000E+00 0. -1.
         11    1    1    2    0    0  0.49334387524E+02  0.22108322128E+02 -0.20115068095E+03  0.20828887668E+03  0.00000000000E+00 0.  1.
</event>
<event>
 7    1  0.5109948E-006  0.1345955E+03  0.7561462E-02  0.1220792E+00
          2   -1    0    0  501    0  0.00000000000E+00  0.00000000000E+00  0.13006966445E+03  0.13006966445E+03  0.00000000000E+00 0. -1.
         -2   -1    0    0    0  501 -0.00000000000E+00 -0.00000000000E+00 -0.20292826444E+03  0.20292826444E+03  0.00000000000E+00 0.  1.
         23    2    1    2    0    0  0.98229953862E+02 -0.66479724298E+02 -0.67933828867E+02  0.18528637062E+03  0.12508939385E+03 0.  0.
          5    1    3    3  502    0  0.45591354331E+02 -0.52627653889E+02 -0.10003715495E+03  0.12195550957E+03  0.41800000000E+01 0.  1.
         -5    1    3    3    0  502  0.52638599531E+02 -0.13852070410E+02  0.32103326084E+02  0.63330861047E+02  0.41800000000E+01 0.  1.
        -11    1    1    2    0    0 -0.12765880429E+02  0.57512428456E+02  0.12014145633E+02  0.60124760501E+02  0.00000000000E+00 0.  1.
         11    1    1    2    0    0 -0.85464073434E+02  0.89672958423E+01 -0.16938916755E+02  0.87586797769E+02  0.00000000000E+00 0. -1.
</event>
<event>
 7    1  0.5109948E-006  0.1041285E+03  0.7561462E-02  0.1271846E+00
         -3   -1    0    0    0  501 -0.00000000000E+00  0.00000000000E+00  0.28052017430E+03  0.28052017430E+03  0.00000000000E+00 0.  1.
          3   -1    0    0  501    0  0.00000000000E+00 -0.00000000000E+00 -0.46570323055E+02  0.46570323055E+02  0.00000000000E+00 0. -1.
         23    2    1    2    0    0 -0.36939586350E+02 -0.15657455028E+02  0.16828491203E+03  0.21346276542E+03  0.12504739768E+03 0.  0.
          5    1    3    3  502    0 -0.80129390618E+02  0.36206337359E+01  0.80836249608E+02  0.11395525385E+03  0.41800000000E+01 0. -1.
         -5    1    3    3    0  502  0.43189804268E+02 -0.19278088764E+02  0.87448662426E+02  0.99507511571E+02  0.41800000000E+01 0. -1.
        -11    1    1    2    0    0  0.33006237862E+02  0.42227305713E+02  0.68096508748E+02  0.86658476730E+02  0.00000000000E+00 0.  1.
         11    1    1    2    0    0  0.39333484879E+01 -0.26569850685E+02 -0.24315695372E+01  0.26969255203E+02  0.00000000000E+00 0. -1.
</event>
<event>
 6    1  0.5109948E-006  0.1829863E+03  0.7561462E-02  0.1164944E+00
         -2   -1    0    0    0  501 -0.00000000000E+00  0.00000000000E+00  0.27969121834E+03  0.27969121834E+03  0.00000000000E+00 0.  1.
          2   -1    0    0  501    0  0.00000000000E+00 -0.00000000000E+00 -0.29176695188E+03  0.29176695188E+03  0.00000000000E+00 0. -1.
          5    1    1    2  502    0 -0.93580627580E+02 -0.74949628558E+02 -0.10324198917E+03  0.15827558689E+03  0.41800000000E+01 0. -1.
         -5    1    1    2    0  502 -0.37027264763E+02 -0.49477287070E+02  0.18139029701E+03  0.19167402672E+03  0.41800000000E+01 0.  1.
        -11    1    1    2    0    0  0.48067711545E+02  0.22969801891E+02 -0.71830368183E+02  0.89429964136E+02  0.00000000000E+00 0.  1.
         11    1    1    2    0    0  0.82540180797E+02  0.10145711374E+03 -0.18393673200E+02  0.13207859247E+03  0.00000000000E+00 0. -1.
</event>
<event>
 7    1  0.5109948E-006  0.2583976E+03  0.7561462E-02  0.1108110E+00
          1   -1    0    0  501    0  0.00000000000E+00  0.00000000000E+00  0.12067988008E+04  0.12067988008E+04  0.00000000000E+00 0. -1.
         -1   -1    0    0    0  501 -0.00000000000E+00 -0.00000000000E+00 -0.75602224883E+02  0.75602224883E+02  0.00000000000E+00 0.  1.
         23    2    1    2    0    0  0.20539234958E+03  0.14293423913E+03  0.84858898269E+03  0.89351287566E+03  0.12508310614E+03 0.  0.
          5    1    3    3  502    0  0.17319694283E+03  0.72361966476E+02  0.45296981329E+03  0.49033922885E+03  0.41800000000E+01 0. -1.
         -5    1    3    3    0  502  0.32195406749E+02  0.70572272654E+02  0.39561916940E+03  0.40317364680E+03  0.41800000000E+01 0. -1.
        -11    1    1    2    0    0 -0.12487140680E+03 -0.10082214578E+03  0.11238276585E+03  0.19592819954E+03  0.00000000000E+00 0.  1.
         11    1    1    2    0    0 -0.80520942777E+02 -0.42112093351E+02  0.17022482733E+03  0.19295995044E+03  0.00000000000E+00 0. -1.
</event>
<event>
 7    1  0.5109948E-006  0.1459234E+03  0.7561462E-02  0.1205574E+00
         -1   -1    0    0    0  501 -0.00000000000E+00  0.00000000000E+00  0.11542373079E+03  0.11542373079E+03  0.00000000000E+00 0.  1.
          1   -1    0    0  501    0  0.00000000000E+00 -0.00000000000E+00 -0.33443779339E+03  0.33443779339E+03  0.00000000000E+00 0. -1.
         23    2    1    2    0    0  0.18738703548E+02  0.12580987657E+03  0.21815144188E+01  0.17841323700E+03  0.12508900863E+03 0.  0.
          5    1    3    3  502    0  0.40135738420E+02  0.37856284122E+02 -0.49375161275E+02  0.74157634111E+02  0.41800000000E+01 0.  1.
         -5    1    3    3    0  502 -0.21397034872E+02  0.87953592449E+02  0.51556675694E+02  0.10425560289E+03  0.41800000000E+01 0.  1.
        -11    1    1    2    0    0 -0.46275541504E+02 -0.75713915790E+02 -0.18095180055E+03  0.20153802844E+03  0.00000000000E+00 0. -1.
         11    1    1    2    0    0  0.27536837956E+02 -0.50095960781E+02 -0.40243776478E+02  0.69910258735E+02  0.00000000000E+00 0.  1.
</event>
<event>
 7    1  0.4034270E-005  0.5015663E+03  0.7561462E-02  0.1013371E+00
          2   -1    0    0  501    0  0.00000000000E+00  0.00000000000E+00  0.11953348334E+04  0.11953348334E+04  0.00000000000E+00 0.  1.
         -2   -1    0    0    0  501 -0.00000000000E+00 -0.00000000000E+00 -0.23860578421E+03  0.23860578421E+03  0.00000000000E+00 0. -1.
         23    2    1    2    0    0  0.46651271399E+03 -0.16781413585E+03  0.70371517259E+03  0.86986282210E+03  0.12510231270E+03 0.  0.
          5    1    3    3  502    0  0.34943852577E+03 -0.74288450712E+02  0.44289457737E+03  0.56903351067E+03  0.41800000000E+01 0. -1.
         -5    1    3    3    0  502  0.11707418822E+03 -0.93525685135E+02  0.26082059522E+03  0.30082931143E+03  0.41800000000E+01 0. -1.
        -11    1    1    2    0    0 -0.33322437400E+03  0.12624255766E+03  0.22572699516E+03  0.42181553212E+03  0.00000000000E+00 0.  1.
         11    1    1    2    0    0 -0.13328833998E+03  0.41571578184E+02  0.27286881456E+02  0.14226226340E+03  0.00000000000E+00 0. -1.
</event>
<event>
 7    1  0.5109948E-006  0.2079299E+03  0.7561462E-02  0.1143216E+00
         -2   -1    0    0    0  501 -0.00000000000E+00  0.00000000000E+00  0.16090540357E+03  0.16090540357E+03  0.00000000000E+00 0.  1.
          2   -1    0    0  501    0  0.00000000000E+00 -0.00000000000E+00 -0.29634801102E+03  0.29634801102E+03  0.00000000000E+00 0. -1.
         23    2    1    2    0    0  0.62478161789E+02 -0.17682157339E+03 -0.98843698401E+02  0.24614495513E+03  0.12509145736E+03 0.  0.
          5    1    3    3  502    0  0.83247878579E+02 -0.18446415349E+03 -0.83929524379E+02  0.21913208499E+03  0.41800000000E+01 0.  1.
         -5    1    3    3    0  502 -0.20769716789E+02  0.76425801024E+01 -0.14914174022E+02  0.27012870134E+02  0.41800000000E+01 0.  1.
        -11    1    1    2    0    0 -0.33743446862E+02  0.46439670334E+02  0.26749781875E+02  0.63330987812E+02  0.00000000000E+00 0.  1.
         11    1    1    2    0    0 -0.28734714927E+02  0.13038190305E+03 -0.63348690919E+02  0.14777747165E+03  0.00000000000E+00 0. -1.
</event>
<event>
 7    1  0.5109948E-006  0.1657693E+03  0.7561462E-02  0.1182333E+00
         -2   -1    0    0    0  501 -0.00000000000E+00  0.00000000000E+00  0.96601162834E+02  0.96601162834E+02  0.00000000000E+00 0. -1.
          2   -1    0    0  501    0  0.00000000000E+00 -0.00000000000E+00 -0.33050969387E+03  0.33050969387E+03  0.00000000000E+00 0.  1.
         23    2    1    2    0    0 -0.76379934692E+02  0.10998716787E+03 -0.16772120904E+03  0.24841447069E+03  0.12509306041E+03 0.  0.
          5    1    3    3  502    0 -0.12170365927E+02 -0.19076821189E+02  0.48506975810E+01  0.23516899892E+02  0.41800000000E+01 0. -1.
         -5    1    3    3    0  502 -0.64209568765E+02  0.12906398906E+03 -0.17257190662E+03  0.22489757079E+03  0.41800000000E+01 0. -1.
        -11    1    1    2    0    0  0.15120027920E+02 -0.10132099722E+03 -0.53374942929E+02  0.11551382712E+03  0.00000000000E+00 0.  1.
         11    1    1    2    0    0  0.61259906772E+02 -0.86661706490E+01 -0.12812379062E+02  0.63182558896E+02  0.00000000000E+00 0. -1.
</event>
<event>
 7    1  0.5109948E-006  0.8837529E+02  0.7561462E-02  0.1306835E+00
          1   -1    0    0  501    0  0.00000000000E+00  0.00000000000E+00  0.84243923911E+02  0.84243923911E+02  0.00000000000E+00 0. -1.
         -1   -1    0    0    0  501 -0.00000000000E+00 -0.00000000000E+00 -0.15265332486E+03  0.15265332486E+03  0.00000000000E+00 0.  1.
         23    2    1    2    0    0 -0.23756823068E+02 -0.30811993699E+01 -0.51919120279E+02  0.13753880602E+03  0.12508975849E+03 0.  0.
          5    1    3    3  502    0 -0.70267471315E+02 -0.21539346100E+02 -0.14778793202E+02  0.75082262113E+02  0.41800000000E+01 0. -1.
         -5    1    3    3    0  502  0.46510648247E+02  0.18458146730E+02 -0.37140327077E+02  0.62456543904E+02  0.41800000000E+01 0. -1.
        -11    1    1    2    0    0 -0.13826368712E+02  0.63173226906E+01  0.33467811974E+02  0.36758284454E+02  0.00000000000E+00 0. -1.
         11    1    1    2    0    0  0.37583191781E+02 -0.32361233206E+01 -0.49958092640E+02  0.62600158297E+02  0.00000000000E+00 0.  1.
</event>
<event>
 7    1  0.5109948E-006  0.6755235E+02  0.7561462E-02  0.1368620E+00
         -1   -1    0    0    0  501 -0.00000000000E+00  0.00000000000E+00  0.53996763087E+02  0.53996763087E+02  0.00000000000E+00 0.  1.
          1   -1    0    0  501    0  0.00000000000E+00 -0.00000000000E+00 -0.22307055029E+03  0.22307055029E+03  0.00000000000E+00 0. -1.
         23    2    1    2    0    0  0.26972128276E+02  0.51136556377E+01 -0.72589055640E+02  0.14720738898E+03  0.12508876526E+03 0.  0.
          5    1    3    3  502    0  0.21639890002E+02  0.29686780250E+02 -0.10187794620E+03  0.10837978632E+03  0.41800000000E+01 0. -1.
         -5    1    3    3    0  502  0.53322382741E+01 -0.24573124612E+02  0.29288890561E+02  0.38827602663E+02  0.41800000000E+01 0. -1.
        -11    1    1    2    0    0 -0.49129358057E+02  0.25505411155E+01 -0.94239321691E+02  0.10630733199E+03  0.00000000000E+00 0. -1.
         11    1    1    2    0    0  0.22157229780E+02 -0.76641967532E+01 -0.22454098767E+01  0.23552592403E+02  0.00000000000E+00 0.  1.
</event>
<event>
 7    1  0.5109948E-006  0.1370357E+03  0.7561462E-02  0.1217374E+00
         -2   -1    0    0    0  501 -0.00000000000E+00  0.00000000000E+00  0.98693277045E+02  0.98693277045E+02  0.00000000000E+00 0.  1.
          2   -1    0    0  501    0  0.00000000000E+00 -0.00000000000E+00 -0.25760821773E+03  0.25760821773E+03  0.00000000000E+00 0. -1.
         23    2    1    2    0    0 -0.91163707275E+02  0.52964147213E+02 -0.32357932338E+02  0.16676824870E+03  0.12509432671E+03 0.  0.
          5    1    3    3  502    0  0.16147032734E+02  0.51584821539E+02 -0.23225179336E+02  0.58979673063E+02  0.41800000000E+01 0.  1.
         -5    1    3    3    0  502 -0.10731074001E+03  0.13793256735E+01 -0.91327530017E+01  0.10778857564E+03  0.41800000000E+01 0.  1.
        -11    1    1    2    0    0  0.19168640377E+02  0.52448882460E+01 -0.86331469900E+02  0.88589323972E+02  0.00000000000E+00 0.  1.
         11    1    1    2    0    0  0.71995066898E+02 -0.58209035459E+02 -0.40225538451E+02  0.10094392211E+03  0.00000000000E+00 0. -1.
</event>
<event>
 7    1  0.5109948E-006  0.1269844E+03  0.7561462E-02  0.1232000E+00
         -3   -1    0    0    0  501 -0.00000000000E+00  0.00000000000E+00  0.96371427853E+03  0.96371427853E+03  0.00000000000E+00 0.  1.
          3   -1    0    0  501    0  0.00000000000E+00 -0.00000000000E+00 -0.20727474554E+02  0.20727474554E+02  0.00000000000E+00 0. -1.
         23    2    1    2    0    0 -0.82974566042E+02  0.10593960535E+02  0.62251699845E+03  0.64044700083E+03  0.12509171396E+03 0.  0.
          5    1    3    3  502    0 -0.62445725809E+02  0.65686224632E+02  0.40914185145E+03  0.41908075091E+03  0.41800000000E+01 0.  1.
         -5    1    3    3    0  502 -0.20528840232E+02 -0.55092264096E+02  0.21337514701E+03  0.22136624992E+03  0.41800000000E+01 0.  1.
        -11    1    1    2    0    0  0.37601972705E+02 -0.36203959200E+02  0.65493884937E+02  0.83750128222E+02  0.00000000000E+00 0. -1.
         11    1    1    2    0    0  0.45372593337E+02  0.25609998665E+02  0.25497592058E+03  0.26024462403E+03  0.00000000000E+00 0.  1.
</event>
<event>
 6    1  0.5109948E-006  0.9770353E+02  0.7561462E-02  0.1285201E+00
          2   -1    0    0  501    0  0.00000000000E+00  0.00000000000E+00  0.69796434013E+03  0.69796434013E+03  0.00000000000E+00 0. -1.
         -2   -1    0    0    0  501 -0.00000000000E+00 -0.00000000000E+00 -0.26513678465E+02  0.26513678465E+02  0.00000000000E+00 0.  1.
          5    1    1    2  502    0 -0.13553149582E+01  0.19978663845E+02  0.32487444391E+03  0.32551783452E+03  0.41800000000E+01 0. -1.
         -5    1    1    2    0  502 -0.63846268782E+02 -0.12573976506E+02  0.51245832318E+02  0.82934062077E+02  0.41800000000E+01 0.  1.
        -11    1    1    2    0    0  0.80121190580E+02  0.16273783294E+02  0.18609248553E+03  0.20326006586E+03  0.00000000000E+00 0. -1.
         11    1    1    2    0    0 -0.14919606840E+02 -0.23678470634E+02  0.10923789991E+03  0.11276605614E+03  0.00000000000E+00 0.  1.
</event>
<event>
 7    1  0.5109948E-006  0.1031539E+03  0.7561462E-02  0.1273800E+00
         -4   -1    0    0    0  501 -0.00000000000E+00  0.00000000000E+00  0.75056722531E+02  0.75056722531E+02  0.00000000000E+00 0.  1.
          4   -1    0    0  501    0  0.00000000000E+00 -0.00000000000E+00 -0.16855574391E+03  0.16855574391E+03  0.00000000000E+00 0. -1.
         23    2    1    2    0    0  0.12400114342E+02  0.16259979691E+02 -0.33002091793E+02  0.13102067288E+03  0.12513644107E+03 0.  0.
          5    1    3    3  502    0 -0.47268454527E+02 -0.62087893647E+01 -0.45363000124E+02  0.65940352130E+02  0.41800000000E+01 0. -1.
         -5    1    3    3    0  502  0.59668568869E+02  0.22468769056E+02  0.12360908331E+02  0.65080320747E+02  0.41800000000E+01 0. -1.
        -11    1    1    2    0    0  0.37806079044E+02  0.82337420961E+01 -0.19704136488E+02  0.43420584016E+02  0.00000000000E+00 0.  1.
         11    1    1    2    0    0 -0.50206193386E+02 -0.24493721787E+02 -0.40792793095E+02  0.69171209544E+02  0.00000000000E+00 0. -1.
</event>
<event>
 7    1  0.5109948E-006  0.1159401E+03  0.7561462E-02  0.1249949E+00
         -2   -1    0    0    0  501 -0.00000000000E+00  0.00000000000E+00  0.12628458989E+03  0.12628458989E+03  0.00000000000E+00 0.  1.
          2   -1    0    0  501    0  0.00000000000E+00 -0.00000000000E+00 -0.13121191263E+03  0.13121191263E+03  0.00000000000E+00 0. -1.
         23    2    1    2    0    0 -0.44044964352E+02 -0.64392928644E+02  0.48087956230E+02  0.15506782967E+03  0.12508865704E+03 0.  0.
          5    1    3    3  502    0 -0.18766312634E+02 -0.99851017242E+02  0.45044793416E+02  0.11121558321E+03  0.41800000000E+01 0. -1.
         -5    1    3    3    0  502 -0.25278651718E+02  0.35458088598E+02  0.30431628138E+01  0.43852246460E+02  0.41800000000E+01 0. -1.
        -11    1    1    2    0    0  0.23391793209E+02  0.54868680504E+01 -0.22623010549E+02  0.33001247201E+02  0.00000000000E+00 0.  1.
         11    1    1    2    0    0  0.20653171144E+02  0.58906060594E+02 -0.30392268423E+02  0.69427425654E+02  0.00000000000E+00 0. -1.
</event>
<event>
 7    1  0.5109948E-006  0.7977602E+02  0.7561462E-02  0.1329688E+00
          2   -1    0    0  501    0  0.00000000000E+00  0.00000000000E+00  0.30295586880E+02  0.30295586880E+02  0.00000000000E+00 0. -1.
         -2   -1    0    0    0  501 -0.00000000000E+00 -0.00000000000E+00 -0.76981169543E+03  0.76981169543E+03  0.00000000000E+00 0.  1.
         23    2    1    2    0    0 -0.86610436395E+01 -0.59739078867E+02 -0.62723105180E+03  0.64242456675E+03  0.12508701135E+03 0.  0.
          5    1    3    3  502    0  0.17359083221E+02 -0.33729211352E+02 -0.58506562001E+03  0.58630900520E+03  0.41800000000E+01 0. -1.
         -5    1    3    3    0  502 -0.26020126861E+02 -0.26009867515E+02 -0.42165431790E+02  0.56115561549E+02  0.41800000000E+01 0. -1.
        -11    1    1    2    0    0  0.20112244778E+02  0.67562385407E+02 -0.12189478980E+03  0.14081022013E+03  0.00000000000E+00 0.  1.
         11    1    1    2    0    0 -0.11451201138E+02 -0.78233065402E+01  0.96097330479E+01  0.16872495428E+02  0.00000000000E+00 0. -1.
</event>
<event>
 7    1  0.5109948E-006  0.1224680E+03  0.7561462E-02  0.1239080E+00
         -3   -1    0    0    0  501 -0.00000000000E+00  0.00000000000E+00  0.82606388964E+02  0.82606388964E+02  0.00000000000E+00 0. -1.
          3   -1    0    0  501    0  0.00000000000E+00 -0.00000000000E+00 -0.25532891509E+03  0.25532891509E+03  0.00000000000E+00 0.  1.
         23    2    1    2    0    0 -0.95747776848E+01 -0.86262815573E+02 -0.47061033181E+02  0.15935887700E+03  0.12509021192E+03 0.  0.
          5    1    3    3  502    0 -0.38605262425E+02 -0.98338798340E+02 -0.63808473235E+02  0.12349040126E+03  0.41800000000E+01 0.  1.
         -5    1    3    3    0  502  0.29030484741E+02  0.12075982767E+02  0.16747440054E+02  0.35868475747E+02  0.41800000000E+01 0.  1.
        -11    1    1    2    0    0 -0.91937506762E+01 -0.75012587142E+01 -0.63327749308E+02  0.64429789432E+02  0.00000000000E+00 0.  1.
         11    1    1    2    0    0  0.18768528361E+02  0.93764074287E+02 -0.62333743635E+02  0.11414663762E+03  0.00000000000E+00 0. -1.
</event>
<event>
 6    1  0.5109948E-006  0.5861755E+02  0.7561462E-02  0.1403727E+00
          2   -1    0    0  501    0  0.00000000000E+00  0.00000000000E+00  0.19862936184E+03  0.19862936184E+03  0.00000000000E+00 0. -1.
         -2   -1    0    0    0  501 -0.00000000000E+00 -0.00000000000E+00 -0.79083654192E+02  0.79083654192E+02  0.00000000000E+00 0.  1.
          5    1    1    2  502    0  0.15058172269E+02 -0.21652601328E+01  0.86695787968E+02  0.88119628658E+02  0.41800000000E+01 0. -1.
         -5    1    1    2    0  502  0.46352550125E+01 -0.10081052694E+02 -0.57915674701E+02  0.59116926413E+02  0.41800000000E+01 0.  1.
        -11    1    1    2    0    0  0.14805901195E+02  0.41692933998E+02  0.64019558416E+02  0.77820429935E+02  0.00000000000E+00 0. -1.
         11    1    1    2    0    0 -0.34499328477E+02 -0.29446621171E+02  0.26746035969E+02  0.52656031029E+02  0.00000000000E+00 0.  1.
</event>
<event>
 7    1  0.5109948E-006  0.1014716E+03  0.7561462E-02  0.1277231E+00
          2   -1    0    0  501    0  0.00000000000E+00  0.00000000000E+00  0.16459966749E+03  0.16459966749E+03  0.00000000000E+00 0. -1.
         -2   -1    0    0    0  501 -0.00000000000E+00 -0.00000000000E+00 -0.85464534384E+02  0.85464534384E+02  0.00000000000E+00 0.  1.
         23    2    1    2    0    0 -0.44205999729E+02 -0.11835418489E+02  0.29126335915E+02  0.13634432021E+03  0.12508869920E+03 0.  0.
          5    1    3    3  502    0 -0.35692798372E+02  0.52929932184E+02  0.30497253844E+02  0.70873891305E+02  0.41800000000E+01 0. -1.
         -5    1    3    3    0  502 -0.85132013568E+01 -0.64765350674E+02 -0.13709179291E+01  0.65470428906E+02  0.41800000000E+01 0. -1.
        -11    1    1    2    0    0  0.35176699322E+02  0.34403154785E+02 -0.88922221470E+01  0.50000488488E+02  0.00000000000E+00 0.  1.
         11    1    1    2    0    0  0.90293004068E+01 -0.22567736296E+02  0.58901019334E+02  0.63719393170E+02  0.00000000000E+00 0. -1.
</event>
<event>
 7    1  0.5109948E-006  0.1605581E+03  0.7561462E-02  0.1188068E+00
         -2   -1    0    0    0  501 -0.00000000000E+00  0.00000000000E+00  0.61335533812E+02  0.61335533812E+02  0.00000000000E+00 0.  1.
          2   -1    0    0  501    0  0.00000000000E+00 -0.00000000000E+00 -0.52050403478E+03  0.52050403478E+03  0.00000000000E+00 0. -1.
         23    2    1    2    0    0 -0.12519541572E+02 -0.12050703343E+03 -0.12644341337E+03  0.21520824978E+03  0.12509184611E+03 0.  0.
          5    1    3    3  502    0 -0.53303289104E+02 -0.11370171238E+03 -0.11887097986E+03  0.17296561011E+03  0.41800000000E+01 0.  1.
         -5    1    3    3    0  502  0.40783747532E+02 -0.68053210421E+01 -0.75724335150E+01  0.42242639673E+02  0.41800000000E+01 0.  1.
        -11    1    1    2    0    0  0.41855446469E+02  0.15094670432E+02 -0.10149001368E+03  0.11081493740E+03  0.00000000000E+00 0. -1.
         11    1    1    2    0    0 -0.29335904897E+02  0.10541236299E+03 -0.23123507391E+03  0.25581638141E+03  0.00000000000E+00 0.  1.
</event>
<event>
 7    1  0.5109948E-006  0.8341556E+02  0.7561462E-02  0.1319629E+00
         -4   -1    0    0    0  501 -0.00000000000E+00  0.00000000000E+00  0.23280071964E+02  0.23280071964E+02  0.00000000000E+00 0.  1.
          4   -1    0    0  501    0  0.00000000000E+00 -0.00000000000E+00 -0.70144365234E+03  0.70144365234E+03  0.00000000000E+00 0. -1.
         23    2    1    2    0    0  0.48387269635E+02  0.39200994769E+01 -0.24497078621E+03  0.27930922761E+03  0.12508502504E+03 0.  0.
          5    1    3    3  502    0  0.31417955712E+02  0.21604069229E+02 -0.25084606542E+03  0.25376178728E+03  0.41800000000E+01 0. -1.
         -5    1    3    3    0  502  0.16969313923E+02 -0.17683969752E+02  0.58752792133E+01  0.25547440323E+02  0.41800000000E+01 0. -1.
        -11    1    1    2    0    0 -0.63900802423E+02 -0.32049199127E+02 -0.29550993578E+03  0.30403385644E+03  0.00000000000E+00 0. -1.
         11    1    1    2    0    0  0.15513532788E+02  0.28129099650E+02 -0.13768285839E+03  0.14138064026E+03  0.00000000000E+00 0.  1.
</event>
<event>
 7    1  0.5109948E-006  0.1280883E+03  0.7561462E-02  0.1230320E+00
         -2   -1    0    0    0  501 -0.00000000000E+00  0.00000000000E+00  0.66455760900E+02  0.66455760900E+02  0.00000000000E+00 0.  1.
          2   -1    0    0  501    0  0.00000000000E+00 -0.00000000000E+00 -0.64881154703E+03  0.64881154703E+03  0.00000000000E+00 0. -1.
         23    2    1    2    0    0  0.91599849874E+02  0.86326805979E+02 -0.87275224427E+02  0.19775092560E+03  0.12508242822E+03 0.  0.
          5    1    3    3  502    0  0.68913807970E+02  0.81290204049E+02  0.70807586539E+00  0.10665450752E+03  0.41800000000E+01 0.  1.
         -5    1    3    3    0  502  0.22686041904E+02  0.50366019307E+01 -0.87983300293E+02  0.91096418078E+02  0.41800000000E+01 0.  1.
        -11    1    1    2    0    0 -0.49867167582E+02 -0.44694822562E+02 -0.40057277791E+03  0.40613164364E+03  0.00000000000E+00 0. -1.
         11    1    1    2    0    0 -0.41732682292E+02 -0.41631983418E+02 -0.94507783793E+02  0.11138473869E+03  0.00000000000E+00 0.  1.
</event>
<event>
 7    1  0.5109948E-006  0.9219725E+02  0.7561462E-02  0.1297616E+00
          1   -1    0    0  501    0  0.00000000000E+00  0.00000000000E+00  0.41530563249E+03  0.41530563249E+03  0.00000000000E+00 0. -1.
         -1   -1    0    0    0  501 -0.00000000000E+00 -0.00000000000E+00 -0.30379456964E+02  0.30379456964E+02  0.00000000000E+00 0.  1.
         23    2    1    2    0    0 -0.63313800167E+01  0.16999343238E+02  0.18836622830E+03  0.22687055460E+03  0.12513731872E+03 0.  0.
          5    1    3    3  502    0  0.16531784739E+02  0.63144324346E+02  0.61055543997E+02  0.89474898471E+02  0.41800000000E+01 0.  1.
         -5    1    3    3    0  502 -0.22863164755E+02 -0.46144981108E+02  0.12731068431E+03  0.13739565613E+03  0.41800000000E+01 0.  1.
        -11    1    1    2    0    0  0.15913750378E+02  0.22004982488E+02  0.11576253110E+02  0.29520778131E+02  0.00000000000E+00 0.  1.
         11    1    1    2    0    0 -0.95823703612E+01 -0.39004325726E+02  0.18498369412E+03  0.18929375673E+03  0.00000000000E+00 0. -1.
</event>
<event>
 7    1  0.5109948E-006  0.1400823E+03  0.7561462E-02  0.1213218E+00
          2   -1    0    0  501    0  0.00000000000E+00  0.00000000000E+00  0.35309390007E+02  0.35309390007E+02  0.00000000000E+00 0. -1.
         -2   -1    0    0    0  501 -0.00000000000E+00 -0.00000000000E+00 -0.57169557020E+03  0.57169557020E+03  0.00000000000E+00 0.  1.
         23    2    1    2    0    0 -0.17267972745E+02  0.89770857044E+02 -0.29233395172E+03  0.33085263393E+03  0.12508931367E+03 0.  0.
          5    1    3    3  502    0 -0.18966027992E+02 -0.29638466320E+02 -0.67866496520E+02  0.76560320359E+02  0.41800000000E+01 0. -1.
         -5    1    3    3    0  502  0.16980552468E+01  0.11940932336E+03 -0.22446745520E+03  0.25429231357E+03  0.41800000000E+01 0. -1.
        -11    1    1    2    0    0  0.16574558311E+02  0.13857716928E+02 -0.73259051500E+02  0.76378275238E+02  0.00000000000E+00 0.  1.
         11    1    1    2    0    0  0.69341443427E+00 -0.10362857397E+03 -0.17079317698E+03  0.19977405104E+03  0.00000000000E+00 0. -1.
</event>
<event>
 7    1  0.5109948E-006  0.1098218E+03  0.7561462E-02  0.1260900E+00
          3   -1    0    0  501    0  0.00000000000E+00  0.00000000000E+00  0.23133584000E+03  0.23133584000E+03  0.00000000000E+00 0. -1.
         -3   -1    0    0    0  501 -0.00000000000E+00 -0.00000000000E+00 -0.89206775347E+02  0.89206775347E+02  0.00000000000E+00 0.  1.
         23    2    1    2    0    0 -0.87542653722E+02 -0.24687718156E+02  0.53164107476E+02  0.16353626897E+03  0.12507793289E+03 0.  0.
          5    1    3    3  502    0  0.82300938327E+01 -0.23386001669E+01  0.63820060087E+02  0.64526552401E+02  0.41800000000E+01 0.  1.
         -5    1    3    3    0  502 -0.95772747555E+02 -0.22349117989E+02 -0.10655952611E+02  0.99009716569E+02  0.41800000000E+01 0.  1.
        -11    1    1    2    0    0  0.53223711834E+02 -0.18658288285E+02  0.84428294227E+02  0.10153340381E+03  0.00000000000E+00 0.  1.
         11    1    1    2    0    0  0.34318941888E+02  0.43346006441E+02  0.45366629529E+01  0.55472942571E+02  0.00000000000E+00 0. -1.
</event>
<event>
 7    1  0.5109948E-006  0.1217943E+03  0.7561462E-02  0.1240166E+00
         -1   -1    0    0    0  501 -0.00000000000E+00  0.00000000000E+00  0.24402126299E+04  0.24402126299E+04  0.00000000000E+00 0.  1.
          1   -1    0    0  501    0  0.00000000000E+00 -0.00000000000E+00 -0.12279076054E+02  0.12279076054E+02  0.00000000000E+00 0. -1.
         23    2    1    2    0    0  0.71014878026E+02 -0.10743955505E+02  0.20948631785E+04  0.20998235094E+04  0.12509391875E+03 0.  0.
          5    1    3    3  502    0 -0.40348998470E+01 -0.45010381235E+02  0.33980753252E+03  0.34282480422E+03  0.41800000000E+01 0. -1.
         -5    1    3    3    0  502  0.75049777873E+02  0.34266425730E+02  0.17550556460E+04  0.17569987052E+04  0.41800000000E+01 0. -1.
        -11    1    1    2    0    0  0.22032052571E+02  0.12703378446E+01  0.53702684426E+02  0.58060342862E+02  0.00000000000E+00 0.  1.
         11    1    1    2    0    0 -0.93046930598E+02  0.94736176606E+01  0.27936769087E+03  0.29460785364E+03  0.00000000000E+00 0. -1.
</event>
<event>
 7    1  0.5109948E-006  0.9565535E+02  0.7561462E-02  0.1289707E+00
          2   -1    0    0  501    0  0.00000000000E+00  0.00000000000E+00  0.92637568562E+03  0.92637568562E+03  0.00000000000E+00 0. -1.
         -2   -1    0    0    0  501 -0.00000000000E+00 -0.00000000000E+00 -0.18230433600E+02  0.18230433600E+02  0.00000000000E+00 0.  1.
         23    2    1    2    0    0 -0.65861423145E+02 -0.92527119298E+01  0.41430540062E+03  0.43785750807E+03  0.12508753997E+03 0.  0.
          5    1    3    3  502    0 -0.31746309609E+02 -0.33040962681E+02  0.39243579143E+02  0.60473666109E+02  0.41800000000E+01 0. -1.
         -5    1    3    3    0  502 -0.34115113536E+02  0.23788250752E+02  0.37506182148E+03  0.37738384196E+03  0.41800000000E+01 0. -1.
        -11    1    1    2    0    0  0.83749881797E+02  0.89238944181E+00  0.46005425629E+03  0.46761603671E+03  0.00000000000E+00 0. -1.
         11    1    1    2    0    0 -0.17888458652E+02  0.83603224880E+01  0.33785595113E+02  0.39132574439E+02  0.00000000000E+00 0.  1.
</event>
<event>
 7    1  0.5109948E-006  0.9211884E+02  0.7561462E-02  0.1297800E+00
         -3   -1    0    0    0  501 -0.00000000000E+00  0.00000000000E+00  0.25596149967E+03  0.25596149967E+03  0.00000000000E+00 0.  1.
          3   -1    0    0  501    0  0.00000000000E+00 -0.00000000000E+00 -0.54064570749E+02  0.54064570749E+02  0.00000000000E+00 0. -1.
         23    2    1    2    0    0  0.35607275208E+02 -0.34802874442E+02  0.14518682173E+03  0.19800430104E+03  0.12508945562E+03 0.  0.
          5    1    3    3  502    0 -0.84439534657E+01 -0.72856041417E+02  0.60569102222E+02  0.95212350381E+02  0.41800000000E+01 0.  1.
         -5    1    3    3    0  502  0.44051228674E+02  0.38053166975E+02  0.84617719512E+02  0.10279195066E+03  0.41800000000E+01 0.  1.
        -11    1    1    2    0    0 -0.33826945466E+02  0.24026690400E+02  0.77855881875E+02  0.88221779815E+02  0.00000000000E+00 0.  1.
         11    1    1    2    0    0 -0.17803297418E+01  0.10776184042E+02 -0.21145774684E+02  0.23799989569E+02  0.00000000000E+00 0. -1.
</event>
<event>
 7    1  0.5109948E-006  0.8203004E+02  0.7561462E-02  0.1323387E+00
         -1   -1    0    0    0  501 -0.00000000000E+00  0.00000000000E+00  0.34606068838E+03  0.34606068838E+03  0.00000000000E+00 0.  1.
          1   -1    0    0  501    0  0.00000000000E+00 -0.00000000000E+00 -0.40473001510E+02  0.40473001510E+02  0.00000000000E+00 0. -1.
         23    2    1    2    0    0 -0.15067761414E+02  0.45308762351E+02  0.19260164792E+03  0.23457004425E+03  0.12509112478E+03 0.  0.
          5    1    3    3  502    0 -0.24553737865E+02  0.46275191138E+01 -0.10317546376E+02  0.27353686031E+02  0.41800000000E+01 0. -1.
         -5    1    3    3    0  502  0.94859764510E+01  0.40681243237E+02  0.20291919430E+03  0.20721635822E+03  0.41800000000E+01 0. -1.
        -11    1    1    2    0    0  0.49855773716E+02 -0.33252830922E+02  0.91369459928E+02  0.10926905850E+03  0.00000000000E+00 0.  1.
         11    1    1    2    0    0 -0.34788012303E+02 -0.12055931429E+02  0.21616579021E+02  0.42694587141E+02  0.00000000000E+00 0. -1.
</event>
<event>
 7    1  0.5109948E-006  0.1063004E+03  0.7561462E-02  0.1267578E+00
          2   -1    0    0  501    0  0.00000000000E+00  0.00000000000E+00  0.80721233998E+02  0.80721233998E+02  0.00000000000E+00 0. -1.
         -2   -1    0    0    0  501 -0.00000000000E+00 -0.00000000000E+00 -0.18778350663E+03  0.18778350663E+03  0.00000000000E+00 0.  1.
         23    2    1    2    0    0 -0.18342206373E+02 -0.46682347424E+02 -0.28019029627E+02  0.13765423194E+03  0.12509174015E+03 0.  0.
          5    1    3    3  502    0 -0.37911889884E+02  0.17604929113E+02 -0.51397754239E+02  0.66381070076E+02  0.41800000000E+01 0.  1.
         -5    1    3    3    0  502  0.19569683511E+02 -0.64287276537E+02  0.23378724612E+02  0.71273161862E+02  0.41800000000E+01 0.  1.
        -11    1    1    2    0    0  0.50555534721E+01 -0.27468900353E+02 -0.13615942894E+02  0.31072383372E+02  0.00000000000E+00 0. -1.
         11    1    1    2    0    0  0.13286652901E+02  0.74151247778E+02 -0.65427300113E+02  0.99778125320E+02  0.00000000000E+00 0.  1.
</event>
<event>
 7    1  0.5109948E-006  0.1168887E+03  0.7561462E-02  0.1248320E+00
         -1   -1    0    0    0  501 -0.00000000000E+00  0.00000000000E+00  0.68794866139E+02  0.68794866139E+02  0.00000000000E+00 0.  1.
          1   -1    0    0  501    0  0.00000000000E+00 -0.00000000000E+00 -0.44218763986E+03  0.44218763986E+03  0.00000000000E+00 0. -1.
         23    2    1    2    0    0 -0.29627081175E+02 -0.35242525601E+02 -0.10353028146E+02  0.13369587280E+03  0.12509037398E+03 0.  0.
          5    1    3    3  502    0 -0.71494445703E+02 -0.49688505459E+02 -0.16723936825E+02  0.88755652237E+02  0.41800000000E+01 0.  1.
         -5    1    3    3    0  502  0.41867364528E+02  0.14445979857E+02  0.63709086784E+01  0.44940220560E+02  0.41800000000E+01 0.  1.
        -11    1    1    2    0    0  0.69002672781E+01  0.64617527201E+02 -0.21126971317E+03  0.22103830033E+03  0.00000000000E+00 0.  1.
         11    1    1    2    0    0  0.22726813897E+02 -0.29375001600E+02 -0.15177003241E+03  0.15624833287E+03  0.00000000000E+00 0. -1.
</event>
<event>
 7    1  0.5109948E-006  0.1020784E+03  0.7561462E-02  0.1275985E+00
          2   -1    0    0  501    0  0.00000000000E+00  0.00000000000E+00  0.21512187188E+03  0.21512187188E+03  0.00000000000E+00 0.  1.
         -2   -1    0    0    0  501 -0.00000000000E+00 -0.00000000000E+00 -0.60859687017E+02  0.60859687017E+02  0.00000000000E+00 0. -1.
         23    2    1    2    0    0  0.51986741364E+01 -0.20748392305E+02  0.51180609461E+02  0.13683388666E+03  0.12508611337E+03 0.  0.
          5    1    3    3  502    0  0.16226548743E+02 -0.67458922081E+02  0.54812900292E+02  0.88520808237E+02  0.41800000000E+01 0. -1.
         -5    1    3    3    0  502 -0.11027874607E+02  0.46710529777E+02 -0.36322908310E+01  0.48313078426E+02  0.41800000000E+01 0. -1.
        -11    1    1    2    0    0 -0.62636078270E+01  0.53418353875E+02  0.88032720596E+02  0.10316255721E+03  0.00000000000E+00 0.  1.
         11    1    1    2    0    0  0.10649336906E+01 -0.32669961570E+02  0.15048854809E+02  0.35985115032E+02  0.00000000000E+00 0. -1.
</event>
<event>
 7    1  0.5109948E-006  0.1251294E+03  0.7561462E-02  0.1234867E+00
          2   -1    0    0  501    0  0.00000000000E+00  0.00000000000E+00  0.72214771190E+02  0.72214771190E+02  0.00000000000E+00 0. -1.
         -2   -1    0    0    0  501 -0.00000000000E+00 -0.00000000000E+00 -0.24789505765E+03  0.24789505765E+03  0.00000000000E+00 0.  1.
         23    2    1    2    0    0 -0.18661632394E+02  0.75100587108E+02 -0.10402116027E+03  0.18015509017E+03  0.12508836886E+03 0.  0.
          5    1    3    3  502    0  0.50695965845E+02  0.20182445177E+02 -0.60146378880E+02  0.81317103604E+02  0.41800000000E+01 0. -1.
         -5    1    3    3    0  502 -0.69357598239E+02  0.54918141931E+02 -0.43874781394E+02  0.98837986569E+02  0.41800000000E+01 0. -1.
        -11    1    1    2    0    0 -0.28599196729E+02 -0.33062547640E+02 -0.62161265394E+02  0.75993874920E+02  0.00000000000E+00 0.  1.
         11    1    1    2    0    0  0.47260829123E+02 -0.42038039468E+02 -0.94978607924E+01  0.63960863747E+02  0.00000000000E+00 0. -1.
</event>
<event>
 7    1  0.5109948E-006  0.1071283E+03  0.7561462E-02  0.1265982E+00
         -1   -1    0    0    0  501 -0.00000000000E+00  0.00000000000E+00  0.32836147974E+03  0.32836147974E+03  0.00000000000E+00 0.  1.
          1   -1    0    0  501    0  0.00000000000E+00 -0.00000000000E+00 -0.84014423756E+02  0.84014423756E+02  0.00000000000E+00 0. -1.
         23    2    1    2    0    0  0.35931878884E+02  0.17023184957E+02  0.27789733547E+03  0.30734086212E+03  0.12510230902E+03 0.  0.
          5    1    3    3  502    0  0.62172170733E+02  0.45282226556E+02  0.10546427257E+03  0.13059879036E+03  0.41800000000E+01 0.  1.
         -5    1    3    3    0  502 -0.26240291849E+02 -0.28259041598E+02  0.17243306290E+03  0.17674207176E+03  0.41800000000E+01 0.  1.
        -11    1    1    2    0    0  0.12072824046E+02  0.29324164048E+02 -0.36724397164E+01  0.31924073847E+02  0.00000000000E+00 0.  1.
         11    1    1    2    0    0 -0.48004702931E+02 -0.46347349005E+02 -0.29877839770E+02  0.73110967526E+02  0.00000000000E+00 0. -1.
</event>
<event>
 7    1  0.5109948E-006  0.1371362E+03  0.7561462E-02  0.1217235E+00
          2   -1    0    0  501    0  0.00000000000E+00  0.00000000000E+00  0.42287506593E+03  0.42287506593E+03  0.00000000000E+00 0. -1.
         -2   -1    0    0    0  501 -0.00000000000E+00 -0.00000000000E+00 -0.52272220082E+02  0.52272220082E+02  0.00000000000E+00 0.  1.
         23    2    1    2    0    0  0.96773746653E+02  0.69977368054E+01  0.12723264640E+03  0.20310012874E+03  0.12508952642E+03 0.  0.
          5    1    3    3  502    0  0.93964068336E+02 -0.43277516932E+02  0.62334808337E+02  0.12085234934E+03  0.41800000000E+01 0.  1.
         -5    1    3    3    0  502  0.28096783166E+01  0.50275253738E+02  0.64897838064E+02  0.82247779399E+02  0.41800000000E+01 0.  1.
        -11    1    1    2    0    0 -0.77616271961E+02 -0.35914500035E+02  0.15352618844E+03  0.17573965836E+03  0.00000000000E+00 0.  1.
         11    1    1    2    0    0 -0.19157474692E+02  0.28916763230E+02  0.89844011007E+02  0.96307498909E+02  0.00000000000E+00 0. -1.
</event>
<event>
 7    1  0.5109948E-006  0.1230081E+03  0.7561462E-02  0.1238215E+00
          1   -1    0    0  501    0  0.00000000000E+00  0.00000000000E+00  0.53251588382E+02  0.53251588382E+02  0.00000000000E+00 0. -1.
         -1   -1    0    0    0  501 -0.00000000000E+00 -0.00000000000E+00 -0.49736009473E+03  0.49736009473E+03  0.00000000000E+00 0.  1.
         23    2    1    2    0    0 -0.99024532214E+02  0.37034083615E+02 -0.34267661751E+03  0.37980726735E+03  0.12509562269E+03 0.  0.
          5    1    3    3  502    0  0.33821720401E+01 -0.16760797202E+02  0.52645361411E+00  0.17610024531E+02  0.41800000000E+01 0.  1.
         -5    1    3    3    0  502 -0.10240670425E+03  0.53794880817E+02 -0.34320307112E+03  0.36219724282E+03  0.41800000000E+01 0.  1.
        -11    1    1    2    0    0  0.62630962818E+01 -0.16509070447E+02 -0.67737890594E+02  0.70001411444E+02  0.00000000000E+00 0.  1.
         11    1    1    2    0    0  0.92761435932E+02 -0.20525013167E+02 -0.33693998247E+02  0.10080300432E+03  0.00000000000E+00 0. -1.
</event>
<event>
 7    1  0.5109948E-006  0.1673299E+03  0.7561462E-02  0.1180661E+00
         -2   -1    0    0    0  501 -0.00000000000E+00  0.00000000000E+00  0.58300352389E+02  0.58300352389E+02  0.00000000000E+00 0.  1.
          2   -1    0    0  501    0  0.00000000000E+00 -0.00000000000E+00 -0.86615124670E+03  0.86615124670E+03  0.00000000000E+00 0. -1.
         23    2    1    2    0    0 -0.10447310831E+03 -0.11340882651E+03 -0.16145003180E+03  0.25348527198E+03  0.12005198063E+03 0.  0.
          5    1    3    3  502    0 -0.83535533050E+02 -0.65228840425E+02 -0.16972319483E+03  0.20014100572E+03  0.41800000000E+01 0. -1.
         -5    1    3    3    0  502 -0.20937575255E+02 -0.48179986089E+02  0.82731630306E+01  0.53344266268E+02  0.41800000000E+01 0.  1.
        -11    1    1    2    0    0  0.13787592948E+01 -0.12831166468E+02 -0.20763715801E+02  0.24447325088E+02  0.00000000000E+00 0.  1.
         11    1    1    2    0    0  0.10309434901E+03  0.12623999298E+03 -0.62563714671E+03  0.64651900202E+03  0.00000000000E+00 0. -1.
</event>
<event>
 7    1  0.5109948E-006  0.9397953E+02  0.7561462E-02  0.1293491E+00
         -1   -1    0    0    0  501 -0.00000000000E+00  0.00000000000E+00  0.13437980964E+03  0.13437980964E+03  0.00000000000E+00 0.  1.
          1   -1    0    0  501    0  0.00000000000E+00 -0.00000000000E+00 -0.12406898559E+03  0.12406898559E+03  0.00000000000E+00 0. -1.
         23    2    1    2    0    0  0.37639931385E+02  0.67604563141E+01  0.64979568732E+02  0.14604816641E+03  0.12508099118E+03 0.  0.
          5    1    3    3  502    0 -0.41493426914E+02  0.25464859476E+02  0.30684821136E+02  0.57699169780E+02  0.41800000000E+01 0. -1.
         -5    1    3    3    0  502  0.79133358298E+02 -0.18704403162E+02  0.34294747596E+02  0.88348996632E+02  0.41800000000E+01 0. -1.
        -11    1    1    2    0    0 -0.30988528516E+02 -0.24000454160E+02  0.13744469665E+02  0.41535781512E+02  0.00000000000E+00 0.  1.
         11    1    1    2    0    0 -0.66514028685E+01  0.17239997846E+02 -0.68413214354E+02  0.70864847308E+02  0.00000000000E+00 0. -1.
</event>
<event>
 7    1  0.5109948E-006  0.1877185E+03  0.7561462E-02  0.1160535E+00
          1   -1    0    0  501    0  0.00000000000E+00  0.00000000000E+00  0.16614514613E+03  0.16614514613E+03  0.00000000000E+00 0. -1.
         -1   -1    0    0    0  501 -0.00000000000E+00 -0.00000000000E+00 -0.30906077077E+03  0.30906077077E+03  0.00000000000E+00 0.  1.
         23    2    1    2    0    0  0.60924331200E+02 -0.17346860213E+03 -0.15334888439E+03  0.27012368117E+03  0.12509113767E+03 0.  0.
          5    1    3    3  502    0  0.33688824798E+02 -0.39321652209E+02 -0.11763672678E+03  0.12859627186E+03  0.41800000000E+01 0. -1.
         -5    1    3    3    0  502  0.27235506402E+02 -0.13414694993E+03 -0.35712157608E+02  0.14152740930E+03  0.41800000000E+01 0. -1.
        -11    1    1    2    0    0 -0.81677703420E+01  0.69254794187E+02  0.45331513989E+02  0.83173824914E+02  0.00000000000E+00 0.  1.
         11    1    1    2    0    0 -0.52756560858E+02  0.10421380795E+03 -0.34898254233E+02  0.12190841082E+03  0.00000000000E+00 0. -1.
</event>
<event>
 7    1  0.5109948E-006  0.1764353E+03  0.7561462E-02  0.1171298E+00
          2   -1    0    0  501    0  0.00000000000E+00  0.00000000000E+00  0.12658162638E+03  0.12658162638E+03  0.00000000000E+00 0. -1.
         -2   -1    0    0    0  501 -0.00000000000E+00 -0.00000000000E+00 -0.27363890541E+03  0.27363890541E+03  0.00000000000E+00 0.  1.
         23    2    1    2    0    0 -0.11164938877E+02  0.14276191982E+03 -0.12793276578E+03  0.22917287687E+03  0.12509114006E+03 0.  0.
          5    1    3    3  502    0 -0.67792911806E+02  0.74723800246E+02 -0.59493467153E+02  0.11720268874E+03  0.41800000000E+01 0.  1.
         -5    1    3    3    0  502  0.56627972929E+02  0.68038119569E+02 -0.68439298626E+02  0.11197018813E+03  0.41800000000E+01 0.  1.
        -11    1    1    2    0    0  0.38866326837E+02 -0.36011851920E+02  0.15924364056E+02  0.55326577800E+02  0.00000000000E+00 0. -1.
         11    1    1    2    0    0 -0.27701387960E+02 -0.10675006790E+03 -0.35048877305E+02  0.11572107713E+03  0.00000000000E+00 0.  1.
</event>
<event>
 7    1  0.5109948E-006  0.1047736E+03  0.7561462E-02  0.1270566E+00
          1   -1    0    0  501    0  0.00000000000E+00  0.00000000000E+00  0.17882490589E+03  0.17882490589E+03  0.00000000000E+00 0. -1.
         -1   -1    0    0    0  501 -0.00000000000E+00 -0.00000000000E+00 -0.76302022570E+02  0.76302022570E+02  0.00000000000E+00 0.  1.
         23    2    1    2    0    0 -0.34679259650E+02  0.18775804984E+01  0.32249639543E+02  0.13376565301E+03  0.12508810622E+03 0.  0.
          5    1    3    3  502    0 -0.77098754785E+02 -0.22873738038E+02  0.20253602001E+02  0.83036779051E+02  0.41800000000E+01 0. -1.
         -5    1    3    3    0  502  0.42419495134E+02  0.24751318536E+02  0.11996037542E+02  0.50728873962E+02  0.41800000000E+01 0. -1.
        -11    1    1    2    0    0  0.18347757062E+02  0.34932532410E+02 -0.10307787853E+01  0.39471312553E+02  0.00000000000E+00 0.  1.
         11    1    1    2    0    0  0.16331502588E+02 -0.36810112908E+02  0.71304022564E+02  0.81889962895E+02  0.00000000000E+00 0. -1.
</event>
<event>
 7    1  0.5109948E-006  0.9779671E+02  0.7561462E-02  0.1284999E+00
          2   -1    0    0  501    0  0.00000000000E+00  0.00000000000E+00  0.72806192597E+03  0.72806192597E+03  0.00000000000E+00 0. -1.
         -2   -1    0    0    0  501 -0.00000000000E+00 -0.00000000000E+00 -0.24704265462E+02  0.24704265462E+02  0.00000000000E+00 0.  1.
         23    2    1    2    0    0 -0.73849188617E+02  0.15416753099E+02  0.45924622560E+03  0.48191958936E+03  0.12509202991E+03 0.  0.
          5    1    3    3  502    0 -0.17083012387E+02  0.39736512329E+02  0.37430010745E+03  0.37681409549E+03  0.41800000000E+01 0. -1.
         -5    1    3    3    0  502 -0.56766176230E+02 -0.24319759230E+02  0.84946118150E+02  0.10510549387E+03  0.41800000000E+01 0. -1.
        -11    1    1    2    0    0  0.52362368816E+02  0.13633540421E+02  0.50903697714E+02  0.74289148154E+02  0.00000000000E+00 0. -1.
         11    1    1    2    0    0  0.21486819801E+02 -0.29050293519E+02  0.19320773719E+03  0.19655745392E+03  0.00000000000E+00 0.  1.
</event>
<event>
 7    1  0.5109948E-006  0.6423272E+02  0.7561462E-02  0.1380881E+00
         -2   -1    0    0    0  501 -0.00000000000E+00  0.00000000000E+00  0.37986820254E+02  0.37986820254E+02  0.00000000000E+00 0.  1.
          2   -1    0    0  501    0  0.00000000000E+00 -0.00000000000E+00 -0.22234805675E+03  0.22234805675E+03  0.00000000000E+00 0. -1.
         23    2    1    2    0    0 -0.96886503023E+01 -0.39795823910E+01 -0.73530865925E+02  0.14229937497E+03  0.12137799163E+03 0.  0.
          5    1    3    3  502    0  0.10453956059E+02  0.42776068572E+02 -0.79392475725E+02  0.90882973332E+02  0.41800000000E+01 0. -1.
         -5    1    3    3    0  502 -0.20142606361E+02 -0.46755650963E+02  0.58616098002E+01  0.51416401639E+02  0.41800000000E+01 0.  1.
        -11    1    1    2    0    0 -0.79632651858E+01  0.11480397518E+02 -0.15810988772E+02  0.21099774537E+02  0.00000000000E+00 0.  1.
         11    1    1    2    0    0  0.17651915488E+02 -0.75008151266E+01 -0.95019381797E+02  0.96935727495E+02  0.00000000000E+00 0. -1.
</event>
<event>
 7    1  0.5109948E-006  0.1075270E+03  0.7561462E-02  0.1265219E+00
         -3   -1    0    0    0  501 -0.00000000000E+00  0.00000000000E+00  0.94451483746E+02  0.94451483746E+02  0.00000000000E+00 0.  1.
          3   -1    0    0  501    0  0.00000000000E+00 -0.00000000000E+00 -0.17624228030E+03  0.17624228030E+03  0.00000000000E+00 0. -1.
         23    2    1    2    0    0  0.48163911399E+02 -0.10234079325E+02  0.65078319020E+01  0.13458282499E+03  0.12508271729E+03 0.  0.
          5    1    3    3  502    0 -0.37085811457E+02  0.18882957036E+02  0.13958754485E+02  0.44093567611E+02  0.41800000000E+01 0.  1.
         -5    1    3    3    0  502  0.85249722856E+02 -0.29117036362E+02 -0.74509225827E+01  0.90489257378E+02  0.41800000000E+01 0.  1.
        -11    1    1    2    0    0 -0.31438249576E+02  0.38803649275E+02 -0.97674450922E+01  0.50887028967E+02  0.00000000000E+00 0.  1.
         11    1    1    2    0    0 -0.16725661822E+02 -0.28569569949E+02 -0.78531183368E+02  0.85223910094E+02  0.00000000000E+00 0. -1.
</event>
<event>
 7    1  0.5109948E-006  0.8903256E+02  0.7561462E-02  0.1305212E+00
          2   -1    0    0  501    0  0.00000000000E+00  0.00000000000E+00  0.12932856605E+03  0.12932856605E+03  0.00000000000E+00 0. -1.
         -2   -1    0    0    0  501 -0.00000000000E+00 -0.00000000000E+00 -0.12287629508E+03  0.12287629508E+03  0.00000000000E+00 0.  1.
         23    2    1    2    0    0 -0.52678580032E+02 -0.34553590853E+02 -0.87124090242E+01  0.14033148654E+03  0.12509211250E+03 0.  0.
          5    1    3    3  502    0 -0.56212675249E+02 -0.22576626262E+02 -0.61203184857E+02  0.86214100637E+02  0.41800000000E+01 0. -1.
         -5    1    3    3    0  502  0.35340952169E+01 -0.11976964591E+02  0.52490775833E+02  0.54117385906E+02  0.41800000000E+01 0. -1.
        -11    1    1    2    0    0  0.10858488781E+02  0.56093106811E+02 -0.10794035361E+02  0.58145116818E+02  0.00000000000E+00 0.  1.
         11    1    1    2    0    0  0.41820091251E+02 -0.21539515959E+02  0.25958715360E+02  0.53728257771E+02  0.00000000000E+00 0. -1.
</event>
<event>
 7    1  0.5109948E-006  0.1585834E+03  0.7561462E-02  0.1190305E+00
          2   -1    0    0  501    0  0.00000000000E+00  0.00000000000E+00  0.33707283562E+03  0.33707283562E+03  0.00000000000E+00 0. -1.
         -2   -1    0    0    0  501 -0.00000000000E+00 -0.00000000000E+00 -0.93057699840E+02  0.93057699840E+02  0.00000000000E+00 0.  1.
         23    2    1    2    0    0  0.65667111588E+02  0.10062483526E+03  0.42772984330E+02  0.17866647769E+03  0.12511856395E+03 0.  0.
          5    1    3    3  502    0 -0.34067617223E+02  0.84416787686E+01 -0.25324720076E+01  0.35436567245E+02  0.41800000000E+01 0. -1.
         -5    1    3    3    0  502  0.99734728810E+02  0.92183156496E+02  0.45305456337E+02  0.14322991045E+03  0.41800000000E+01 0. -1.
        -11    1    1    2    0    0 -0.21361601277E+01 -0.78712352365E+02  0.13957722767E+03  0.16025604537E+03  0.00000000000E+00 0. -1.
         11    1    1    2    0    0 -0.63530951460E+02 -0.21912482900E+02  0.61664923785E+02  0.91208012398E+02  0.00000000000E+00 0.  1.
</event>
<event>
 7    1  0.5109948E-006  0.1187090E+03  0.7561462E-02  0.1245242E+00
         -1   -1    0    0    0  501 -0.00000000000E+00  0.00000000000E+00  0.13716411962E+04  0.13716411962E+04  0.00000000000E+00 0.  1.
          1   -1    0    0  501    0  0.00000000000E+00 -0.00000000000E+00 -0.14995676223E+02  0.14995676223E+02  0.00000000000E+00 0. -1.
         23    2    1    2    0    0 -0.61229064904E+02 -0.43247822799E+02  0.10143061634E+04  0.10247359742E+04  0.12508977239E+03 0.  0.
          5    1    3    3  502    0  0.18880376180E+02 -0.34459102682E+02  0.66734163206E+03  0.66851045215E+03  0.41800000000E+01 0. -1.
         -5    1    3    3    0  502 -0.80109441084E+02 -0.87887201164E+01  0.34696453136E+03  0.35622552207E+03  0.41800000000E+01 0. -1.
        -11    1    1    2    0    0  0.49728843215E+01  0.58664535220E+02  0.18158322303E+03  0.19088929818E+03  0.00000000000E+00 0.  1.
         11    1    1    2    0    0  0.56256180582E+02 -0.15416712421E+02  0.16075613350E+03  0.17101160000E+03  0.00000000000E+00 0. -1.
</event>
<event>
 7    1  0.5109948E-006  0.1044884E+03  0.7561462E-02  0.1271131E+00
          1   -1    0    0  501    0  0.00000000000E+00  0.00000000000E+00  0.10285076757E+03  0.10285076757E+03  0.00000000000E+00 0. -1.
         -1   -1    0    0    0  501 -0.00000000000E+00 -0.00000000000E+00 -0.15570753112E+03  0.15570753112E+03  0.00000000000E+00 0.  1.
         23    2    1    2    0    0  0.32880863126E+02 -0.55990803661E+02 -0.18217834303E+02  0.14210698309E+03  0.12508550636E+03 0.  0.
          5    1    3    3  502    0 -0.86337568728E+01  0.22549334340E+02 -0.43255543298E+02  0.49714471363E+02  0.41800000000E+01 0. -1.
         -5    1    3    3    0  502  0.41514619999E+02 -0.78540138001E+02  0.25037708995E+02  0.92392511723E+02  0.41800000000E+01 0. -1.
        -11    1    1    2    0    0  0.35765956593E+01  0.58858059048E+02  0.88532951383E+01  0.59627543855E+02  0.00000000000E+00 0. -1.
         11    1    1    2    0    0 -0.36457458786E+02 -0.28672553866E+01 -0.43492224377E+02  0.56823771749E+02  0.00000000000E+00 0.  1.
</event>
<event>
 7    1  0.5109948E-006  0.1192921E+03  0.7561462E-02  0.1244269E+00
         -2   -1    0    0    0  501 -0.00000000000E+00  0.00000000000E+00  0.69744319090E+03  0.69744319090E+03  0.00000000000E+00 0.  1.
          2   -1    0    0  501    0  0.00000000000E+00 -0.00000000000E+00 -0.21289132340E+02  0.21289132340E+02  0.00000000000E+00 0. -1.
         23    2    1    2    0    0  0.37821309354E+02  0.40486679821E+02  0.40940897126E+03  0.43166298452E+03  0.12509038240E+03 0.  0.
          5    1    3    3  502    0  0.80896156937E+02  0.13836171071E+02  0.20108239920E+03  0.21722622195E+03  0.41800000000E+01 0.  1.
         -5    1    3    3    0  502 -0.43074847583E+02  0.26650508750E+02  0.20832657207E+03  0.21443676257E+03  0.41800000000E+01 0.  1.
        -11    1    1    2    0    0 -0.42871698985E+02  0.18274624559E+02  0.10390950294E+03  0.11388208498E+03  0.00000000000E+00 0. -1.
         11    1    1    2    0    0  0.50503896309E+01 -0.58761304380E+02  0.16283558435E+03  0.17318725374E+03  0.00000000000E+00 0.  1.
</event>
<event>
 7    1  0.5109948E-006  0.7655492E+02  0.7561462E-02  0.1339122E+00
         -1   -1    0    0    0  501 -0.00000000000E+00  0.00000000000E+00  0.70234470352E+02  0.70234470352E+02  0.00000000000E+00 0.  1.
          1   -1    0    0  501    0  0.00000000000E+00 -0.00000000000E+00 -0.20680165615E+03  0.20680165615E+03  0.00000000000E+00 0. -1.
         23    2    1    2    0    0 -0.50883986802E+02 -0.95814721238E+01 -0.65881691775E+02  0.15056040784E+03  0.12508818640E+03 0.  0.
          5    1    3    3  502    0 -0.45948797390E+02 -0.15758799248E+02  0.28020070063E+02  0.56233695074E+02  0.41800000000E+01 0. -1.
         -5    1    3    3    0  502 -0.49351894114E+01  0.61773271245E+01 -0.93901761838E+02  0.94326712766E+02  0.41800000000E+01 0. -1.
        -11    1    1    2    0    0  0.68828691428E+02  0.23468928635E+02 -0.27601796785E+02  0.77781993808E+02  0.00000000000E+00 0.  1.
         11    1    1    2    0    0 -0.17944704626E+02 -0.13887456511E+02 -0.43083697238E+02  0.48693724854E+02  0.00000000000E+00 0. -1.
</event>
<event>
 7    1  0.5109948E-006  0.1161372E+03  0.7561462E-02  0.1249609E+00
          4   -1    0    0  501    0  0.00000000000E+00  0.00000000000E+00  0.31886085729E+02  0.31886085729E+02  0.00000000000E+00 0. -1.
         -4   -1    0    0    0  501 -0.00000000000E+00 -0.00000000000E+00 -0.49971775193E+03  0.49971775193E+03  0.00000000000E+00 0.  1.
         23    2    1    2    0    0  0.46657702268E+02 -0.32836483864E+02 -0.21567550103E+03  0.25577156366E+03  0.12509194690E+03 0.  0.
          5    1    3    3  502    0 -0.33754130002E+02  0.18097956992E+02 -0.37735547772E+02  0.53928854106E+02  0.41800000000E+01 0.  1.
         -5    1    3    3    0  502  0.80411832270E+02 -0.50934440856E+02 -0.17793995325E+03  0.20184270955E+03  0.41800000000E+01 0.  1.
        -11    1    1    2    0    0 -0.15119410237E+02 -0.26934530822E+02 -0.15134319334E+03  0.15446303016E+03  0.00000000000E+00 0.  1.
         11    1    1    2    0    0 -0.31538292031E+02  0.59771014685E+02 -0.10081297184E+03  0.12136924385E+03  0.00000000000E+00 0. -1.
</event>
<event>
 7    1  0.5109948E-006  0.1081967E+03  0.7561462E-02  0.1263946E+00
         -1   -1    0    0    0  501 -0.00000000000E+00  0.00000000000E+00  0.49934162747E+02  0.49934162747E+02  0.00000000000E+00 0.  1.
          1   -1    0    0  501    0  0.00000000000E+00 -0.00000000000E+00 -0.36735094270E+03  0.36735094270E+03  0.00000000000E+00 0. -1.
         23    2    1    2    0    0 -0.58632100357E+01  0.59286500048E+02 -0.91289976804E+02  0.16592493176E+03  0.12509179347E+03 0.  0.
          5    1    3    3  502    0  0.43325125587E+02  0.72617093518E+02 -0.40491258680E+02  0.93847339907E+02  0.41800000000E+01 0.  1.
         -5    1    3    3    0  502 -0.49188335623E+02 -0.13330593470E+02 -0.50798718124E+02  0.72077591848E+02  0.41800000000E+01 0.  1.
        -11    1    1    2    0    0  0.42238750564E+01 -0.69814361474E+02 -0.22970770399E+03  0.24011979398E+03  0.00000000000E+00 0. -1.
         11    1    1    2    0    0  0.16393349793E+01  0.10527861426E+02  0.35809008367E+01  0.11240379717E+02  0.00000000000E+00 0.  1.
</event>
<event>
 7    1  0.5109948E-006  0.1069573E+03  0.7561462E-02  0.1266310E+00
         -2   -1    0    0    0  501 -0.00000000000E+00  0.00000000000E+00  0.16255559167E+03  0.16255559167E+03  0.00000000000E+00 0.  1.
          2   -1    0    0  501    0  0.00000000000E+00 -0.00000000000E+00 -0.91512134248E+02  0.91512134248E+02  0.00000000000E+00 0. -1.
         23    2    1    2    0    0 -0.68515343835E+01  0.19948577681E+02  0.92849101484E+02  0.15720444428E+03  0.12508953746E+03 0.  0.
          5    1    3    3  502    0 -0.60199609218E+02 -0.81559110806E+01  0.69514787154E+02  0.92413688751E+02  0.41800000000E+01 0. -1.
         -5    1    3    3    0  502  0.53348074834E+02  0.28104488762E+02  0.23334314330E+02  0.64790755531E+02  0.41800000000E+01 0. -1.
        -11    1    1    2    0    0  0.48463654517E+02 -0.67998196287E+01 -0.21081498398E+01  0.48983748855E+02  0.00000000000E+00 0.  1.
         11    1    1    2    0    0 -0.41612120133E+02 -0.13148758052E+02 -0.19697494225E+02  0.47879532778E+02  0.00000000000E+00 0. -1.
</event>
<event>
 7    1  0.5109948E-006  0.2062380E+03  0.7561462E-02  0.1144580E+00
          1   -1    0    0  501    0  0.00000000000E+00  0.00000000000E+00  0.18742113536E+03  0.18742113536E+03  0.00000000000E+00 0. -1.
         -1   -1    0    0    0  501 -0.00000000000E+00 -0.00000000000E+00 -0.27602364653E+03  0.27602364653E+03  0.00000000000E+00 0.  1.
         23    2    1    2    0    0  0.19109363324E+03  0.60545735878E+01 -0.10943401642E+03  0.25333032665E+03  0.12508803270E+03 0.  0.
          5    1    3    3  502    0  0.11697991259E+03 -0.30712707374E+02 -0.11926693204E+03  0.16991069367E+03  0.41800000000E+01 0. -1.
         -5    1    3    3    0  502  0.74113720645E+02  0.36767280962E+02  0.98329156166E+01  0.83419632981E+02  0.41800000000E+01 0. -1.
        -11    1    1    2    0    0 -0.10273817497E+03 -0.44878263878E+02  0.42611669171E+01  0.11219335412E+03  0.00000000000E+00 0.  1.
         11    1    1    2    0    0 -0.88355458267E+02  0.38823690290E+02  0.16570338340E+02  0.97921101128E+02  0.00000000000E+00 0. -1.
</event>
<event>
 7    1  0.5109948E-006  0.9041524E+02  0.7561462E-02  0.1301849E+00
          1   -1    0    0  501    0  0.00000000000E+00  0.00000000000E+00  0.13777469778E+03  0.13777469778E+03  0.00000000000E+00 0. -1.
         -1   -1    0    0    0  501 -0.00000000000E+00 -0.00000000000E+00 -0.11553018632E+03  0.11553018632E+03  0.00000000000E+00 0.  1.
         23    2    1    2    0    0 -0.11013703284E+02 -0.61547618127E+02  0.23216086716E+02  0.14176064269E+03  0.12509069580E+03 0.  0.
          5    1    3    3  502    0 -0.30020020938E+02 -0.43653148722E+02 -0.44342410472E+02  0.69213588384E+02  0.41800000000E+01 0. -1.
         -5    1    3    3    0  502  0.19006317654E+02 -0.17894469405E+02  0.67558497188E+02  0.72547054306E+02  0.41800000000E+01 0. -1.
        -11    1    1    2    0    0 -0.24585841878E+02  0.60865295319E+02 -0.23138308071E+02  0.69601933130E+02  0.00000000000E+00 0.  1.
         11    1    1    2    0    0  0.35599545162E+02  0.68232280884E+00  0.22166732817E+02  0.41942308281E+02  0.00000000000E+00 0. -1.
</event>
<event>
 7    1  0.5109948E-006  0.1069554E+03  0.7561462E-02  0.1266314E+00
          1   -1    0    0  501    0  0.00000000000E+00  0.00000000000E+00  0.55260870029E+03  0.55260870029E+03  0.00000000000E+00 0. -1.
         -1   -1    0    0    0  501 -0.00000000000E+00 -0.00000000000E+00 -0.26664302512E+02  0.26664302512E+02  0.00000000000E+00 0.  1.
         23    2    1    2    0    0 -0.31392593264E+02 -0.18581419104E+01  0.19111637800E+03  0.23056789639E+03  0.12508851787E+03 0.  0.
          5    1    3    3  502    0 -0.37815061932E+02  0.50925471267E+02  0.15098004956E+03  0.16381645308E+03  0.41800000000E+01 0. -1.
         -5    1    3    3    0  502  0.64224686676E+01 -0.52783613178E+02  0.40136328438E+02  0.66751443313E+02  0.41800000000E+01 0. -1.
        -11    1    1    2    0    0 -0.17999315344E+02 -0.32283832726E+02  0.11280678594E+03  0.11870801221E+03  0.00000000000E+00 0.  1.
         11    1    1    2    0    0  0.49391908608E+02  0.34141974636E+02  0.22202123383E+03  0.22999709420E+03  0.00000000000E+00 0. -1.
</event>
<event>
 7    1  0.5109948E-006  0.9674002E+02  0.7561462E-02  0.1287305E+00
         -2   -1    0    0    0  501 -0.00000000000E+00  0.00000000000E+00  0.21582492200E+02  0.21582492200E+02  0.00000000000E+00 0.  1.
          2   -1    0    0  501    0  0.00000000000E+00 -0.00000000000E+00 -0.85568047005E+03  0.85568047005E+03  0.00000000000E+00 0. -1.
         23    2    1    2    0    0  0.34553941047E+02  0.63622021800E+02 -0.33355732315E+03  0.36353056799E+03  0.12510895065E+03 0.  0.
          5    1    3    3  502    0 -0.55934455090E+01  0.17606150675E+02  0.49152732639E+01  0.19567715388E+02  0.41800000000E+01 0. -1.
         -5    1    3    3    0  502  0.40147386556E+02  0.46015871125E+02 -0.33847259642E+03  0.34396285260E+03  0.41800000000E+01 0. -1.
        -11    1    1    2    0    0 -0.19454494138E+02 -0.84976789727E+02 -0.42332152816E+03  0.43220440574E+03  0.00000000000E+00 0. -1.
         11    1    1    2    0    0 -0.15099446909E+02  0.21354767926E+02 -0.77219126539E+02  0.81527988529E+02  0.00000000000E+00 0.  1.
</event>
<event>
 7    1  0.5109948E-006  0.2360905E+03  0.7561462E-02  0.1122425E+00
         -4   -1    0    0    0  501 -0.00000000000E+00  0.00000000000E+00  0.53985430563E+03  0.53985430563E+03  0.00000000000E+00 0. -1.
          4   -1    0    0  501    0  0.00000000000E+00 -0.00000000000E+00 -0.18257161140E+03  0.18257161140E+03  0.00000000000E+00 0.  1.
         23    2    1    2    0    0  0.80861880656E+02 -0.21734064115E+03  0.39097352276E+03  0.47144988144E+03  0.12501638760E+03 0.  0.
          5    1    3    3  502    0  0.37178541915E+02 -0.37172791919E+02  0.19350072147E+03  0.20055937287E+03  0.41800000000E+01 0. -1.
         -5    1    3    3    0  502  0.43683338741E+02 -0.18016784923E+03  0.19747280129E+03  0.27089050857E+03  0.41800000000E+01 0. -1.
        -11    1    1    2    0    0 -0.35962010098E+02  0.56155013537E+02 -0.49297886339E+02  0.82927277256E+02  0.00000000000E+00 0.  1.
         11    1    1    2    0    0 -0.44899870559E+02  0.16118562761E+03  0.15607057802E+02  0.16804875834E+03  0.00000000000E+00 0. -1.
</event>
<event>
 7    1  0.5109948E-006  0.2207723E+03  0.7561462E-02  0.1133309E+00
          2   -1    0    0  501    0  0.00000000000E+00  0.00000000000E+00  0.89702630965E+03  0.89702630965E+03  0.00000000000E+00 0.  1.
         -2   -1    0    0    0  501 -0.00000000000E+00 -0.00000000000E+00 -0.63780391646E+02  0.63780391646E+02  0.00000000000E+00 0. -1.
         23    2    1    2    0    0 -0.20301890158E+03  0.62084174563E+02  0.40399557942E+03  0.47321024272E+03  0.12507752194E+03 0.  0.
          5    1    3    3  502    0 -0.17728806439E+03  0.48024154050E+02  0.40375520244E+03  0.44359115529E+03  0.41800000000E+01 0. -1.
         -5    1    3    3    0  502 -0.25730837186E+02  0.14060020513E+02  0.24037697421E+00  0.29619087430E+02  0.41800000000E+01 0. -1.
        -11    1    1    2    0    0  0.11552345810E+03 -0.77837317598E+02  0.29951270056E+03  0.33032132111E+03  0.00000000000E+00 0.  1.
         11    1    1    2    0    0  0.87495443484E+02  0.15753143036E+02  0.12973763803E+03  0.15727513747E+03  0.00000000000E+00 0. -1.
</event>
<event>
 7    1  0.5109948E-006  0.8658922E+02  0.7561462E-02  0.1311328E+00
          1   -1    0    0  501    0  0.00000000000E+00  0.00000000000E+00  0.37352086105E+02  0.37352086105E+02  0.00000000000E+00 0. -1.
         -1   -1    0    0    0  501 -0.00000000000E+00 -0.00000000000E+00 -0.38202826320E+03  0.38202826320E+03  0.00000000000E+00 0.  1.
         23    2    1    2    0    0  0.43973485115E+02  0.13422498916E+02 -0.21268391314E+03  0.25098977440E+03  0.12509032367E+03 0.  0.
          5    1    3    3  502    0  0.81736997294E+02  0.19233024310E+02 -0.93397244233E+02  0.12566369237E+03  0.41800000000E+01 0. -1.
         -5    1    3    3    0  502 -0.37763512179E+02 -0.58105253943E+01 -0.11928666891E+03  0.12532608203E+03  0.41800000000E+01 0. -1.
        -11    1    1    2    0    0 -0.35066564627E+02 -0.61857685123E+00 -0.14431331692E+03  0.14851390519E+03  0.00000000000E+00 0.  1.
         11    1    1    2    0    0 -0.89069204876E+01 -0.12803922065E+02  0.12321052968E+02  0.19876669717E+02  0.00000000000E+00 0. -1.
</event>
<event>
 7    1  0.5109948E-006  0.1155308E+03  0.7561462E-02  0.1250657E+00
          1   -1    0    0  501    0  0.00000000000E+00  0.00000000000E+00  0.78846894536E+03  0.78846894536E+03  0.00000000000E+00 0. -1.
         -1   -1    0    0    0  501 -0.00000000000E+00 -0.00000000000E+00 -0.18149024968E+02  0.18149024968E+02  0.00000000000E+00 0.  1.
         23    2    1    2    0    0 -0.18289482129E+02 -0.43939172748E+02  0.47104800808E+03  0.48969283591E+03  0.12509073333E+03 0.  0.
          5    1    3    3  502    0 -0.69936611687E+02 -0.40959597044E+02  0.26092502168E+03  0.27325474851E+03  0.41800000000E+01 0.  1.
         -5    1    3    3    0  502  0.51647129558E+02 -0.29795757033E+01  0.21012298640E+03  0.21643808740E+03  0.41800000000E+01 0.  1.
        -11    1    1    2    0    0  0.32373558153E+02 -0.16225997513E+02  0.16770625257E+03  0.17157131874E+03  0.00000000000E+00 0.  1.
         11    1    1    2    0    0 -0.14084076023E+02  0.60165170261E+02  0.13156565975E+03  0.14535381569E+03  0.00000000000E+00 0. -1.
</event>
<event>
 7    1  0.5109948E-006  0.9284945E+02  0.7561462E-02  0.1296094E+00
         -1   -1    0    0    0  501 -0.00000000000E+00  0.00000000000E+00  0.43624727699E+02  0.43624727699E+02  0.00000000000E+00 0.  1.
          1   -1    0    0  501    0  0.00000000000E+00 -0.00000000000E+00 -0.33375545315E+03  0.33375545315E+03  0.00000000000E+00 0. -1.
         23    2    1    2    0    0 -0.26414709362E+02 -0.77564567307E+00 -0.98890550265E+02  0.16163694129E+03  0.12509524915E+03 0.  0.
          5    1    3    3  502    0 -0.63242449213E+01 -0.49476270739E+02 -0.96531562491E+02  0.10873689529E+03  0.41800000000E+01 0. -1.
         -5    1    3    3    0  502 -0.20090464441E+02  0.48700625066E+02 -0.23589877736E+01  0.52900045998E+02  0.41800000000E+01 0. -1.
        -11    1    1    2    0    0 -0.27602321350E+02 -0.63203456984E+01 -0.13304810728E+03  0.13602806241E+03  0.00000000000E+00 0. -1.
         11    1    1    2    0    0  0.54017030712E+02  0.70959913715E+01 -0.58192067911E+02  0.79715177151E+02  0.00000000000E+00 0.  1.
</event>
<event>
 7    1  0.5109948E-006  0.9363781E+02  0.7561462E-02  0.1294274E+00
          2   -1    0    0  501    0  0.00000000000E+00  0.00000000000E+00  0.34143111642E+03  0.34143111642E+03  0.00000000000E+00 0. -1.
         -2   -1    0    0    0  501 -0.00000000000E+00 -0.00000000000E+00 -0.43269980207E+02  0.43269980207E+02  0.00000000000E+00 0.  1.
         23    2    1    2    0    0 -0.17261934144E+01  0.32084219604E+02  0.10129466486E+03  0.16413468023E+03  0.12508879739E+03 0.  0.
          5    1    3    3  502    0 -0.39228650206E+02  0.51869648471E+02  0.10255529017E+03  0.12150887775E+03  0.41800000000E+01 0. -1.
         -5    1    3    3    0  502  0.37502456792E+02 -0.19785428867E+02 -0.12606253117E+01  0.42625802480E+02  0.41800000000E+01 0. -1.
        -11    1    1    2    0    0 -0.31016885167E+02  0.34180671014E+01  0.19625419876E+02  0.36863090667E+02  0.00000000000E+00 0.  1.
         11    1    1    2    0    0  0.32743078582E+02 -0.35502286705E+02  0.17724105148E+03  0.18370332573E+03  0.00000000000E+00 0. -1.
</event>
<event>
 6    1  0.5109948E-006  0.1026280E+03  0.7561462E-02  0.1274865E+00
          1   -1    0    0  501    0  0.00000000000E+00  0.00000000000E+00  0.11907336327E+03  0.11907336327E+03  0.00000000000E+00 0. -1.
         -1   -1    0    0    0  501 -0.00000000000E+00 -0.00000000000E+00 -0.17218323495E+03  0.17218323495E+03  0.00000000000E+00 0.  1.
          5    1    1    2  502    0 -0.70048868157E+02  0.45564130345E+01 -0.14783145661E+02  0.71858323286E+02  0.41800000000E+01 0. -1.
         -5    1    1    2    0  502  0.54450894311E+02 -0.39715099555E-01 -0.94133913752E+02  0.10882815622E+03  0.41800000000E+01 0.  1.
        -11    1    1    2    0    0  0.14341113458E+02 -0.41197059170E+02 -0.18380370874E+00  0.43622230609E+02  0.00000000000E+00 0. -1.
         11    1    1    2    0    0  0.12568603880E+01  0.36680361235E+02  0.55990991440E+02  0.66947888098E+02  0.00000000000E+00 0.  1.
</event>
<event>
 7    1  0.5109948E-006  0.1314292E+03  0.7561462E-02  0.1225350E+00
          2   -1    0    0  501    0  0.00000000000E+00  0.00000000000E+00  0.46959779797E+03  0.46959779797E+03  0.00000000000E+00 0. -1.
         -2   -1    0    0    0  501 -0.00000000000E+00 -0.00000000000E+00 -0.62624462189E+02  0.62624462189E+02  0.00000000000E+00 0.  1.
         23    2    1    2    0    0 -0.12279341887E+02 -0.11893674289E+03  0.23014334406E+03  0.28794212649E+03  0.12509187962E+03 0.  0.
          5    1    3    3  502    0 -0.56229778799E+01 -0.50123691874E+02  0.20970944716E+03  0.21573021809E+03  0.41800000000E+01 0.  1.
         -5    1    3    3    0  502 -0.66563640071E+01 -0.68813051021E+02  0.20433896891E+02  0.72211908400E+02  0.41800000000E+01 0.  1.
        -11    1    1    2    0    0  0.42330780576E+02  0.96835073329E+02  0.59757167782E+02  0.12140776545E+03  0.00000000000E+00 0.  1.
         11    1    1    2    0    0 -0.30051438689E+02  0.22101669566E+02  0.11707282395E+03  0.12287236822E+03  0.00000000000E+00 0. -1.
</event>
<event>
 7    1  0.5109948E-006  0.9882142E+02  0.7561462E-02  0.1282794E+00
         -3   -1    0    0    0  501 -0.00000000000E+00  0.00000000000E+00  0.27760740886E+02  0.27760740886E+02  0.00000000000E+00 0.  1.
          3   -1    0    0  501    0  0.00000000000E+00 -0.00000000000E+00 -0.49803362047E+03  0.49803362047E+03  0.00000000000E+00 0. -1.
         23    2    1    2    0    0 -0.46881724115E+02 -0.21199545614E+01 -0.20389197748E+03  0.24376500532E+03  0.12508816521E+03 0.  0.
          5    1    3    3  502    0  0.26080929713E+01  0.56426276167E+02 -0.92959637758E+02  0.10885629721E+03  0.41800000000E+01 0.  1.
         -5    1    3    3    0  502 -0.49489817086E+02 -0.58546230728E+02 -0.11093233972E+03  0.13490870811E+03  0.41800000000E+01 0.  1.
        -11    1    1    2    0    0  0.53679773432E+02 -0.55642497647E+01 -0.26635742561E+03  0.27176967661E+03  0.00000000000E+00 0. -1.
         11    1    1    2    0    0 -0.67980493164E+01  0.76842043261E+01 -0.23476497680E-01  0.10259679419E+02  0.00000000000E+00 0.  1.
</event>
<event>
 7    1  0.5109948E-006  0.1076787E+03  0.7561462E-02  0.1264930E+00
          4   -1    0    0  501    0  0.00000000000E+00  0.00000000000E+00  0.12763329016E+03  0.12763329016E+03  0.00000000000E+00 0. -1.
         -4   -1    0    0    0  501 -0.00000000000E+00 -0.00000000000E+00 -0.96082619188E+02  0.96082619188E+02  0.00000000000E+00 0.  1.
         23    2    1    2    0    0  0.20753198077E+02  0.68085648572E+01  0.11793194350E+02  0.12737384936E+03  0.12493184655E+03 0.  0.
          5    1    3    3  502    0  0.40844177920E+02 -0.47717229735E+02  0.24836443575E+02  0.67672019425E+02  0.41800000000E+01 0. -1.
         -5    1    3    3    0  502 -0.20090979843E+02  0.54525794592E+02 -0.13043249225E+02  0.59701829933E+02  0.41800000000E+01 0. -1.
        -11    1    1    2    0    0 -0.55110538617E+02 -0.18061933053E+02  0.95551186171E+01  0.58776740162E+02  0.00000000000E+00 0. -1.
         11    1    1    2    0    0  0.34357340540E+02  0.11253368195E+02  0.10202358002E+02  0.37565319825E+02  0.00000000000E+00 0.  1.
</event>
<event>
 7    1  0.5109948E-006  0.1081598E+03  0.7561462E-02  0.1264016E+00
         -4   -1    0    0    0  501 -0.00000000000E+00  0.00000000000E+00  0.55611828057E+02  0.55611828057E+02  0.00000000000E+00 0.  1.
          4   -1    0    0  501    0  0.00000000000E+00 -0.00000000000E+00 -0.28424179347E+03  0.28424179347E+03  0.00000000000E+00 0. -1.
         23    2    1    2    0    0  0.52738241915E+02  0.14226137583E+02 -0.79905167073E+02  0.15807963520E+03  0.12498251954E+03 0.  0.
          5    1    3    3  502    0 -0.16337325180E+02 -0.36201991088E+02  0.14552379263E+01  0.39963514237E+02  0.41800000000E+01 0.  1.
         -5    1    3    3    0  502  0.69075567095E+02  0.50428128671E+02 -0.81360404999E+02  0.11811612097E+03  0.41800000000E+01 0.  1.
        -11    1    1    2    0    0 -0.48184961325E+02  0.22901353033E+02 -0.12875726817E+03  0.13937251012E+03  0.00000000000E+00 0. -1.
         11    1    1    2    0    0 -0.45532805899E+01 -0.37127490616E+02 -0.19967530168E+02  0.42401476207E+02  0.00000000000E+00 0.  1.
</event>
<event>
 7    1  0.5109948E-006  0.1021933E+03  0.7561462E-02  0.1275750E+00
          3   -1    0    0  501    0  0.00000000000E+00  0.00000000000E+00  0.80816451156E+02  0.80816451156E+02  0.00000000000E+00 0. -1.
         -3   -1    0    0    0  501 -0.00000000000E+00 -0.00000000000E+00 -0.15792351436E+03  0.15792351436E+03  0.00000000000E+00 0.  1.
         23    2    1    2    0    0  0.20063215296E+02  0.30964639093E+02 -0.43749993781E+02  0.13755712468E+03  0.12508620672E+03 0.  0.
          5    1    3    3  502    0 -0.36927879359E+02  0.48549549255E+02 -0.47833903071E+02  0.77629129132E+02  0.41800000000E+01 0. -1.
         -5    1    3    3    0  502  0.56991094655E+02 -0.17584910162E+02  0.40839092897E+01  0.59927995549E+02  0.41800000000E+01 0. -1.
        -11    1    1    2    0    0  0.19340277201E+02 -0.38734923470E+02  0.74453507579E+01  0.43930329687E+02  0.00000000000E+00 0.  1.
         11    1    1    2    0    0 -0.39403492497E+02  0.77702843773E+01 -0.40802420184E+02  0.57252511152E+02  0.00000000000E+00 0. -1.
</event>
<event>
 7    1  0.5109948E-006  0.1389566E+03  0.7561462E-02  0.1214740E+00
          2   -1    0    0  501    0  0.00000000000E+00  0.00000000000E+00  0.22762980273E+03  0.22762980273E+03  0.00000000000E+00 0. -1.
         -2   -1    0    0    0  501 -0.00000000000E+00 -0.00000000000E+00 -0.10454457425E+03  0.10454457425E+03  0.00000000000E+00 0.  1.
         23    2    1    2    0    0  0.10238586611E+03 -0.33640468427E+02  0.44268793375E+02  0.17094848577E+03  0.12509641093E+03 0.  0.
          5    1    3    3  502    0 -0.23503220516E+02  0.10325004651E+02 -0.86725520034E+01  0.27417013950E+02  0.41800000000E+01 0.  1.
         -5    1    3    3    0  502  0.12588908662E+03 -0.43965473077E+02  0.52941345379E+02  0.14353147182E+03  0.41800000000E+01 0.  1.
        -11    1    1    2    0    0 -0.40827710255E+02 -0.11198418355E+02 -0.10729552096E+02  0.43674131778E+02  0.00000000000E+00 0.  1.
         11    1    1    2    0    0 -0.61558155850E+02  0.44838886782E+02  0.89545987201E+02  0.11755175942E+03  0.00000000000E+00 0. -1.
</event>
<event>
 7    1  0.5109948E-006  0.5902231E+02  0.7561462E-02  0.1401981E+00
         -1   -1    0    0    0  501 -0.00000000000E+00  0.00000000000E+00  0.62445024200E+03  0.62445024200E+03  0.00000000000E+00 0.  1.
          1   -1    0    0  501    0  0.00000000000E+00 -0.00000000000E+00 -0.74981502992E+02  0.74981502992E+02  0.00000000000E+00 0. -1.
         23    2    1    2    0    0  0.11374319210E+02 -0.17005536334E+02  0.58736659920E+03  0.60084948521E+03  0.12490804062E+03 0.  0.
          5    1    3    3  502    0 -0.75995464601E+01 -0.28184726724E+02  0.26839420834E+02  0.39874287926E+02  0.41800000000E+01 0. -1.
         -5    1    3    3    0  502  0.18973865670E+02  0.11179190390E+02  0.56052717837E+03  0.56097519728E+03  0.41800000000E+01 0. -1.
        -11    1    1    2    0    0 -0.56061811310E+01 -0.24043148601E+02  0.16866062254E+02  0.29899269514E+02  0.00000000000E+00 0.  1.
         11    1    1    2    0    0 -0.57681380789E+01  0.41048684935E+02 -0.54763922443E+02  0.68682990275E+02  0.00000000000E+00 0. -1.
</event>
<event>
 6    1  0.5109948E-006  0.1965086E+03  0.7561462E-02  0.1152719E+00
         -1   -1    0    0    0  501 -0.00000000000E+00  0.00000000000E+00  0.46099831584E+02  0.46099831584E+02  0.00000000000E+00 0.  1.
          1   -1    0    0  501    0  0.00000000000E+00 -0.00000000000E+00 -0.12683043192E+04  0.12683043192E+04  0.00000000000E+00 0. -1.
          5    1    1    2  502    0 -0.33103056597E+02  0.18114149800E+02 -0.30627179939E+02  0.48779415024E+02  0.41800000000E+01 0. -1.
         -5    1    1    2    0  502  0.12916879134E+03 -0.12897830651E+03 -0.25710345378E+03  0.31534051207E+03  0.41800000000E+01 0.  1.
        -11    1    1    2    0    0 -0.76344233360E+02  0.19223685751E+02 -0.40644721981E+03  0.41400161178E+03  0.00000000000E+00 0. -1.
         11    1    1    2    0    0 -0.19721501385E+02  0.91640470962E+02 -0.52802663411E+03  0.53628261194E+03  0.00000000000E+00 0.  1.
</event>
<event>
 7    1  0.5109948E-006  0.8416132E+02  0.7561462E-02  0.1317640E+00
         -2   -1    0    0    0  501 -0.00000000000E+00  0.00000000000E+00  0.82075295420E+02  0.82075295420E+02  0.00000000000E+00 0. -1.
          2   -1    0    0  501    0  0.00000000000E+00 -0.00000000000E+00 -0.17114826937E+03  0.17114826937E+03  0.00000000000E+00 0.  1.
         23    2    1    2    0    0 -0.69309459867E+01  0.48726951537E+01 -0.45749610678E+01  0.12546156695E+03  0.12509153985E+03 0.  0.
          5    1    3    3  502    0 -0.39044316310E+02 -0.25132412497E+01  0.48743452081E+02  0.62643208239E+02  0.41800000000E+01 0.  1.
         -5    1    3    3    0  502  0.32113370324E+02  0.73859364035E+01 -0.53318413149E+02  0.62818358708E+02  0.41800000000E+01 0.  1.
        -11    1    1    2    0    0 -0.24313559045E+02 -0.41202675671E+02 -0.44658214784E+02  0.65445899669E+02  0.00000000000E+00 0.  1.
         11    1    1    2    0    0  0.31244505032E+02  0.36329980517E+02 -0.39839798101E+02  0.62316098175E+02  0.00000000000E+00 0. -1.
</event>
<event>
 7    1  0.5109948E-006  0.1249344E+03  0.7561462E-02  0.1235172E+00
          2   -1    0    0  501    0  0.00000000000E+00  0.00000000000E+00  0.17744799437E+03  0.17744799437E+03  0.00000000000E+00 0. -1.
         -2   -1    0    0    0  501 -0.00000000000E+00 -0.00000000000E+00 -0.11386212118E+03  0.11386212118E+03  0.00000000000E+00 0.  1.
         23    2    1    2    0    0 -0.85819772217E+02  0.14928739976E+02  0.62318934549E+01  0.15255130296E+03  0.12508062583E+03 0.  0.
          5    1    3    3  502    0 -0.22962327975E+02  0.66343393391E+02  0.10582279756E+02  0.71120822531E+02  0.41800000000E+01 0.  1.
         -5    1    3    3    0  502 -0.62857444242E+02 -0.51414653415E+02 -0.43503863012E+01  0.81430480432E+02  0.41800000000E+01 0.  1.
        -11    1    1    2    0    0  0.33544705878E+02 -0.28722282101E+02  0.70435272762E+02  0.83134496033E+02  0.00000000000E+00 0. -1.
         11    1    1    2    0    0  0.52275066340E+02  0.13793542126E+02 -0.13081293027E+02  0.55624316557E+02  0.00000000000E+00 0.  1.
</event>
<event>
 7    1  0.5109948E-006  0.1774651E+03  0.7561462E-02  0.1170279E+00
         -2   -1    0    0    0  501 -0.00000000000E+00  0.00000000000E+00  0.80100855346E+03  0.80100855346E+03  0.00000000000E+00 0.  1.
          2   -1    0    0  501    0  0.00000000000E+00 -0.00000000000E+00 -0.48250030547E+02  0.48250030547E+02  0.00000000000E+00 0. -1.
         23    2    1    2    0    0  0.11169549881E+03  0.87658633755E+02  0.57357803003E+03  0.60398507531E+03  0.12508514752E+03 0.  0.
          5    1    3    3  502    0  0.74544596575E+02  0.11808431693E+03  0.39339057442E+03  0.41746187757E+03  0.41800000000E+01 0. -1.
         -5    1    3    3    0  502  0.37150902237E+02 -0.30425683173E+02  0.18018745561E+03  0.18652319773E+03  0.41800000000E+01 0. -1.
        -11    1    1    2    0    0 -0.78412263031E+02 -0.57671352690E+01  0.93550406368E+02  0.12220237876E+03  0.00000000000E+00 0. -1.
         11    1    1    2    0    0 -0.33283235782E+02 -0.81891498486E+02  0.85630086511E+02  0.12307112994E+03  0.00000000000E+00 0.  1.
</event>
<event>
 7    1  0.5109948E-006  0.1259576E+03  0.7561462E-02  0.1233580E+00
          1   -1    0    0  501    0  0.00000000000E+00  0.00000000000E+00  0.73612407530E+03  0.73612407530E+03  0.00000000000E+00 0. -1.
         -1   -1    0    0    0  501 -0.00000000000E+00 -0.00000000000E+00 -0.25885829712E+02  0.25885829712E+02  0.00000000000E+00 0.  1.
         23    2    1    2    0    0  0.27354256414E+02 -0.80990428424E+02  0.38644382961E+03  0.41508401626E+03  0.12509277465E+03 0.  0.
          5    1    3    3  502    0 -0.36359199859E+02 -0.11547961231E+02  0.37663558510E+02  0.53771394464E+02  0.41800000000E+01 0.  1.
         -5    1    3    3    0  502  0.63713456273E+02 -0.69442467194E+02  0.34878027110E+03  0.36131262180E+03  0.41800000000E+01 0.  1.
        -11    1    1    2    0    0 -0.23714537045E+02  0.98502181437E+02  0.30303769967E+03  0.31952606535E+03  0.00000000000E+00 0. -1.
         11    1    1    2    0    0 -0.36397193685E+01 -0.17511753012E+02  0.20756716297E+02  0.27399823395E+02  0.00000000000E+00 0.  1.
</event>
<event>
 7    1  0.5109948E-006  0.1186666E+03  0.7561462E-02  0.1245313E+00
         -4   -1    0    0    0  501 -0.00000000000E+00  0.00000000000E+00  0.85470679793E+02  0.85470679793E+02  0.00000000000E+00 0. -1.
          4   -1    0    0  501    0  0.00000000000E+00 -0.00000000000E+00 -0.20943975154E+03  0.20943975154E+03  0.00000000000E+00 0.  1.
         23    2    1    2    0    0 -0.70789516345E+02  0.28723632503E+02 -0.87093574834E+02  0.17049769226E+03  0.12509184466E+03 0.  0.
          5    1    3    3  502    0 -0.86505567132E+02 -0.23669388296E+02 -0.67188367466E+02  0.11213920907E+03  0.41800000000E+01 0.  1.
         -5    1    3    3    0  502  0.15716050787E+02  0.52393020799E+02 -0.19905207368E+02  0.58358483198E+02  0.41800000000E+01 0.  1.
        -11    1    1    2    0    0  0.10047148508E+02  0.14855069440E+02 -0.45741007640E+02  0.49131029514E+02  0.00000000000E+00 0.  1.
         11    1    1    2    0    0  0.60742367837E+02 -0.43578701943E+02  0.88655107251E+01  0.75281709557E+02  0.00000000000E+00 0. -1.
</event>
<event>
 7    1  0.5109948E-006  0.1674318E+03  0.7561462E-02  0.1180553E+00
          3   -1    0    0  501    0  0.00000000000E+00  0.00000000000E+00  0.10445757499E+04  0.10445757499E+04  0.00000000000E+00 0. -1.
         -3   -1    0    0    0  501 -0.00000000000E+00 -0.00000000000E+00 -0.33212610148E+02  0.33212610148E+02  0.00000000000E+00 0.  1.
         23    2    1    2    0    0 -0.12223734663E+02  0.15031275225E+03  0.53581654652E+03  0.57051683287E+03  0.12508693731E+03 0.  0.
          5    1    3    3  502    0  0.16242109773E+02  0.11817662841E+03  0.20751569401E+03  0.23939456404E+03  0.41800000000E+01 0. -1.
         -5    1    3    3    0  502 -0.28465844436E+02  0.32136123836E+02  0.32830085252E+03  0.33112226883E+03  0.41800000000E+01 0. -1.
        -11    1    1    2    0    0 -0.32383444753E+02 -0.30354487376E+02  0.17637486085E+03  0.18187406065E+03  0.00000000000E+00 0. -1.
         11    1    1    2    0    0  0.44607179416E+02 -0.11995826487E+03  0.29917173241E+03  0.32539746655E+03  0.00000000000E+00 0.  1.
</event>
<event>
 7    1  0.5109948E-006  0.7357689E+02  0.7561462E-02  0.1348335E+00
         -1   -1    0    0    0  501 -0.00000000000E+00  0.00000000000E+00  0.28392312282E+02  0.28392312282E+02  0.00000000000E+00 0.  1.
          1   -1    0    0  501    0  0.00000000000E+00 -0.00000000000E+00 -0.52617859460E+03  0.52617859460E+03  0.00000000000E+00 0. -1.
         23    2    1    2    0    0  0.34645461443E+02 -0.41220852676E+02 -0.32850821901E+03  0.35562026569E+03  0.12509459108E+03 0.  0.
          5    1    3    3  502    0  0.16567279548E+02  0.30969460243E+01 -0.29843348159E+03  0.29893825643E+03  0.41800000000E+01 0. -1.
         -5    1    3    3    0  502  0.18078181895E+02 -0.44317798700E+02 -0.30074737418E+02  0.56682009253E+02  0.41800000000E+01 0. -1.
        -11    1    1    2    0    0 -0.40077613161E+02 -0.89344498455E-01 -0.14562479143E+03  0.15103907752E+03  0.00000000000E+00 0. -1.
         11    1    1    2    0    0  0.54321517182E+01  0.41310197175E+02 -0.23653271878E+02  0.47911563671E+02  0.00000000000E+00 0.  1.
</event>
<event>
 7    1  0.5109948E-006  0.9394716E+02  0.7561462E-02  0.1293565E+00
         -1   -1    0    0    0  501 -0.00000000000E+00  0.00000000000E+00  0.34617342898E+02  0.34617342898E+02  0.00000000000E+00 0.  1.
          1   -1    0    0  501    0  0.00000000000E+00 -0.00000000000E+00 -0.41110224995E+03  0.41110224995E+03  0.00000000000E+00 0. -1.
         23    2    1    2    0    0 -0.30846999339E+02  0.34258129228E+02 -0.17240747588E+03  0.21792854647E+03  0.12507340580E+03 0.  0.
          5    1    3    3  502    0  0.24685284448E+02  0.52979527996E+01  0.80810396327E+01  0.26836675906E+02  0.41800000000E+01 0. -1.
         -5    1    3    3    0  502 -0.55532283787E+02  0.28960176429E+02 -0.18048851552E+03  0.19109187056E+03  0.41800000000E+01 0. -1.
        -11    1    1    2    0    0  0.57741667722E+02 -0.42168202168E+02 -0.12656510958E+03  0.14536500414E+03  0.00000000000E+00 0. -1.
         11    1    1    2    0    0 -0.26894668383E+02  0.79100729395E+01 -0.77512321588E+02  0.82426042240E+02  0.00000000000E+00 0.  1.
</event>
<event>
 6    1  0.5109948E-006  0.1065357E+03  0.7561462E-02  0.1267123E+00
         -1   -1    0    0    0  501 -0.00000000000E+00  0.00000000000E+00  0.12769919863E+03  0.12769919863E+03  0.00000000000E+00 0.  1.
          1   -1    0    0  501    0  0.00000000000E+00 -0.00000000000E+00 -0.10711378506E+03  0.10711378506E+03  0.00000000000E+00 0. -1.
          5    1    1    2  502    0 -0.42611482703E+02  0.54290099263E+02  0.76668431972E+01  0.69565840904E+02  0.41800000000E+01 0. -1.
         -5    1    1    2    0  502  0.26715805113E+02 -0.63735427944E+02 -0.18296174237E+02  0.71611182156E+02  0.41800000000E+01 0.  1.
        -11    1    1    2    0    0 -0.37925261860E+01 -0.30196190855E+02  0.38184868762E+02  0.48829063060E+02  0.00000000000E+00 0.  1.
         11    1    1    2    0    0  0.19688203776E+02  0.39641519536E+02 -0.69701241534E+01  0.44806897569E+02  0.00000000000E+00 0. -1.
</event>
<event>
 7    1  0.5109948E-006  0.1535559E+03  0.7561462E-02  0.1196170E+00
          2   -1    0    0  501    0  0.00000000000E+00  0.00000000000E+00  0.32097404714E+03  0.32097404714E+03  0.00000000000E+00 0. -1.
         -2   -1    0    0    0  501 -0.00000000000E+00 -0.00000000000E+00 -0.14521604198E+03  0.14521604198E+03  0.00000000000E+00 0.  1.
         23    2    1    2    0    0  0.54106749174E+02 -0.93780957863E+02 -0.72231824297E+02  0.18051992060E+03  0.12509035506E+03 0.  0.
          5    1    3    3  502    0  0.95018242938E+02 -0.66485652562E+02 -0.52395369784E+02  0.12732460745E+03  0.41800000000E+01 0. -1.
         -5    1    3    3    0  502 -0.40911493764E+02 -0.27295305302E+02 -0.19836454513E+02  0.53195313150E+02  0.41800000000E+01 0. -1.
        -11    1    1    2    0    0 -0.52524271225E+02  0.48320095873E+01  0.87285238997E+02  0.10198460831E+03  0.00000000000E+00 0.  1.
         11    1    1    2    0    0 -0.15824779488E+01  0.88948948276E+02  0.16070459046E+03  0.18368556021E+03  0.00000000000E+00 0. -1.
</event>
<event>
 7    1  0.5109948E-006  0.1120688E+03  0.7561462E-02  0.1256786E+00
         -4   -1    0    0    0  501 -0.00000000000E+00  0.00000000000E+00  0.38023370852E+03  0.38023370852E+03  0.00000000000E+00 0.  1.
          4   -1    0    0  501    0  0.00000000000E+00 -0.00000000000E+00 -0.40370153387E+02  0.40370153387E+02  0.00000000000E+00 0. -1.
         23    2    1    2    0    0  0.34417793744E+02  0.21604227901E+02  0.26710613413E+03  0.29773282188E+03  0.12509124328E+03 0.  0.
          5    1    3    3  502    0  0.78040254638E+02  0.31255937947E+02  0.20017816095E+03  0.21715428507E+03  0.41800000000E+01 0.  1.
         -5    1    3    3    0  502 -0.43622460894E+02 -0.96517100463E+01  0.66927973181E+02  0.80578536815E+02  0.41800000000E+01 0.  1.
        -11    1    1    2    0    0  0.29076370469E+02 -0.55363201524E+01  0.39660666536E+02  0.49487924088E+02  0.00000000000E+00 0.  1.
         11    1    1    2    0    0 -0.63494164213E+02 -0.16067907749E+02  0.33096754463E+02  0.73383115936E+02  0.00000000000E+00 0. -1.
</event>
<event>
 7    1  0.5109948E-006  0.3142806E+03  0.7561462E-02  0.1078312E+00
         -1   -1    0    0    0  501 -0.00000000000E+00  0.00000000000E+00  0.39140141669E+03  0.39140141669E+03  0.00000000000E+00 0.  1.
          1   -1    0    0  501    0  0.00000000000E+00 -0.00000000000E+00 -0.32809691685E+03  0.32809691685E+03  0.00000000000E+00 0. -1.
         23    2    1    2    0    0 -0.11329864152E+03 -0.27241332734E+03  0.20408950094E+03  0.37991495664E+03  0.12504897761E+03 0.  0.
          5    1    3    3  502    0 -0.32176306181E+02  0.32100815692E+01  0.14660582820E+02  0.35749467014E+02  0.41800000000E+01 0.  1.
         -5    1    3    3    0  502 -0.81122335338E+02 -0.27562340891E+03  0.18942891812E+03  0.34416548962E+03  0.41800000000E+01 0.  1.
        -11    1    1    2    0    0  0.99929677235E+02  0.27700329449E+03 -0.13047417332E+03  0.32208737239E+03  0.00000000000E+00 0.  1.
         11    1    1    2    0    0  0.13368964284E+02 -0.45899671500E+01 -0.10310827774E+02  0.17496004511E+02  0.00000000000E+00 0. -1.
</event>
<event>
 7    1  0.5109948E-006  0.1494513E+03  0.7561462E-02  0.1201149E+00
         -2   -1    0    0    0  501 -0.00000000000E+00  0.00000000000E+00  0.38162104991E+02  0.38162104991E+02  0.00000000000E+00 0.  1.
          2   -1    0    0  501    0  0.00000000000E+00 -0.00000000000E+00 -0.60168624355E+03  0.60168624355E+03  0.00000000000E+00 0. -1.
         23    2    1    2    0    0 -0.23863761085E+02  0.10274421065E+03 -0.27267498771E+03  0.31800176012E+03  0.12509044170E+03 0.  0.
          5    1    3    3  502    0  0.40258948481E+02  0.89197615909E+02 -0.16424697467E+03  0.19123686544E+03  0.41800000000E+01 0. -1.
         -5    1    3    3    0  502 -0.64122709566E+02  0.13546594739E+02 -0.10842801304E+03  0.12676489468E+03  0.41800000000E+01 0. -1.
        -11    1    1    2    0    0  0.44793115904E+02 -0.18479977234E+02 -0.76191161011E+02  0.90294107267E+02  0.00000000000E+00 0. -1.
         11    1    1    2    0    0 -0.20929354819E+02 -0.84264233414E+02 -0.21465798984E+03  0.23155248115E+03  0.00000000000E+00 0.  1.
</event>
<event>
 7    1  0.5109948E-006  0.1473801E+03  0.7561462E-02  0.1203730E+00
         -1   -1    0    0    0  501 -0.00000000000E+00  0.00000000000E+00  0.44456391043E+02  0.44456391043E+02  0.00000000000E+00 0.  1.
          1   -1    0    0  501    0  0.00000000000E+00 -0.00000000000E+00 -0.58057526256E+03  0.58057526256E+03  0.00000000000E+00 0. -1.
         23    2    1    2    0    0  0.22912350939E+02 -0.98200977160E+02 -0.16757639714E+03  0.23216001872E+03  0.12509203680E+03 0.  0.
          5    1    3    3  502    0  0.57150439676E+01 -0.12645027390E+03 -0.14099556287E+03  0.18952454893E+03  0.41800000000E+01 0. -1.
         -5    1    3    3    0  502  0.17197306972E+02  0.28249296741E+02 -0.26580834266E+02  0.42635469785E+02  0.41800000000E+01 0. -1.
        -11    1    1    2    0    0  0.34604090639E+02  0.41127665089E+02 -0.12087609909E+03  0.13228741156E+03  0.00000000000E+00 0.  1.
         11    1    1    2    0    0 -0.57516441578E+02  0.57073312071E+02 -0.24766637529E+03  0.26058422333E+03  0.00000000000E+00 0. -1.
</event>
<event>
 7    1  0.5109948E-006  0.1168567E+03  0.7561462E-02  0.1248374E+00
         -1   -1    0    0    0  501 -0.00000000000E+00  0.00000000000E+00  0.51376044053E+02  0.51376044053E+02  0.00000000000E+00 0.  1.
          1   -1    0    0  501    0  0.00000000000E+00 -0.00000000000E+00 -0.56077379910E+03  0.56077379910E+03  0.00000000000E+00 0. -1.
         23    2    1    2    0    0  0.17329197457E+02  0.85147997175E+02 -0.11681284907E+03  0.19194623470E+03  0.12509049844E+03 0.  0.
          5    1    3    3  502    0 -0.31770558223E+02  0.26694901509E+02  0.10891934237E+02  0.43105600190E+02  0.41800000000E+01 0.  1.
         -5    1    3    3    0  502  0.49099755680E+02  0.58453095666E+02 -0.12770478331E+03  0.14884063451E+03  0.41800000000E+01 0.  1.
        -11    1    1    2    0    0 -0.40711807595E+02 -0.18115799635E+02 -0.37944354140E+02  0.58526980831E+02  0.00000000000E+00 0.  1.
         11    1    1    2    0    0  0.23382610137E+02 -0.67032197539E+02 -0.35464055184E+03  0.36167662763E+03  0.00000000000E+00 0. -1.
</event>
<event>
 7    1  0.5109948E-006  0.1922298E+03  0.7561462E-02  0.1156465E+00
          1   -1    0    0  501    0  0.00000000000E+00  0.00000000000E+00  0.23508912982E+03  0.23508912982E+03  0.00000000000E+00 0. -1.
         -1   -1    0    0    0  501 -0.00000000000E+00 -0.00000000000E+00 -0.20936645763E+03  0.20936645763E+03  0.00000000000E+00 0.  1.
         23    2    1    2    0    0  0.16155285318E+03 -0.76101330373E+02 -0.57957392503E+02  0.22560390757E+03  0.12508927576E+03 0.  0.
          5    1    3    3  502    0  0.41409474738E+02 -0.71767498245E+02 -0.64568922842E+02  0.10512819127E+03  0.41800000000E+01 0.  1.
         -5    1    3    3    0  502  0.12014337844E+03 -0.43338321287E+01  0.66115303390E+01  0.12047571630E+03  0.41800000000E+01 0.  1.
        -11    1    1    2    0    0 -0.14632371714E+03  0.57631535344E+02  0.30033465415E+02  0.16010631814E+03  0.00000000000E+00 0.  1.
         11    1    1    2    0    0 -0.15229136040E+02  0.18469795029E+02  0.53646599274E+02  0.58745361745E+02  0.00000000000E+00 0. -1.
</event>
<event>
 7    1  0.5109948E-006  0.7072345E+02  0.7561462E-02  0.1357650E+00
         -4   -1    0    0    0  501 -0.00000000000E+00  0.00000000000E+00  0.38884353105E+02  0.38884353105E+02  0.00000000000E+00 0.  1.
          4   -1    0    0  501    0  0.00000000000E+00 -0.00000000000E+00 -0.36363566227E+03  0.36363566227E+03  0.00000000000E+00 0. -1.
         23    2    1    2    0    0 -0.29139224603E+02  0.29960224651E+02 -0.14769470036E+03  0.19801149746E+03  0.12509244237E+03 0.  0.
          5    1    3    3  502    0 -0.23358271943E+02  0.24569838804E+02 -0.17030537219E+03  0.17369708704E+03  0.41800000000E+01 0.  1.
         -5    1    3    3    0  502 -0.57809526603E+01  0.53903858474E+01  0.22610671833E+02  0.24314410418E+02  0.41800000000E+01 0.  1.
        -11    1    1    2    0    0 -0.81568117618E+01 -0.53582720746E+02 -0.68718926809E+02  0.87521039999E+02  0.00000000000E+00 0.  1.
         11    1    1    2    0    0  0.37296036365E+02  0.23622496095E+02 -0.10833768200E+03  0.11698747792E+03  0.00000000000E+00 0. -1.
</event>
<event>
 7    1  0.5109948E-006  0.1561750E+03  0.7561462E-02  0.1193084E+00
         -1   -1    0    0    0  501 -0.00000000000E+00  0.00000000000E+00  0.23066876664E+03  0.23066876664E+03  0.00000000000E+00 0.  1.
          1   -1    0    0  501    0  0.00000000000E+00 -0.00000000000E+00 -0.12362794171E+03  0.12362794171E+03  0.00000000000E+00 0. -1.
         23    2    1    2    0    0 -0.44251213866E+02 -0.11754648605E+03  0.10639666592E+03  0.19942304630E+03  0.11257865946E+03 0.  0.
          5    1    3    3  502    0 -0.71321964190E+02 -0.10582714463E+03  0.52942190690E+02  0.13822646299E+03  0.41800000000E+01 0. -1.
         -5    1    3    3    0  502  0.27070750324E+02 -0.11719341420E+02  0.53454475235E+02  0.61196583312E+02  0.41800000000E+01 0.  1.
        -11    1    1    2    0    0  0.55832771238E+02  0.12776120792E+03  0.78720065043E+00  0.13943042809E+03  0.00000000000E+00 0.  1.
         11    1    1    2    0    0 -0.11581557372E+02 -0.10214721876E+02 -0.14304164552E+00  0.15443233958E+02  0.00000000000E+00 0. -1.
</event>
<event>
 7    1  0.5109948E-006  0.6520218E+02  0.7561462E-02  0.1377213E+00
          4   -1    0    0  501    0  0.00000000000E+00  0.00000000000E+00  0.16105960062E+03  0.16105960062E+03  0.00000000000E+00 0. -1.
         -4   -1    0    0    0  501 -0.00000000000E+00 -0.00000000000E+00 -0.79525747512E+02  0.79525747512E+02  0.00000000000E+00 0.  1.
         23    2    1    2    0    0 -0.37348349216E+02  0.56524981779E+01  0.28494407269E+02  0.13373975713E+03  0.12509013338E+03 0.  0.
          5    1    3    3  502    0 -0.28401809051E+02 -0.43292752200E+00 -0.48237886960E+02  0.56135695613E+02  0.41800000000E+01 0.  1.
         -5    1    3    3    0  502 -0.89465401657E+01  0.60854256999E+01  0.76732294229E+02  0.77604061521E+02  0.41800000000E+01 0.  1.
        -11    1    1    2    0    0  0.40655710286E+02 -0.39145487239E+02  0.45154168041E+02  0.72278315154E+02  0.00000000000E+00 0. -1.
         11    1    1    2    0    0 -0.33073610693E+01  0.33492989061E+02  0.78852778015E+01  0.34567275847E+02  0.00000000000E+00 0.  1.
</event>
<event>
 7    1  0.5109948E-006  0.1683711E+03  0.7561462E-02  0.1179557E+00
          1   -1    0    0  501    0  0.00000000000E+00  0.00000000000E+00  0.24629923196E+03  0.24629923196E+03  0.00000000000E+00 0. -1.
         -1   -1    0    0    0  501 -0.00000000000E+00 -0.00000000000E+00 -0.14099985614E+03  0.14099985614E+03  0.00000000000E+00 0.  1.
         23    2    1    2    0    0 -0.35546263015E+02  0.13607639246E+03 -0.46789201130E+01  0.18827563004E+03  0.12508196982E+03 0.  0.
          5    1    3    3  502    0  0.21042700126E+02 -0.15054283031E+02  0.44586593941E+01  0.26585310037E+02  0.41800000000E+01 0. -1.
         -5    1    3    3    0  502 -0.56588963141E+02  0.15113067549E+03 -0.91375795071E+01  0.16169032000E+03  0.41800000000E+01 0. -1.
        -11    1    1    2    0    0  0.47991860499E+02 -0.99576805148E+02  0.11572504598E+03  0.16003451211E+03  0.00000000000E+00 0. -1.
         11    1    1    2    0    0 -0.12445597484E+02 -0.36499587313E+02 -0.57467500516E+01  0.38988945958E+02  0.00000000000E+00 0.  1.
</event>
<event>
 7    1  0.5109948E-006  0.1365610E+03  0.7561462E-02  0.1218033E+00
         -3   -1    0    0    0  501 -0.00000000000E+00  0.00000000000E+00  0.14668842862E+03  0.14668842862E+03  0.00000000000E+00 0.  1.
          3   -1    0    0  501    0  0.00000000000E+00 -0.00000000000E+00 -0.15346224680E+03  0.15346224680E+03  0.00000000000E+00 0. -1.
         23    2    1    2    0    0  0.95748770096E+01 -0.10780248827E+03  0.19794464928E+01  0.16542113529E+03  0.12508868472E+03 0.  0.
          5    1    3    3  502    0 -0.25151002184E+02 -0.99524624331E+02  0.42565926512E+02  0.11120725812E+03  0.41800000000E+01 0.  1.
         -5    1    3    3    0  502  0.34725879193E+02 -0.82778639412E+01 -0.40586480019E+02  0.54213877167E+02  0.41800000000E+01 0.  1.
        -11    1    1    2    0    0  0.23595839912E+02  0.96583800559E+02 -0.60127377167E+01  0.99605959694E+02  0.00000000000E+00 0. -1.
         11    1    1    2    0    0 -0.33170716921E+02  0.11218687713E+02 -0.27405269599E+01  0.35123580442E+02  0.00000000000E+00 0.  1.
</event>
<event>
 7    1  0.5109948E-006  0.1888516E+03  0.7561462E-02  0.1159501E+00
          2   -1    0    0  501    0  0.00000000000E+00  0.00000000000E+00  0.31125178136E+03  0.31125178136E+03  0.00000000000E+00 0. -1.
         -2   -1    0    0    0  501 -0.00000000000E+00 -0.00000000000E+00 -0.14290091607E+03  0.14290091607E+03  0.00000000000E+00 0.  1.
         23    2    1    2    0    0 -0.13994914554E+03 -0.11025717370E+03  0.58782096997E+02  0.22549570355E+03  0.12510223700E+03 0.  0.
          5    1    3    3  502    0 -0.41827051638E+02 -0.68523576865E+02 -0.30880699766E+02  0.86116623559E+02  0.41800000000E+01 0. -1.
         -5    1    3    3    0  502 -0.98122093901E+02 -0.41733596838E+02  0.89662796763E+02  0.13937907999E+03  0.41800000000E+01 0. -1.
        -11    1    1    2    0    0  0.91168028145E+02  0.10859997916E+03  0.11061470386E+03  0.17983653005E+03  0.00000000000E+00 0. -1.
         11    1    1    2    0    0  0.48781117394E+02  0.16571945390E+01 -0.10459355674E+01  0.48820463836E+02  0.00000000000E+00 0.  1.
</event>
<event>
 7    1  0.5109948E-006  0.3131391E+03  0.7561462E-02  0.1078851E+00
          1   -1    0    0  501    0  0.00000000000E+00  0.00000000000E+00  0.15747808585E+04  0.15747808585E+04  0.00000000000E+00 0. -1.
         -1   -1    0    0    0  501 -0.00000000000E+00 -0.00000000000E+00 -0.68577482235E+02  0.68577482235E+02  0.00000000000E+00 0.  1.
         23    2    1    2    0    0 -0.28671584886E+03  0.97720306180E+02  0.60710400942E+03  0.68991048078E+03  0.12508379994E+03 0.  0.
          5    1    3    3  502    0 -0.10467431744E+03  0.67351018177E+02  0.36361937138E+03  0.38435581435E+03  0.41800000000E+01 0. -1.
         -5    1    3    3    0  502 -0.18204153142E+03  0.30369288003E+02  0.24348463805E+03  0.30555466644E+03  0.41800000000E+01 0. -1.
        -11    1    1    2    0    0  0.14711921710E+03 -0.99356368786E+02  0.51887682712E+03  0.54840579298E+03  0.00000000000E+00 0.  1.
         11    1    1    2    0    0  0.13959663176E+03  0.16360626064E+01  0.38022253972E+03  0.40504206697E+03  0.00000000000E+00 0. -1.
</event>
<event>
 6    1  0.5109948E-006  0.2387348E+03  0.7561462E-02  0.1120639E+00
         -1   -1    0    0    0  501 -0.00000000000E+00  0.00000000000E+00  0.10060399839E+03  0.10060399839E+03  0.00000000000E+00 0.  1.
          1   -1    0    0  501    0  0.00000000000E+00 -0.00000000000E+00 -0.92742667419E+03  0.92742667419E+03  0.00000000000E+00 0. -1.
          5    1    1    2  502    0 -0.34328157359E+02 -0.89439366518E+02 -0.14197188643E+03  0.17132224493E+03  0.41800000000E+01 0. -1.
         -5    1    1    2    0  502  0.17126751181E+02 -0.14357282894E+03 -0.19551304576E+02  0.14596646439E+03  0.41800000000E+01 0.  1.
        -11    1    1    2    0    0  0.29246043188E+02  0.19083874290E+03 -0.61191990261E+03  0.64165467663E+03  0.00000000000E+00 0. -1.
         11    1    1    2    0    0 -0.12044637010E+02  0.42173452555E+02 -0.53379582181E+02  0.69087286638E+02  0.00000000000E+00 0.  1.
</event>
<event>
 7    1  0.5109948E-006  0.1291926E+03  0.7561462E-02  0.1228659E+00
          2   -1    0    0  501    0  0.00000000000E+00  0.00000000000E+00  0.28782587758E+03  0.28782587758E+03  0.00000000000E+00 0. -1.
         -2   -1    0    0    0  501 -0.00000000000E+00 -0.00000000000E+00 -0.63131465952E+02  0.63131465952E+02  0.00000000000E+00 0.  1.
         23    2    1    2    0    0  0.56563609782E+02  0.44856633763E+02  0.84661033873E+02  0.16725425084E+03  0.12487967899E+03 0.  0.
          5    1    3    3  502    0  0.86339520379E+02 -0.37091117341E+01  0.43436191985E+02  0.96811391186E+02  0.41800000000E+01 0.  1.
         -5    1    3    3    0  502 -0.29775910598E+02  0.48565745497E+02  0.41224841888E+02  0.70442859655E+02  0.41800000000E+01 0.  1.
        -11    1    1    2    0    0 -0.34071689814E+02 -0.71903757283E+02  0.72910781104E+02  0.10792132486E+03  0.00000000000E+00 0.  1.
         11    1    1    2    0    0 -0.22491919968E+02  0.27047123520E+02  0.67122596656E+02  0.75781767837E+02  0.00000000000E+00 0. -1.
</event>
<event>
 7    1  0.5109948E-006  0.2059039E+03  0.7561462E-02  0.1144851E+00
         -1   -1    0    0    0  501 -0.00000000000E+00  0.00000000000E+00  0.10485501647E+03  0.10485501647E+03  0.00000000000E+00 0.  1.
          1   -1    0    0  501    0  0.00000000000E+00 -0.00000000000E+00 -0.43139494306E+03  0.43139494306E+03  0.00000000000E+00 0. -1.
         23    2    1    2    0    0  0.22487225640E+02  0.17282203464E+03 -0.10277691707E+03  0.23786064927E+03  0.12506583392E+03 0.  0.
          5    1    3    3  502    0 -0.46517122297E+02  0.29195634269E+02 -0.28236059156E+02  0.61894871870E+02  0.41800000000E+01 0. -1.
         -5    1    3    3    0  502  0.69004347936E+02  0.14362640037E+03 -0.74540857915E+02  0.17596577740E+03  0.41800000000E+01 0. -1.
        -11    1    1    2    0    0  0.34907766289E+02 -0.90296479034E+02 -0.11368723203E+03  0.14932110701E+03  0.00000000000E+00 0.  1.
         11    1    1    2    0    0 -0.57394991929E+02 -0.82525555608E+02 -0.11007577750E+03  0.14906820324E+03  0.00000000000E+00 0. -1.
</event>
<event>
 7    1  0.5109948E-006  0.1742551E+03  0.7561462E-02  0.1173482E+00
          2   -1    0    0  501    0  0.00000000000E+00  0.00000000000E+00  0.77896361777E+03  0.77896361777E+03  0.00000000000E+00 0. -1.
         -2   -1    0    0    0  501 -0.00000000000E+00 -0.00000000000E+00 -0.49535555886E+02  0.49535555886E+02  0.00000000000E+00 0.  1.
         23    2    1    2    0    0  0.24248044525E+02  0.15050285142E+03  0.25543180920E+03  0.32269535530E+03  0.12509119566E+03 0.  0.
          5    1    3    3  502    0  0.24027563416E+02  0.16697226866E+03  0.25490058434E+03  0.30569403430E+03  0.41800000000E+01 0. -1.
         -5    1    3    3    0  502  0.22048110868E+00 -0.16469417234E+02  0.53122485054E+00  0.17001321001E+02  0.41800000000E+01 0. -1.
        -11    1    1    2    0    0 -0.37659493017E+02 -0.57023715916E+02  0.10786969769E+03  0.12769421784E+03  0.00000000000E+00 0.  1.
         11    1    1    2    0    0  0.13411448492E+02 -0.93479135509E+02  0.36612655500E+03  0.37810960052E+03  0.00000000000E+00 0. -1.
</event>
<event>
 7    1  0.5109948E-006  0.1799095E+03  0.7561462E-02  0.1167891E+00
          2   -1    0    0  501    0  0.00000000000E+00  0.00000000000E+00  0.33841682305E+03  0.33841682305E+03  0.00000000000E+00 0. -1.
         -2   -1    0    0    0  501 -0.00000000000E+00 -0.00000000000E+00 -0.14021453163E+03  0.14021453163E+03  0.00000000000E+00 0.  1.
         23    2    1    2    0    0  0.17117368056E+03 -0.14261648070E+02  0.18032363232E+02  0.21326393895E+03  0.12511002362E+03 0.  0.
          5    1    3    3  502    0  0.11621659045E+03 -0.10754909324E+01 -0.48380024350E+02  0.12595853180E+03  0.41800000000E+01 0.  1.
         -5    1    3    3    0  502  0.54957090111E+02 -0.13186157137E+02  0.66412387582E+02  0.87305407151E+02  0.41800000000E+01 0.  1.
        -11    1    1    2    0    0 -0.31139676498E+02 -0.26624836063E+02  0.75231283316E+02  0.85663920860E+02  0.00000000000E+00 0.  1.
         11    1    1    2    0    0 -0.14003400407E+03  0.40886484132E+02  0.10493864488E+03  0.17970349487E+03  0.00000000000E+00 0. -1.
</event>
<event>
 7    1  0.5109948E-006  0.8084807E+02  0.7561462E-02  0.1326662E+00
          2   -1    0    0  501    0  0.00000000000E+00  0.00000000000E+00  0.60279026699E+03  0.60279026699E+03  0.00000000000E+00 0. -1.
         -2   -1    0    0    0  501 -0.00000000000E+00 -0.00000000000E+00 -0.14116733918E+02  0.14116733918E+02  0.00000000000E+00 0.  1.
         23    2    1    2    0    0 -0.28579768734E+02  0.11504660516E+02  0.40644287576E+03  0.42394004321E+03  0.11653406619E+03 0.  0.
          5    1    3    3  502    0  0.36491199617E+02 -0.20883010167E+02  0.21517721204E+03  0.21928614353E+03  0.41800000000E+01 0. -1.
         -5    1    3    3    0  502 -0.65070968351E+02  0.32387670683E+02  0.19126566373E+03  0.20465389968E+03  0.41800000000E+01 0.  1.
        -11    1    1    2    0    0  0.18813719509E+02 -0.24180507226E+02  0.17023052277E+03  0.17296555684E+03  0.00000000000E+00 0. -1.
         11    1    1    2    0    0  0.97660492247E+01  0.12675846711E+02  0.12000134541E+02  0.20001400858E+02  0.00000000000E+00 0.  1.
</event>
<event>
 7    1  0.5109948E-006  0.8335966E+02  0.7561462E-02  0.1319779E+00
         -1   -1    0    0    0  501 -0.00000000000E+00  0.00000000000E+00  0.53884966837E+02  0.53884966837E+02  0.00000000000E+00 0.  1.
          1   -1    0    0  501    0  0.00000000000E+00 -0.00000000000E+00 -0.28436679561E+03  0.28436679561E+03  0.00000000000E+00 0. -1.
         23    2    1    2    0    0 -0.18967350708E+02  0.52182862440E+02 -0.91882415954E+02  0.16484253703E+03  0.12509145506E+03 0.  0.
          5    1    3    3  502    0 -0.31306622719E+02 -0.16583855246E+01  0.21778688163E+02  0.38401022470E+02  0.41800000000E+01 0. -1.
         -5    1    3    3    0  502  0.12339272011E+02  0.53841247964E+02 -0.11366110412E+03  0.12644151456E+03  0.41800000000E+01 0. -1.
        -11    1    1    2    0    0 -0.17668227351E+02 -0.35052508000E+02 -0.12829738924E+02  0.41297055291E+02  0.00000000000E+00 0.  1.
         11    1    1    2    0    0  0.36635578058E+02 -0.17130354439E+02 -0.12576967389E+03  0.13211217012E+03  0.00000000000E+00 0. -1.
</event>
<event>
 7    1  0.5109948E-006  0.1484470E+03  0.7561462E-02  0.1202394E+00
         -3   -1    0    0    0  501 -0.00000000000E+00  0.00000000000E+00  0.22094860851E+03  0.22094860851E+03  0.00000000000E+00 0.  1.
          3   -1    0    0  501    0  0.00000000000E+00 -0.00000000000E+00 -0.11644053988E+03  0.11644053988E+03  0.00000000000E+00 0. -1.
         23    2    1    2    0    0 -0.56580359899E+02 -0.98802001519E+02  0.29334871405E+02  0.17167074602E+03  0.12508851957E+03 0.  0.
          5    1    3    3  502    0 -0.82338257297E+02 -0.51308877082E+02 -0.19126851675E+02  0.98972209923E+02  0.41800000000E+01 0. -1.
         -5    1    3    3    0  502  0.25757897398E+02 -0.47493124437E+02  0.48461723080E+02  0.72698536100E+02  0.41800000000E+01 0. -1.
        -11    1    1    2    0    0 -0.24961652947E+02  0.28968055821E+02  0.32518728558E+02  0.50196614257E+02  0.00000000000E+00 0.  1.
         11    1    1    2    0    0  0.81542012846E+02  0.69833945698E+02  0.42654468666E+02  0.11552178811E+03  0.00000000000E+00 0. -1.
</event>
<event>
 7    1  0.5109948E-006  0.1142424E+03  0.7561462E-02  0.1252909E+00
          2   -1    0    0  501    0  0.00000000000E+00  0.00000000000E+00  0.35507415696E+03  0.35507415696E+03  0.00000000000E+00 0. -1.
         -2   -1    0    0    0  501 -0.00000000000E+00 -0.00000000000E+00 -0.49135642167E+02  0.49135642167E+02  0.00000000000E+00 0.  1.
         23    2    1    2    0    0 -0.74081003204E+02 -0.18441830644E+02  0.16851129936E+03  0.22330014087E+03  0.12505518280E+03 0.  0.
          5    1    3    3  502    0 -0.63319156299E+02 -0.65823022502E+02  0.13875971871E+03  0.16617375780E+03  0.41800000000E+01 0. -1.
         -5    1    3    3    0  502 -0.10761846905E+02  0.47381191859E+02  0.29751580647E+02  0.57126383062E+02  0.41800000000E+01 0. -1.
        -11    1    1    2    0    0  0.39129630541E+02 -0.13042743115E+02  0.12588950312E+03  0.13247417910E+03  0.00000000000E+00 0. -1.
         11    1    1    2    0    0  0.34951372663E+02  0.31484573759E+02  0.11537712320E+02  0.48435479159E+02  0.00000000000E+00 0.  1.
</event>
<event>
 7    1  0.5109948E-006  0.3387651E+03  0.7561462E-02  0.1067323E+00
         -2   -1    0    0    0  501 -0.00000000000E+00  0.00000000000E+00  0.78053031881E+02  0.78053031881E+02  0.00000000000E+00 0.  1.
          2   -1    0    0  501    0  0.00000000000E+00 -0.00000000000E+00 -0.16013736038E+04  0.16013736038E+04  0.00000000000E+00 0. -1.
         23    2    1    2    0    0  0.20272239382E+03  0.25995035557E+03 -0.61701808400E+03  0.71065354162E+03  0.12508630583E+03 0.  0.
          5    1    3    3  502    0  0.94237431051E+02  0.39754862089E+02 -0.23787630542E+03  0.25896669970E+03  0.41800000000E+01 0.  1.
         -5    1    3    3    0  502  0.10848496276E+03  0.22019549348E+03 -0.37914177858E+03  0.45168684192E+03  0.41800000000E+01 0.  1.
        -11    1    1    2    0    0 -0.13052975071E+03 -0.16919106032E+03 -0.45301025857E+03  0.50088114866E+03  0.00000000000E+00 0.  1.
         11    1    1    2    0    0 -0.72192643103E+02 -0.90759295251E+02 -0.45329222937E+03  0.46789194543E+03  0.00000000000E+00 0. -1.
</event>
<event>
 7    1  0.5109948E-006  0.2758485E+03  0.7561462E-02  0.1097978E+00
          1   -1    0    0  501    0  0.00000000000E+00  0.00000000000E+00  0.34274557982E+03  0.34274557982E+03  0.00000000000E+00 0. -1.
         -1   -1    0    0    0  501 -0.00000000000E+00 -0.00000000000E+00 -0.25096503431E+03  0.25096503431E+03  0.00000000000E+00 0.  1.
         23    2    1    2    0    0 -0.22998509550E+03  0.14171093310E+03  0.47951516376E+01  0.29773400494E+03  0.12508961390E+03 0.  0.
          5    1    3    3  502    0 -0.73950328447E+02  0.86491242382E+02 -0.48538815069E+02  0.12378560116E+03  0.41800000000E+01 0. -1.
         -5    1    3    3    0  502 -0.15603476706E+03  0.55219690721E+02  0.53333966707E+02  0.17394840378E+03  0.41800000000E+01 0. -1.
        -11    1    1    2    0    0  0.68879258696E+02 -0.24836995661E+02  0.60907015715E+02  0.95241236842E+02  0.00000000000E+00 0. -1.
         11    1    1    2    0    0  0.16110583681E+03 -0.11687393744E+03  0.26078378156E+02  0.20073537235E+03  0.00000000000E+00 0.  1.
</event>
<event>
 7    1  0.5109948E-006  0.1246693E+03  0.7561462E-02  0.1235587E+00
         -4   -1    0    0    0  501 -0.00000000000E+00  0.00000000000E+00  0.96381799613E+02  0.96381799613E+02  0.00000000000E+00 0. -1.
          4   -1    0    0  501    0  0.00000000000E+00 -0.00000000000E+00 -0.28219715420E+03  0.28219715420E+03  0.00000000000E+00 0.  1.
         23    2    1    2    0    0  0.10132131399E+03 -0.32605883026E+02 -0.30562664625E+02  0.16705713868E+03  0.12507941013E+03 0.  0.
          5    1    3    3  502    0  0.57052002048E+02 -0.49131745842E+02  0.37402434582E+02  0.84174069047E+02  0.41800000000E+01 0.  1.
         -5    1    3    3    0  502  0.44269311942E+02  0.16525862816E+02 -0.67965099207E+02  0.82883069633E+02  0.41800000000E+01 0.  1.
        -11    1    1    2    0    0 -0.32670380032E+02  0.46125503485E+02 -0.12114341161E+03  0.13368112051E+03  0.00000000000E+00 0.  1.
         11    1    1    2    0    0 -0.68650933959E+02 -0.13519620459E+02 -0.34109278355E+02  0.77840694631E+02  0.00000000000E+00 0. -1.
</event>
<event>
 7    1  0.5109948E-006  0.1123088E+03  0.7561462E-02  0.1256353E+00
          3   -1    0    0  501    0  0.00000000000E+00  0.00000000000E+00  0.97966226064E+02  0.97966226064E+02  0.00000000000E+00 0. -1.
         -3   -1    0    0    0  501 -0.00000000000E+00 -0.00000000000E+00 -0.14537649410E+03  0.14537649410E+03  0.00000000000E+00 0.  1.
         23    2    1    2    0    0  0.50713143681E+02  0.26678699683E+01 -0.35757470792E+02  0.13964771953E+03  0.12507577055E+03 0.  0.
          5    1    3    3  502    0 -0.12416855808E+02 -0.50483372897E+02 -0.10099637736E+02  0.53124611336E+02  0.41800000000E+01 0.  1.
         -5    1    3    3    0  502  0.63129999489E+02  0.53151242866E+02 -0.25657833056E+02  0.86523108190E+02  0.41800000000E+01 0.  1.
        -11    1    1    2    0    0  0.18512300225E+02  0.72836109964E+01 -0.25559228997E+02  0.32388739335E+02  0.00000000000E+00 0.  1.
         11    1    1    2    0    0 -0.69225443906E+02 -0.99514809646E+01  0.13906431751E+02  0.71306261306E+02  0.00000000000E+00 0. -1.
</event>
<event>
 7    1  0.5109948E-006  0.9510557E+02  0.7561462E-02  0.1290939E+00
         -2   -1    0    0    0  501 -0.00000000000E+00  0.00000000000E+00  0.12791548560E+03  0.12791548560E+03  0.00000000000E+00 0. -1.
          2   -1    0    0  501    0  0.00000000000E+00 -0.00000000000E+00 -0.13661770578E+03  0.13661770578E+03  0.00000000000E+00 0.  1.
         23    2    1    2    0    0 -0.52300699372E+02 -0.52031579217E+02 -0.87145559112E+01  0.14548641077E+03  0.12509078241E+03 0.  0.
          5    1    3    3  502    0 -0.19828080433E+02  0.59204458598E+01 -0.58612673772E+02  0.62298654717E+02  0.41800000000E+01 0. -1.
         -5    1    3    3    0  502 -0.32472618940E+02 -0.57952025077E+02  0.49898117861E+02  0.83187756054E+02  0.41800000000E+01 0. -1.
        -11    1    1    2    0    0  0.43844457200E+02  0.70047204313E+02 -0.25691459434E+02  0.86538998995E+02  0.00000000000E+00 0.  1.
         11    1    1    2    0    0  0.84562421721E+01 -0.18015625096E+02  0.25703795171E+02  0.32507781614E+02  0.00000000000E+00 0. -1.
</event>
<event>
 7    1  0.5109948E-006  0.8440130E+02  0.7561462E-02  0.1317006E+00
         -2   -1    0    0    0  501 -0.00000000000E+00  0.00000000000E+00  0.31618479453E+02  0.31618479453E+02  0.00000000000E+00 0.  1.
          2   -1    0    0  501    0  0.00000000000E+00 -0.00000000000E+00 -0.36617131321E+03  0.36617131321E+03  0.00000000000E+00 0. -1.
         23    2    1    2    0    0  0.24260095096E+02  0.22054679944E+02 -0.15160755256E+03  0.19064234261E+03  0.11083632835E+03 0.  0.
          5    1    3    3  502    0  0.13066681382E+02  0.54238591341E+02 -0.14535122103E+03  0.15574663016E+03  0.41800000000E+01 0. -1.
         -5    1    3    3    0  502  0.11193413713E+02 -0.32183911396E+02 -0.62563315370E+01  0.34895712453E+02  0.41800000000E+01 0.  1.
        -11    1    1    2    0    0 -0.29529430599E+02  0.20306641890E+02 -0.14710963847E+03  0.15141199658E+03  0.00000000000E+00 0.  1.
         11    1    1    2    0    0  0.52693355034E+01 -0.42361321834E+02 -0.35835642723E+02  0.55735453471E+02  0.00000000000E+00 0. -1.
</event>
<event>
 7    1  0.5109948E-006  0.1057872E+03  0.7561462E-02  0.1268576E+00
         -2   -1    0    0    0  501 -0.00000000000E+00  0.00000000000E+00  0.30939357502E+02  0.30939357502E+02  0.00000000000E+00 0.  1.
          2   -1    0    0  501    0  0.00000000000E+00 -0.00000000000E+00 -0.49847985998E+03  0.49847985998E+03  0.00000000000E+00 0. -1.
         23    2    1    2    0    0  0.17640922018E+01  0.14286352529E+02 -0.13822252920E+03  0.18698046464E+03  0.12509602187E+03 0.  0.
          5    1    3    3  502    0  0.23418760012E+02 -0.50182524044E+02 -0.44816061171E+02  0.71362986056E+02  0.41800000000E+01 0. -1.
         -5    1    3    3    0  502 -0.21654667810E+02  0.64468876573E+02 -0.93406468025E+02  0.11561747858E+03  0.41800000000E+01 0. -1.
        -11    1    1    2    0    0  0.11699925223E+02  0.34950845011E+02 -0.81916944708E+02  0.89826697855E+02  0.00000000000E+00 0.  1.
         11    1    1    2    0    0 -0.13464017425E+02 -0.49237197539E+02 -0.24740102857E+03  0.25261205499E+03  0.00000000000E+00 0. -1.
</event>
<event>
 7    1  0.5109948E-006  0.9599233E+02  0.7561462E-02  0.1288957E+00
          1   -1    0    0  501    0  0.00000000000E+00  0.00000000000E+00  0.22439691829E+03  0.22439691829E+03  0.00000000000E+00 0. -1.
         -1   -1    0    0    0  501 -0.00000000000E+00 -0.00000000000E+00 -0.90269838611E+02  0.90269838611E+02  0.00000000000E+00 0.  1.
         23    2    1    2    0    0  0.29728506429E+02 -0.68800159285E+02  0.73444318868E+01  0.14601052899E+03  0.12509151804E+03 0.  0.
          5    1    3    3  502    0  0.54865795762E+02 -0.16533084511E+02  0.48158180926E+02  0.74968534854E+02  0.41800000000E+01 0. -1.
         -5    1    3    3    0  502 -0.25137289333E+02 -0.52267074774E+02 -0.40813749039E+02  0.71041994138E+02  0.41800000000E+01 0. -1.
        -11    1    1    2    0    0 -0.33377470945E+01  0.25173357303E+02  0.11302824313E+03  0.11584568278E+03  0.00000000000E+00 0. -1.
         11    1    1    2    0    0 -0.26390759335E+02  0.43626801982E+02  0.13754404664E+02  0.52810545131E+02  0.00000000000E+00 0.  1.
</event>
<event>
 7    1  0.5109948E-006  0.5580362E+02  0.7561462E-02  0.1416336E+00
         -1   -1    0    0    0  501 -0.00000000000E+00  0.00000000000E+00  0.25465452005E+03  0.25465452005E+03  0.00000000000E+00 0.  1.
          1   -1    0    0  501    0  0.00000000000E+00 -0.00000000000E+00 -0.61272981317E+02  0.61272981317E+02  0.00000000000E+00 0. -1.
         23    2    1    2    0    0 -0.22106796845E+02  0.33730142059E+01  0.18225563086E+03  0.22217731563E+03  0.12508220060E+03 0.  0.
          5    1    3    3  502    0  0.59849554450E+01  0.17291916781E+01  0.19196950259E+03  0.19211603816E+03  0.41800000000E+01 0.  1.
         -5    1    3    3    0  502 -0.28091752290E+02  0.16438225278E+01 -0.97138717238E+01  0.30061277469E+02  0.41800000000E+01 0.  1.
        -11    1    1    2    0    0 -0.25321694799E+02  0.85962339017E+01  0.31010119349E+02  0.40947661311E+02  0.00000000000E+00 0.  1.
         11    1    1    2    0    0  0.47428491644E+02 -0.11969248108E+02 -0.19884211476E+02  0.52802524427E+02  0.00000000000E+00 0. -1.
</event>
<event>
 7    1  0.5109948E-006  0.1546472E+03  0.7561462E-02  0.1194876E+00
          1   -1    0    0  501    0  0.00000000000E+00  0.00000000000E+00  0.20114817615E+03  0.20114817615E+03  0.00000000000E+00 0. -1.
         -1   -1    0    0    0  501 -0.00000000000E+00 -0.00000000000E+00 -0.12492283717E+03  0.12492283717E+03  0.00000000000E+00 0.  1.
         23    2    1    2    0    0  0.11103243240E+03  0.31443106036E+02  0.54318038701E+02  0.17864826880E+03  0.12509150513E+03 0.  0.
          5    1    3    3  502    0 -0.12493383925E+01 -0.35726020931E+02  0.26820167053E+02  0.44885445065E+02  0.41800000000E+01 0.  1.
         -5    1    3    3    0  502  0.11228177079E+03  0.67169126967E+02  0.27497871648E+02  0.13376282374E+03  0.41800000000E+01 0.  1.
        -11    1    1    2    0    0 -0.38483566933E+02  0.28824110221E+02  0.22545533279E+02  0.53104758024E+02  0.00000000000E+00 0. -1.
         11    1    1    2    0    0 -0.72548865462E+02 -0.60267216257E+02 -0.63823299092E+00  0.94317986495E+02  0.00000000000E+00 0.  1.
</event>
<event>
 7    1  0.5109948E-006  0.1146832E+03  0.7561462E-02  0.1252135E+00
          2   -1    0    0  501    0  0.00000000000E+00  0.00000000000E+00  0.32996093428E+02  0.32996093428E+02  0.00000000000E+00 0.  1.
         -2   -1    0    0    0  501 -0.00000000000E+00 -0.00000000000E+00 -0.60471060171E+03  0.60471060171E+03  0.00000000000E+00 0. -1.
         23    2    1    2    0    0 -0.70489621855E+02 -0.36950593987E+02 -0.40147899094E+03  0.42797939832E+03  0.12508737762E+03 0.  0.
          5    1    3    3  502    0 -0.69030102756E+02 -0.79321427490E+02 -0.29993970474E+03  0.31786529037E+03  0.41800000000E+01 0. -1.
         -5    1    3    3    0  502 -0.14595190988E+01  0.42370833502E+02 -0.10153928620E+03  0.11011410795E+03  0.41800000000E+01 0. -1.
        -11    1    1    2    0    0  0.24926687698E+02  0.38733665987E+01 -0.14644856056E+03  0.14860526107E+03  0.00000000000E+00 0. -1.
         11    1    1    2    0    0  0.45562934157E+02  0.33077227389E+02 -0.23786956790E+02  0.61122035748E+02  0.00000000000E+00 0.  1.
</event>
<event>
 7    1  0.5109948E-006  0.9169449E+02  0.7561462E-02  0.1298799E+00
         -1   -1    0    0    0  501 -0.00000000000E+00  0.00000000000E+00  0.13664932532E+03  0.13664932532E+03  0.00000000000E+00 0.  1.
          1   -1    0    0  501    0  0.00000000000E+00 -0.00000000000E+00 -0.11243229489E+03  0.11243229489E+03  0.00000000000E+00 0. -1.
         23    2    1    2    0    0  0.53572593017E+02 -0.20089277432E+02 -0.48762215143E+01  0.13763736900E+03  0.12508663405E+03 0.  0.
          5    1    3    3  502    0  0.84000878059E+02 -0.34687725429E+02 -0.29512473098E+02  0.95644363548E+02  0.41800000000E+01 0. -1.
         -5    1    3    3    0  502 -0.30428285042E+02  0.14598447997E+02  0.24636251583E+02  0.41993005449E+02  0.41800000000E+01 0. -1.
        -11    1    1    2    0    0 -0.32463167727E+02  0.18185415954E+02 -0.30551701841E+02  0.48145333083E+02  0.00000000000E+00 0. -1.
         11    1    1    2    0    0 -0.21109425290E+02  0.19038614780E+01  0.59644953780E+02  0.63298918127E+02  0.00000000000E+00 0.  1.
</event>
<event>
 7    1  0.5109948E-006  0.1552901E+03  0.7561462E-02  0.1194119E+00
         -2   -1    0    0    0  501 -0.00000000000E+00  0.00000000000E+00  0.18904619311E+03  0.18904619311E+03  0.00000000000E+00 0. -1.
          2   -1    0    0  501    0  0.00000000000E+00 -0.00000000000E+00 -0.22902444158E+03  0.22902444158E+03  0.00000000000E+00 0.  1.
         23    2    1    2    0    0 -0.66434495492E+02  0.11819537918E+03  0.95241001976E+02  0.20760908548E+03  0.12508794533E+03 0.  0.
          5    1    3    3  502    0  0.29979381837E+02  0.31678006701E+02 -0.45279148150E+01  0.44048085730E+02  0.41800000000E+01 0.  1.
         -5    1    3    3    0  502 -0.96413877329E+02  0.86517372479E+02  0.99768916791E+02  0.16356099975E+03  0.41800000000E+01 0.  1.
        -11    1    1    2    0    0  0.48706593201E+02 -0.65952565702E+02 -0.22585133574E+02  0.85042115464E+02  0.00000000000E+00 0. -1.
         11    1    1    2    0    0  0.17727902291E+02 -0.52242813477E+02 -0.11263411687E+03  0.12541943375E+03  0.00000000000E+00 0.  1.
</event>
<event>
 7    1  0.5109948E-006  0.1380779E+03  0.7561462E-02  0.1215939E+00
          2   -1    0    0  501    0  0.00000000000E+00  0.00000000000E+00  0.75633590685E+03  0.75633590685E+03  0.00000000000E+00 0. -1.
         -2   -1    0    0    0  501 -0.00000000000E+00 -0.00000000000E+00 -0.31716613845E+02  0.31716613845E+02  0.00000000000E+00 0.  1.
         23    2    1    2    0    0  0.10869294210E+03  0.51515317041E+02  0.33978676786E+03  0.38154030061E+03  0.12509983943E+03 0.  0.
          5    1    3    3  502    0  0.61599933241E+02 -0.16623609361E+02  0.25516434198E+03  0.26305362568E+03  0.41800000000E+01 0. -1.
         -5    1    3    3    0  502  0.47093008857E+02  0.68138926402E+02  0.84622425874E+02  0.11848667493E+03  0.41800000000E+01 0. -1.
        -11    1    1    2    0    0 -0.90647549897E+02 -0.19790182923E+02  0.30350413172E+03  0.31736948123E+03  0.00000000000E+00 0.  1.
         11    1    1    2    0    0 -0.18045392201E+02 -0.31725134118E+02  0.81328393430E+02  0.89142738865E+02  0.00000000000E+00 0. -1.
</event>
<event>
 7    1  0.5109948E-006  0.2008381E+03  0.7561462E-02  0.1149034E+00
         -1   -1    0    0    0  501 -0.00000000000E+00  0.00000000000E+00  0.48861731365E+02  0.48861731365E+02  0.00000000000E+00 0.  1.
          1   -1    0    0  501    0  0.00000000000E+00 -0.00000000000E+00 -0.10644268201E+04  0.10644268201E+04  0.00000000000E+00 0. -1.
         23    2    1    2    0    0  0.16590756995E+03  0.93159647236E+02 -0.37142803668E+03  0.43567284269E+03  0.12509195732E+03 0.  0.
          5    1    3    3  502    0  0.44521829559E+02  0.51053019502E+02 -0.24924959726E+03  0.25832428891E+03  0.41800000000E+01 0. -1.
         -5    1    3    3    0  502  0.12138574039E+03  0.42106627734E+02 -0.12217843943E+03  0.17734855378E+03  0.41800000000E+01 0. -1.
        -11    1    1    2    0    0 -0.57786963799E+02  0.65795214613E+01 -0.12200679809E+03  0.13516020889E+03  0.00000000000E+00 0.  1.
         11    1    1    2    0    0 -0.10812060615E+03 -0.99739168697E+02 -0.52213025394E+03  0.54245549986E+03  0.00000000000E+00 0. -1.
</event>
<event>
 7    1  0.6934673E-006  0.2054744E+03  0.7561462E-02  0.1145201E+00
          1   -1    0    0  501    0  0.00000000000E+00  0.00000000000E+00  0.10553837341E+03  0.10553837341E+03  0.00000000000E+00 0. -1.
         -1   -1    0    0    0  501 -0.00000000000E+00 -0.00000000000E+00 -0.47962282258E+03  0.47962282258E+03  0.00000000000E+00 0.  1.
         23    2    1    2    0    0 -0.67560987029E+02  0.18354028632E+03 -0.23297554735E+03  0.32890250537E+03  0.12509088178E+03 0.  0.
          5    1    3    3  502    0 -0.47147305354E+02  0.21620297813E+02 -0.11876081351E+03  0.12966074543E+03  0.41800000000E+01 0.  1.
         -5    1    3    3    0  502 -0.20413681674E+02  0.16191998851E+03 -0.11421473384E+03  0.19924175994E+03  0.41800000000E+01 0.  1.
        -11    1    1    2    0    0  0.27347415171E+02 -0.82203142681E+02 -0.12295819496E+02  0.87500999767E+02  0.00000000000E+00 0. -1.
         11    1    1    2    0    0  0.40213571858E+02 -0.10133714364E+03 -0.12881308233E+03  0.16875769086E+03  0.00000000000E+00 0.  1.
</event>
<event>
 7    1  0.5109948E-006  0.1157127E+03  0.7561462E-02  0.1250342E+00
         -1   -1    0    0    0  501 -0.00000000000E+00  0.00000000000E+00  0.42105401541E+03  0.42105401541E+03  0.00000000000E+00 0.  1.
          1   -1    0    0  501    0  0.00000000000E+00 -0.00000000000E+00 -0.48191133016E+02  0.48191133016E+02  0.00000000000E+00 0. -1.
         23    2    1    2    0    0 -0.48910684053E+02  0.53204268212E+02  0.31523533538E+03  0.34676232942E+03  0.12509135567E+03 0.  0.
          5    1    3    3  502    0 -0.86026421399E+02  0.57426636391E+02  0.19478707877E+03  0.22058522662E+03  0.41800000000E+01 0.  1.
         -5    1    3    3    0  502  0.37115737346E+02 -0.42223681789E+01  0.12044825661E+03  0.12617710280E+03  0.41800000000E+01 0.  1.
        -11    1    1    2    0    0  0.39946362292E+02 -0.38201318911E+01 -0.69166447392E+01  0.40720329597E+02  0.00000000000E+00 0. -1.
         11    1    1    2    0    0  0.89643217610E+01 -0.49384136321E+02  0.64544191753E+02  0.81762489406E+02  0.00000000000E+00 0.  1.
</event>
<event>
 7    1  0.5109948E-006  0.1040660E+03  0.7561462E-02  0.1271971E+00
          1   -1    0    0  501    0  0.00000000000E+00  0.00000000000E+00  0.86840920930E+02  0.86840920930E+02  0.00000000000E+00 0. -1.
         -1   -1    0    0    0  501 -0.00000000000E+00 -0.00000000000E+00 -0.17340696692E+03  0.17340696692E+03  0.00000000000E+00 0.  1.
         23    2    1    2    0    0 -0.51158869257E+02 -0.98839258792E+01 -0.74783734488E+02  0.15477407848E+03  0.12508991379E+03 0.  0.
          5    1    3    3  502    0  0.19192635301E+02  0.19561957346E+02  0.19159829400E+02  0.33698648158E+02  0.41800000000E+01 0. -1.
         -5    1    3    3    0  502 -0.70351504558E+02 -0.29445883225E+02 -0.93943563888E+02  0.12107543033E+03  0.41800000000E+01 0. -1.
        -11    1    1    2    0    0 -0.36150432758E+01 -0.33785847416E+02  0.21635099962E+01  0.34047507970E+02  0.00000000000E+00 0. -1.
         11    1    1    2    0    0  0.54773912533E+02  0.43669773295E+02 -0.13945821496E+02  0.71426301395E+02  0.00000000000E+00 0.  1.
</event>
<event>
 7    1  0.5109948E-006  0.1057123E+03  0.7561462E-02  0.1268723E+00
         -1   -1    0    0    0  501 -0.00000000000E+00  0.00000000000E+00  0.22786069778E+02  0.22786069778E+02  0.00000000000E+00 0. -1.
          1   -1    0    0  501    0  0.00000000000E+00 -0.00000000000E+00 -0.81664660211E+03  0.81664660211E+03  0.00000000000E+00 0.  1.
         23    2    1    2    0    0  0.30133246813E+02 -0.76651144126E+02 -0.41435765174E+03  0.44059479007E+03  0.12509234599E+03 0.  0.
          5    1    3    3  502    0 -0.11489090544E+02 -0.22854858801E+02 -0.33496484271E+03  0.33596616203E+03  0.41800000000E+01 0.  1.
         -5    1    3    3    0  502  0.41622337357E+02 -0.53796285325E+02 -0.79392809021E+02  0.10462862804E+03  0.41800000000E+01 0.  1.
        -11    1    1    2    0    0  0.29309686293E+02  0.22525460420E+02 -0.71179011440E+02  0.80205397245E+02  0.00000000000E+00 0. -1.
         11    1    1    2    0    0 -0.59442933107E+02  0.54125683706E+02 -0.30832386916E+03  0.31863248458E+03  0.00000000000E+00 0.  1.
</event>
<event>
 7    1  0.5109948E-006  0.1168718E+03  0.7561462E-02  0.1248349E+00
          1   -1    0    0  501    0  0.00000000000E+00  0.00000000000E+00  0.22493126165E+03  0.22493126165E+03  0.00000000000E+00 0. -1.
         -1   -1    0    0    0  501 -0.00000000000E+00 -0.00000000000E+00 -0.17786482693E+03  0.17786482693E+03  0.00000000000E+00 0.  1.
         23    2    1    2    0    0 -0.28925498228E+02 -0.55389078918E+02 -0.13254809445E+03  0.19172224646E+03  0.12362761800E+03 0.  0.
          5    1    3    3  502    0 -0.29177772395E+02  0.27529207323E+02 -0.65952737967E+01  0.40867709676E+02  0.41800000000E+01 0. -1.
         -5    1    3    3    0  502  0.25227416650E+00 -0.82918286240E+02 -0.12595282066E+03  0.15085453678E+03  0.41800000000E+01 0.  1.
        -11    1    1    2    0    0  0.23404578854E+02  0.80935457961E+02  0.14500312769E+03  0.16770280172E+03  0.00000000000E+00 0. -1.
         11    1    1    2    0    0  0.55209193736E+01 -0.25546379043E+02  0.34611401481E+02  0.43371040401E+02  0.00000000000E+00 0.  1.
</event>
<event>
 7    1  0.5109948E-006  0.8348925E+02  0.7561462E-02  0.1319431E+00
          1   -1    0    0  501    0  0.00000000000E+00  0.00000000000E+00  0.26826443070E+03  0.26826443070E+03  0.00000000000E+00 0. -1.
         -1   -1    0    0    0  501 -0.00000000000E+00 -0.00000000000E+00 -0.45897087606E+02  0.45897087606E+02  0.00000000000E+00 0.  1.
         23    2    1    2    0    0  0.15498310238E+02  0.74676094039E+01  0.10019367698E+03  0.16119594705E+03  0.12509755245E+03 0.  0.
          5    1    3    3  502    0  0.66709814452E+01  0.63819509931E+02  0.30881157102E+02  0.71334073942E+02  0.41800000000E+01 0.  1.
         -5    1    3    3    0  502  0.88273287926E+01 -0.56351900527E+02  0.69312519882E+02  0.89861873111E+02  0.41800000000E+01 0.  1.
        -11    1    1    2    0    0 -0.29138508853E+02 -0.11397369740E+02  0.13202840494E+03  0.13568512242E+03  0.00000000000E+00 0. -1.
         11    1    1    2    0    0  0.13640198615E+02  0.39297603366E+01 -0.98547388282E+01  0.17280448835E+02  0.00000000000E+00 0.  1.
</event>
<event>
 7    1  0.5109948E-006  0.8975314E+02  0.7561462E-02  0.1303451E+00
          2   -1    0    0  501    0  0.00000000000E+00  0.00000000000E+00  0.12678681135E+03  0.12678681135E+03  0.00000000000E+00 0. -1.
         -2   -1    0    0    0  501 -0.00000000000E+00 -0.00000000000E+00 -0.26569039590E+03  0.26569039590E+03  0.00000000000E+00 0.  1.
         23    2    1    2    0    0 -0.10461786762E+02 -0.54447012070E+02 -0.21994320763E+03  0.25902874931E+03  0.12508777830E+03 0.  0.
          5    1    3    3  502    0  0.17821732593E+02  0.13757767776E+01 -0.18753624210E+03  0.18843253810E+03  0.41800000000E+01 0.  1.
         -5    1    3    3    0  502 -0.28283519355E+02 -0.55822788848E+02 -0.32406965528E+02  0.70596211206E+02  0.41800000000E+01 0.  1.
        -11    1    1    2    0    0 -0.35312286525E+02  0.31058688618E+02  0.14192049917E+02  0.49122438856E+02  0.00000000000E+00 0.  1.
         11    1    1    2    0    0  0.45774073287E+02  0.23388323452E+02  0.66847573156E+02  0.84326019093E+02  0.00000000000E+00 0. -1.
</event>
<event>
 7    1  0.7328276E-006  0.2945856E+03  0.7561462E-02  0.1087979E+00
          1   -1    0    0  501    0  0.00000000000E+00  0.00000000000E+00  0.67434264433E+03  0.67434264433E+03  0.00000000000E+00 0. -1.
         -1   -1    0    0    0  501 -0.00000000000E+00 -0.00000000000E+00 -0.13509913467E+03  0.13509913467E+03  0.00000000000E+00 0.  1.
         23    2    1    2    0    0  0.12038272309E+03 -0.25417682593E+03  0.27123849881E+03  0.41026287594E+03  0.12508974888E+03 0.  0.
          5    1    3    3  502    0  0.69116374582E+02 -0.24518979025E+03  0.21342088284E+03  0.33235681445E+03  0.41800000000E+01 0.  1.
         -5    1    3    3    0  502  0.51266348511E+02 -0.89870356828E+01  0.57817615972E+02  0.77906061489E+02  0.41800000000E+01 0.  1.
        -11    1    1    2    0    0 -0.41005145005E+02  0.11306079415E+03  0.17535629522E+03  0.21263582803E+03  0.00000000000E+00 0. -1.
         11    1    1    2    0    0 -0.79377578088E+02  0.14111603179E+03  0.92648715628E+02  0.18654307502E+03  0.00000000000E+00 0.  1.
</event>
<event>
 7    1  0.5109948E-006  0.1251761E+03  0.7561462E-02  0.1234794E+00
         -2   -1    0    0    0  501 -0.00000000000E+00  0.00000000000E+00  0.72461527651E+02  0.72461527651E+02  0.00000000000E+00 0.  1.
          2   -1    0    0  501    0  0.00000000000E+00 -0.00000000000E+00 -0.33555534163E+03  0.33555534163E+03  0.00000000000E+00 0. -1.
         23    2    1    2    0    0 -0.74129829244E+02  0.31827059238E+02 -0.39827477031E+02  0.15408685174E+03  0.12509331185E+03 0.  0.
          5    1    3    3  502    0 -0.98181210537E+02  0.39408547931E+02  0.10408838611E+01  0.10588266899E+03  0.41800000000E+01 0. -1.
         -5    1    3    3    0  502  0.24051381293E+02 -0.75814886928E+01 -0.40868360892E+02  0.48204182753E+02  0.41800000000E+01 0. -1.
        -11    1    1    2    0    0  0.77352757898E+02  0.90753798479E+01 -0.12288340832E+03  0.14548588836E+03  0.00000000000E+00 0. -1.
         11    1    1    2    0    0 -0.32229286539E+01 -0.40902439086E+02 -0.10038292864E+03  0.10844412918E+03  0.00000000000E+00 0.  1.
</event>
<event>
 7    1  0.5109948E-006  0.1775615E+03  0.7561462E-02  0.1170184E+00
          1   -1    0    0  501    0  0.00000000000E+00  0.00000000000E+00  0.70161820000E+03  0.70161820000E+03  0.00000000000E+00 0. -1.
         -1   -1    0    0    0  501 -0.00000000000E+00 -0.00000000000E+00 -0.46238950050E+02  0.46238950050E+02  0.00000000000E+00 0.  1.
         23    2    1    2    0    0 -0.81269257172E+02 -0.11525471458E+03  0.28966120219E+03  0.34560747824E+03  0.12511025365E+03 0.  0.
          5    1    3    3  502    0 -0.47270801477E+01 -0.11069039868E+03  0.15466756933E+03  0.19030039162E+03  0.41800000000E+01 0. -1.
         -5    1    3    3    0  502 -0.76542177025E+02 -0.45643158961E+01  0.13499363286E+03  0.15530708663E+03  0.41800000000E+01 0. -1.
        -11    1    1    2    0    0  0.25278616848E+02 -0.12334125816E+02  0.58371519736E+02  0.64794856630E+02  0.00000000000E+00 0. -1.
         11    1    1    2    0    0  0.55990640324E+02  0.12758884040E+03  0.30734652802E+03  0.33745481517E+03  0.00000000000E+00 0.  1.
</event>
<event>
 6    1  0.5109948E-006  0.1380929E+03  0.7561462E-02  0.1215918E+00
          2   -1    0    0  501    0  0.00000000000E+00  0.00000000000E+00  0.60814665129E+03  0.60814665129E+03  0.00000000000E+00 0. -1.
         -2   -1    0    0    0  501 -0.00000000000E+00 -0.00000000000E+00 -0.50462486429E+02  0.50462486429E+02  0.00000000000E+00 0.  1.
          5    1    1    2  502    0  0.25824949752E+02 -0.97751979496E+02  0.95868780967E+02  0.13939394926E+03  0.41800000000E+01 0. -1.
         -5    1    1    2    0  502 -0.50388454378E+02  0.54787513590E+02  0.39019519685E+02  0.84146677275E+02  0.41800000000E+01 0.  1.
        -11    1    1    2    0    0  0.57606050647E+02  0.29959970916E+02  0.31333441389E+03  0.31999142466E+03  0.00000000000E+00 0. -1.
         11    1    1    2    0    0 -0.33042546021E+02  0.13004494989E+02  0.10946145032E+03  0.11507708653E+03  0.00000000000E+00 0.  1.
</event>
<event>
 7    1  0.5109948E-006  0.1058550E+03  0.7561462E-02  0.1268444E+00
         -1   -1    0    0    0  501 -0.00000000000E+00  0.00000000000E+00  0.41072783755E+02  0.41072783755E+02  0.00000000000E+00 0.  1.
          1   -1    0    0  501    0  0.00000000000E+00 -0.00000000000E+00 -0.32980410668E+03  0.32980410668E+03  0.00000000000E+00 0. -1.
         23    2    1    2    0    0 -0.26509235708E+02  0.31226731138E+02 -0.13437081967E+03  0.18809857003E+03  0.12509079323E+03 0.  0.
          5    1    3    3  502    0  0.18223387412E+02 -0.33339156368E+02 -0.90016972166E+02  0.97796313193E+02  0.41800000000E+01 0.  1.
         -5    1    3    3    0  502 -0.44732623119E+02  0.64565887506E+02 -0.44353847504E+02  0.90302256832E+02  0.41800000000E+01 0.  1.
        -11    1    1    2    0    0  0.26060443832E+02 -0.60331223666E+02 -0.84140426310E+02  0.10676429469E+03  0.00000000000E+00 0.  1.
         11    1    1    2    0    0  0.44879187586E+00  0.29104492528E+02 -0.70220076941E+02  0.76014025713E+02  0.00000000000E+00 0. -1.
</event>
<event>
 7    1  0.5109948E-006  0.1204678E+03  0.7561462E-02  0.1242327E+00
         -2   -1    0    0    0  501 -0.00000000000E+00  0.00000000000E+00  0.25232542663E+03  0.25232542663E+03  0.00000000000E+00 0.  1.
          2   -1    0    0  501    0  0.00000000000E+00 -0.00000000000E+00 -0.75556998383E+02  0.75556998383E+02  0.00000000000E+00 0. -1.
         23    2    1    2    0    0  0.31023788473E+01 -0.72546217572E+02  0.14955723815E+03  0.20805658059E+03  0.12509034657E+03 0.  0.
          5    1    3    3  502    0  0.40970158216E+02 -0.92720068621E+02  0.10797268128E+03  0.14815916203E+03  0.41800000000E+01 0. -1.
         -5    1    3    3    0  502 -0.37867779369E+02  0.20173851049E+02  0.41584556865E+02  0.59897418560E+02  0.41800000000E+01 0. -1.
        -11    1    1    2    0    0  0.12722022571E+02 -0.75053455530E+01  0.34867143044E+02  0.37866842147E+02  0.00000000000E+00 0.  1.
         11    1    1    2    0    0 -0.15824401418E+02  0.80051563125E+02 -0.76559529445E+01  0.81959002279E+02  0.00000000000E+00 0. -1.
</event>
<event>
 7    1  0.5109948E-006  0.1353572E+03  0.7561462E-02  0.1219716E+00
         -1   -1    0    0    0  501 -0.00000000000E+00  0.00000000000E+00  0.12118140166E+03  0.12118140166E+03  0.00000000000E+00 0.  1.
          1   -1    0    0  501    0  0.00000000000E+00 -0.00000000000E+00 -0.52534898227E+03  0.52534898227E+03  0.00000000000E+00 0. -1.
         23    2    1    2    0    0  0.31350692045E+02  0.97506608450E+02  0.50967468926E+02  0.17100157453E+03  0.12709622740E+03 0.  0.
          5    1    3    3  502    0 -0.36044882689E+01 -0.15085893982E+02  0.50541544265E+02  0.53032976813E+02  0.41800000000E+01 0. -1.
         -5    1    3    3    0  502  0.34955180314E+02  0.11259250243E+03  0.42592466086E+00  0.11796859771E+03  0.41800000000E+01 0.  1.
        -11    1    1    2    0    0 -0.25150915723E+02  0.11389993560E+02 -0.11807190032E+03  0.12125705819E+03  0.00000000000E+00 0.  1.
         11    1    1    2    0    0 -0.61997763219E+01 -0.10889660201E+03 -0.33706314921E+03  0.35427175122E+03  0.00000000000E+00 0. -1.
</event>
<event>
 7    1  0.5109948E-006  0.8257660E+02  0.7561462E-02  0.1321894E+00
         -1   -1    0    0    0  501 -0.00000000000E+00  0.00000000000E+00  0.41310925474E+02  0.41310925474E+02  0.00000000000E+00 0.  1.
          1   -1    0    0  501    0  0.00000000000E+00 -0.00000000000E+00 -0.31465090764E+03  0.31465090764E+03  0.00000000000E+00 0. -1.
         23    2    1    2    0    0  0.41579976245E+02  0.16030347571E+02 -0.17072195608E+03  0.21628357735E+03  0.12508690210E+03 0.  0.
          5    1    3    3  502    0 -0.11900547675E+02 -0.76265592292E+01 -0.15484291543E+03  0.15554288251E+03  0.41800000000E+01 0. -1.
         -5    1    3    3    0  502  0.53480523919E+02  0.23656906801E+02 -0.15879040648E+02  0.60740694843E+02  0.41800000000E+01 0. -1.
        -11    1    1    2    0    0 -0.62864717981E+02 -0.26309656732E+02 -0.59324488215E+02  0.90352452685E+02  0.00000000000E+00 0.  1.
         11    1    1    2    0    0  0.21284741736E+02  0.10279309161E+02 -0.43293537879E+02  0.49325803082E+02  0.00000000000E+00 0. -1.
</event>
<event>
 7    1  0.5109948E-006  0.6747071E+02  0.7561462E-02  0.1368912E+00
         -1   -1    0    0    0  501 -0.00000000000E+00  0.00000000000E+00  0.23244135334E+03  0.23244135334E+03  0.00000000000E+00 0.  1.
          1   -1    0    0  501    0  0.00000000000E+00 -0.00000000000E+00 -0.42269646116E+02  0.42269646116E+02  0.00000000000E+00 0. -1.
         23    2    1    2    0    0 -0.23935301440E+02 -0.39791958866E+01  0.16637874913E+03  0.20955415389E+03  0.12506927118E+03 0.  0.
          5    1    3    3  502    0 -0.44934389610E+02 -0.18247773003E+02  0.82822696106E+01  0.49377616175E+02  0.41800000000E+01 0. -1.
         -5    1    3    3    0  502  0.20999088170E+02  0.14268577117E+02  0.15809647952E+03  0.16017653771E+03  0.41800000000E+01 0. -1.
        -11    1    1    2    0    0  0.41579989212E+02 -0.26985217924E+01  0.14431319464E+02  0.44095810506E+02  0.00000000000E+00 0.  1.
         11    1    1    2    0    0 -0.17644687772E+02  0.66777176790E+01  0.93616386237E+01  0.21061035057E+02  0.00000000000E+00 0. -1.
</event>
<event>
 7    1  0.5109948E-006  0.6573940E+02  0.7561462E-02  0.1375212E+00
          2   -1    0    0  501    0  0.00000000000E+00  0.00000000000E+00  0.10990779304E+03  0.10990779304E+03  0.00000000000E+00 0. -1.
         -2   -1    0    0    0  501 -0.00000000000E+00 -0.00000000000E+00 -0.91597950779E+02  0.91597950779E+02  0.00000000000E+00 0.  1.
         23    2    1    2    0    0 -0.20860013440E+02  0.54106390854E+02 -0.15804901494E+02  0.13040089333E+03  0.11572362065E+03 0.  0.
          5    1    3    3  502    0 -0.26700781453E+02  0.15764603338E+02  0.47003476826E+02  0.56464623282E+02  0.41800000000E+01 0. -1.
         -5    1    3    3    0  502  0.58407680133E+01  0.38341787516E+02 -0.62808378319E+02  0.73936270044E+02  0.41800000000E+01 0.  1.
        -11    1    1    2    0    0  0.24342775027E+02 -0.41588574180E+02  0.32234500890E+02  0.57976230008E+02  0.00000000000E+00 0. -1.
         11    1    1    2    0    0 -0.34827615869E+01 -0.12517816674E+02  0.18802428614E+01  0.13128620483E+02  0.00000000000E+00 0.  1.
</event>
<event>
 7    1  0.5109948E-006  0.9460144E+02  0.7561462E-02  0.1292076E+00
          4   -1    0    0  501    0  0.00000000000E+00  0.00000000000E+00  0.20593128672E+03  0.20593128672E+03  0.00000000000E+00 0. -1.
         -4   -1    0    0    0  501 -0.00000000000E+00 -0.00000000000E+00 -0.80264295398E+02  0.80264295398E+02  0.00000000000E+00 0.  1.
         23    2    1    2    0    0 -0.33004751783E+02 -0.53194845904E+02  0.41211026566E+02  0.14582308619E+03  0.12508804293E+03 0.  0.
          5    1    3    3  502    0 -0.12523826100E+02  0.13749260452E+02 -0.36479993287E+02  0.41160061873E+02  0.41800000000E+01 0.  1.
         -5    1    3    3    0  502 -0.20480925683E+02 -0.66944106356E+02  0.77691019854E+02  0.10466302431E+03  0.41800000000E+01 0.  1.
        -11    1    1    2    0    0 -0.48691294880E+01  0.61121119513E+02  0.18746729385E+02  0.64116608886E+02  0.00000000000E+00 0.  1.
         11    1    1    2    0    0  0.37873881271E+02 -0.79262736086E+01  0.65709235367E+02  0.76255887040E+02  0.00000000000E+00 0. -1.
</event>
<event>
 7    1  0.5109948E-006  0.9070019E+02  0.7561462E-02  0.1301165E+00
          1   -1    0    0  501    0  0.00000000000E+00  0.00000000000E+00  0.14381504114E+03  0.14381504114E+03  0.00000000000E+00 0. -1.
         -1   -1    0    0    0  501 -0.00000000000E+00 -0.00000000000E+00 -0.99616763000E+02  0.99616763000E+02  0.00000000000E+00 0.  1.
         23    2    1    2    0    0  0.51962202338E+01 -0.21686782389E+02 -0.25862672511E+02  0.12966157144E+03  0.12508368417E+03 0.  0.
          5    1    3    3  502    0 -0.45818147241E+02  0.27174957637E+02 -0.24754006437E+02  0.58889847800E+02  0.41800000000E+01 0. -1.
         -5    1    3    3    0  502  0.51014367475E+02 -0.48861740026E+02 -0.11086660740E+01  0.70771723645E+02  0.41800000000E+01 0. -1.
        -11    1    1    2    0    0  0.16788161208E+02 -0.93134159929E+01  0.73162601072E+02  0.75639594591E+02  0.00000000000E+00 0. -1.
         11    1    1    2    0    0 -0.21984381441E+02  0.31000198382E+02 -0.31016504187E+01  0.38130638106E+02  0.00000000000E+00 0.  1.
</event>
<event>
 7    1  0.5109948E-006  0.1313063E+03  0.7561462E-02  0.1225530E+00
          1   -1    0    0  501    0  0.00000000000E+00  0.00000000000E+00  0.51964137819E+03  0.51964137819E+03  0.00000000000E+00 0. -1.
         -1   -1    0    0    0  501 -0.00000000000E+00 -0.00000000000E+00 -0.36214981485E+02  0.36214981485E+02  0.00000000000E+00 0.  1.
         23    2    1    2    0    0  0.61799932943E+02 -0.53552826319E+02  0.24752396656E+03  0.28914120279E+03  0.12508950480E+03 0.  0.
          5    1    3    3  502    0  0.91233811089E+02 -0.62591608509E+02  0.14769202656E+03  0.18458527799E+03  0.41800000000E+01 0. -1.
         -5    1    3    3    0  502 -0.29433878146E+02  0.90387821907E+01  0.99831940007E+02  0.10455592481E+03  0.41800000000E+01 0. -1.
        -11    1    1    2    0    0 -0.49164006337E+02 -0.14773210942E+02  0.69632828039E+02  0.86510565952E+02  0.00000000000E+00 0.  1.
         11    1    1    2    0    0 -0.12635926606E+02  0.68326037261E+02  0.16626960211E+03  0.18020459093E+03  0.00000000000E+00 0. -1.
</event>
<event>
 7    1  0.5109948E-006  0.1074917E+03  0.7561462E-02  0.1265287E+00
          2   -1    0    0  501    0  0.00000000000E+00  0.00000000000E+00  0.70003646227E+03  0.70003646227E+03  0.00000000000E+00 0. -1.
         -2   -1    0    0    0  501 -0.00000000000E+00 -0.00000000000E+00 -0.18312843636E+02  0.18312843636E+02  0.00000000000E+00 0.  1.
         23    2    1    2    0    0 -0.19899115498E+02 -0.24215166332E+02  0.35536995700E+03  0.37804396115E+03  0.12508829340E+03 0.  0.
          5    1    3    3  502    0  0.41827607513E+02 -0.37458815196E+02  0.23945883734E+03  0.24598926555E+03  0.41800000000E+01 0.  1.
         -5    1    3    3    0  502 -0.61726723011E+02  0.13243648864E+02  0.11591111966E+03  0.13205469560E+03  0.41800000000E+01 0.  1.
        -11    1    1    2    0    0  0.30316870569E+02  0.55058884736E+02  0.23746546127E+03  0.24564290897E+03  0.00000000000E+00 0.  1.
         11    1    1    2    0    0 -0.10417755071E+02 -0.30843718404E+02  0.88888200364E+02  0.94662435790E+02  0.00000000000E+00 0. -1.
</event>
<event>
 7    1  0.5109948E-006  0.1206966E+03  0.7561462E-02  0.1241952E+00
          2   -1    0    0  501    0  0.00000000000E+00  0.00000000000E+00  0.37948810980E+02  0.37948810980E+02  0.00000000000E+00 0.  1.
         -2   -1    0    0    0  501 -0.00000000000E+00 -0.00000000000E+00 -0.53650155030E+03  0.53650155030E+03  0.00000000000E+00 0. -1.
         23    2    1    2    0    0 -0.56000784703E+02 -0.72176552767E+02 -0.25007683497E+03  0.29416191877E+03  0.12508904194E+03 0.  0.
          5    1    3    3  502    0 -0.18738087775E+02 -0.80682546861E+02 -0.65662318656E+02  0.10578185947E+03  0.41800000000E+01 0.  1.
         -5    1    3    3    0  502 -0.37262696928E+02  0.85059940942E+01 -0.18441451631E+03  0.18838005931E+03  0.41800000000E+01 0.  1.
        -11    1    1    2    0    0  0.48869867563E+02  0.14165449820E+01 -0.15689721669E+03  0.16433808798E+03  0.00000000000E+00 0. -1.
         11    1    1    2    0    0  0.71309171407E+01  0.70760007785E+02 -0.91578687667E+02  0.11595035453E+03  0.00000000000E+00 0.  1.
</event>
<event>
 7    1  0.5109948E-006  0.1726567E+03  0.7561462E-02  0.1175105E+00
         -1   -1    0    0    0  501 -0.00000000000E+00  0.00000000000E+00  0.43480399646E+03  0.43480399646E+03  0.00000000000E+00 0.  1.
          1   -1    0    0  501    0  0.00000000000E+00 -0.00000000000E+00 -0.76600384696E+02  0.76600384696E+02  0.00000000000E+00 0. -1.
         23    2    1    2    0    0  0.36725400253E+02 -0.14088715131E+03  0.20066708721E+03  0.27769200068E+03  0.12509045896E+03 0.  0.
          5    1    3    3  502    0  0.11343510120E+02 -0.15619783121E+03  0.14027552543E+03  0.21028821444E+03  0.41800000000E+01 0.  1.
         -5    1    3    3    0  502  0.25381890132E+02  0.15310679898E+02  0.60391561777E+02  0.67403786240E+02  0.41800000000E+01 0.  1.
        -11    1    1    2    0    0 -0.17232972164E+02  0.13792417827E+03  0.16204052277E+03  0.21348813854E+03  0.00000000000E+00 0.  1.
         11    1    1    2    0    0 -0.19492428088E+02  0.29629730484E+01 -0.45039982063E+01  0.20224241936E+02  0.00000000000E+00 0. -1.
</event>
<event>
 7    1  0.5109948E-006  0.1519777E+03  0.7561462E-02  0.1198064E+00
         -2   -1    0    0    0  501 -0.00000000000E+00  0.00000000000E+00  0.12082592923E+03  0.12082592923E+03  0.00000000000E+00 0. -1.
          2   -1    0    0  501    0  0.00000000000E+00 -0.00000000000E+00 -0.53024713673E+03  0.53024713673E+03  0.00000000000E+00 0.  1.
         23    2    1    2    0    0  0.13292916589E+03 -0.60402714504E+02  0.15500264772E+02  0.19289088134E+03  0.12509189755E+03 0.  0.
          5    1    3    3  502    0  0.46891346827E+02 -0.32799212373E+01  0.63348645899E+02  0.78994174645E+02  0.41800000000E+01 0.  1.
         -5    1    3    3    0  502  0.86037819058E+02 -0.57122793267E+02 -0.47848381128E+02  0.11389670669E+03  0.41800000000E+01 0.  1.
        -11    1    1    2    0    0 -0.10263572484E+03  0.22834680852E+02 -0.37193711170E+03  0.38651355698E+03  0.00000000000E+00 0.  1.
         11    1    1    2    0    0 -0.30293441043E+02  0.37568033653E+02 -0.52984360570E+02  0.71668627640E+02  0.00000000000E+00 0. -1.
</event>
<event>
 7    1  0.5109948E-006  0.6913538E+02  0.7561462E-02  0.1363058E+00
         -1   -1    0    0    0  501 -0.00000000000E+00  0.00000000000E+00  0.44808849817E+02  0.44808849817E+02  0.00000000000E+00 0.  1.
          1   -1    0    0  501    0  0.00000000000E+00 -0.00000000000E+00 -0.32185451807E+03  0.32185451807E+03  0.00000000000E+00 0. -1.
         23    2    1    2    0    0  0.38381101672E+02 -0.34588093065E+02 -0.15572478160E+03  0.20631803688E+03  0.12508988603E+03 0.  0.
          5    1    3    3  502    0  0.20768536546E+02 -0.17078306152E+02  0.16790009730E+02  0.31974638044E+02  0.41800000000E+01 0. -1.
         -5    1    3    3    0  502  0.17612565125E+02 -0.17509786912E+02 -0.17251479133E+03  0.17434339883E+03  0.41800000000E+01 0. -1.
        -11    1    1    2    0    0 -0.23422115248E+02 -0.19049035943E+02 -0.93191222924E+02  0.97959508385E+02  0.00000000000E+00 0. -1.
         11    1    1    2    0    0 -0.14958986424E+02  0.53637129008E+02 -0.28129663723E+02  0.62385822622E+02  0.00000000000E+00 0.  1.
</event>
<event>
 7    1  0.5109948E-006  0.2768102E+03  0.7561462E-02  0.1097444E+00
         -2   -1    0    0    0  501 -0.00000000000E+00  0.00000000000E+00  0.99696413755E+02  0.99696413755E+02  0.00000000000E+00 0.  1.
          2   -1    0    0  501    0  0.00000000000E+00 -0.00000000000E+00 -0.12130998911E+04  0.12130998911E+04  0.00000000000E+00 0. -1.
         23    2    1    2    0    0  0.25626546451E+03  0.16013871157E+02 -0.17470703753E+03  0.33491855430E+03  0.12537725743E+03 0.  0.
          5    1    3    3  502    0  0.15109692911E+03 -0.49198059920E+02 -0.12186376619E+03  0.20029723163E+03  0.41800000000E+01 0. -1.
         -5    1    3    3    0  502  0.10516853540E+03  0.65211931077E+02 -0.52843271341E+02  0.13462132268E+03  0.41800000000E+01 0.  1.
        -11    1    1    2    0    0 -0.17810195882E+03  0.29299359348E+02 -0.55172213817E+03  0.58049640648E+03  0.00000000000E+00 0.  1.
         11    1    1    2    0    0 -0.78163505692E+02 -0.45313230505E+02 -0.38697430160E+03  0.39738134403E+03  0.00000000000E+00 0. -1.
</event>
<event>
 7    1  0.5109948E-006  0.1096119E+03  0.7561462E-02  0.1261290E+00
         -2   -1    0    0    0  501 -0.00000000000E+00  0.00000000000E+00  0.55140414177E+02  0.55140414177E+02  0.00000000000E+00 0.  1.
          2   -1    0    0  501    0  0.00000000000E+00 -0.00000000000E+00 -0.28787518611E+03  0.28787518611E+03  0.00000000000E+00 0. -1.
         23    2    1    2    0    0  0.16985855049E+01 -0.62012501240E+02 -0.10235703250E+03  0.17312659681E+03  0.12508965152E+03 0.  0.
          5    1    3    3  502    0  0.42084947622E+02 -0.58279493122E+02 -0.10685226873E+02  0.72796212870E+02  0.41800000000E+01 0. -1.
         -5    1    3    3    0  502 -0.40386362117E+02 -0.37330081185E+01 -0.91671805630E+02  0.10033038394E+03  0.41800000000E+01 0. -1.
        -11    1    1    2    0    0  0.33904023021E+02 -0.11651035538E+01 -0.59466198675E+02  0.68462172243E+02  0.00000000000E+00 0.  1.
         11    1    1    2    0    0 -0.35602608525E+02  0.63177604794E+02 -0.70911540756E+02  0.10142683123E+03  0.00000000000E+00 0. -1.
</event>
<event>
 7    1  0.5109948E-006  0.1895731E+03  0.7561462E-02  0.1158847E+00
         -2   -1    0    0    0  501 -0.00000000000E+00  0.00000000000E+00  0.71272817889E+02  0.71272817889E+02  0.00000000000E+00 0.  1.
          2   -1    0    0  501    0  0.00000000000E+00 -0.00000000000E+00 -0.66661499996E+03  0.66661499996E+03  0.00000000000E+00 0. -1.
         23    2    1    2    0    0  0.17037156602E+03  0.52761091540E+02 -0.20482116321E+03  0.29901123725E+03  0.12508320356E+03 0.  0.
          5    1    3    3  502    0  0.13073355526E+03  0.64053105419E+02 -0.21175822873E+03  0.25700794272E+03  0.41800000000E+01 0.  1.
         -5    1    3    3    0  502  0.39638010751E+02 -0.11292013879E+02  0.69370655121E+01  0.42003294534E+02  0.41800000000E+01 0.  1.
        -11    1    1    2    0    0 -0.52364424639E+02  0.16924156431E+02 -0.17521879501E+03  0.18365752412E+03  0.00000000000E+00 0. -1.
         11    1    1    2    0    0 -0.11800714138E+03 -0.69685247971E+02 -0.21530222385E+03  0.25521905649E+03  0.00000000000E+00 0.  1.
</event>
<event>
 7    1  0.5109948E-006  0.1045887E+03  0.7561462E-02  0.1270932E+00
         -2   -1    0    0    0  501 -0.00000000000E+00  0.00000000000E+00  0.97483065111E+01  0.97483065111E+01  0.00000000000E+00 0. -1.
          2   -1    0    0  501    0  0.00000000000E+00 -0.00000000000E+00 -0.13605674515E+04  0.13605674515E+04  0.00000000000E+00 0.  1.
         23    2    1    2    0    0 -0.23088775930E+02  0.29702434542E+02 -0.82619553439E+03  0.83645763433E+03  0.12508791626E+03 0.  0.
          5    1    3    3  502    0  0.37638264754E+02 -0.83742877794E+01 -0.10933105020E+03  0.11600654554E+03  0.41800000000E+01 0.  1.
         -5    1    3    3    0  502 -0.60727040684E+02  0.38076722321E+02 -0.71686448419E+03  0.72045108879E+03  0.41800000000E+01 0.  1.
        -11    1    1    2    0    0  0.40005588022E+02 -0.55091817755E+02 -0.34341549853E+03  0.35009964309E+03  0.00000000000E+00 0.  1.
         11    1    1    2    0    0 -0.16916812092E+02  0.25389383213E+02 -0.18120811206E+03  0.18375848059E+03  0.00000000000E+00 0. -1.
</event>
<event>
 6    1  0.5109948E-006  0.1505820E+03  0.7561462E-02  0.1199760E+00
          2   -1    0    0  501    0  0.00000000000E+00  0.00000000000E+00  0.46806962907E+03  0.46806962907E+03  0.00000000000E+00 0. -1.
         -2   -1    0    0    0  501 -0.00000000000E+00 -0.00000000000E+00 -0.74644301133E+02  0.74644301133E+02  0.00000000000E+00 0.  1.
          5    1    1    2  502    0  0.10333370544E+03 -0.87709767419E+02  0.27958340388E+03  0.31073334244E+03  0.41800000000E+01 0. -1.
         -5    1    1    2    0  502 -0.10908556821E+03  0.43528269489E+02  0.10466054379E+02  0.11798890681E+03  0.41800000000E+01 0.  1.
        -11    1    1    2    0    0 -0.32161643606E+01  0.35192551693E+02  0.76139740257E+02  0.83941166625E+02  0.00000000000E+00 0.  1.
         11    1    1    2    0    0  0.89680271343E+01  0.89889462378E+01  0.27236129420E+02  0.30050514320E+02  0.00000000000E+00 0. -1.
</event>
<event>
 7    1  0.5109948E-006  0.1244895E+03  0.7561462E-02  0.1235869E+00
         -2   -1    0    0    0  501 -0.00000000000E+00  0.00000000000E+00  0.12621492168E+03  0.12621492168E+03  0.00000000000E+00 0. -1.
          2   -1    0    0  501    0  0.00000000000E+00 -0.00000000000E+00 -0.13900926115E+03  0.13900926115E+03  0.00000000000E+00 0.  1.
         23    2    1    2    0    0  0.35275089984E+02 -0.66086300622E+02 -0.33420373418E+01  0.14584275722E+03  0.12508880652E+03 0.  0.
          5    1    3    3  502    0 -0.44138348052E+02 -0.63921439585E+01  0.88587372895E+01  0.45661831977E+02  0.41800000000E+01 0. -1.
         -5    1    3    3    0  502  0.79413438036E+02 -0.59694156663E+02 -0.12200774631E+02  0.10018092524E+03  0.41800000000E+01 0. -1.
        -11    1    1    2    0    0 -0.24434726349E+01  0.71442232685E+02 -0.32890897630E+02  0.78687828261E+02  0.00000000000E+00 0. -1.
         11    1    1    2    0    0 -0.32831617349E+02 -0.53559320632E+01  0.23438595502E+02  0.40693597348E+02  0.00000000000E+00 0.  1.
</event>
<event>
 7    1  0.5109948E-006  0.8759857E+02  0.7561462E-02  0.1308774E+00
          2   -1    0    0  501    0  0.00000000000E+00  0.00000000000E+00  0.12368048456E+03  0.12368048456E+03  0.00000000000E+00 0. -1.
         -2   -1    0    0    0  501 -0.00000000000E+00 -0.00000000000E+00 -0.98817439163E+02  0.98817439163E+02  0.00000000000E+00 0.  1.
         23    2    1    2    0    0 -0.24808188512E+02  0.66750297108E+00  0.13163080515E+02  0.12820830583E+03  0.12509281042E+03 0.  0.
          5    1    3    3  502    0  0.49579510850E+02 -0.20269847722E+01 -0.86204033277E+01  0.50537316084E+02  0.41800000000E+01 0.  1.
         -5    1    3    3    0  502 -0.74387699362E+02  0.26944877433E+01  0.21783483843E+02  0.77670989751E+02  0.41800000000E+01 0.  1.
        -11    1    1    2    0    0  0.42729933952E+01  0.20743949734E+02 -0.33850224792E+02  0.39930034330E+02  0.00000000000E+00 0.  1.
         11    1    1    2    0    0  0.20535195117E+02 -0.21411452705E+02  0.45550189677E+02  0.54359583562E+02  0.00000000000E+00 0. -1.
</event>
<event>
 7    1  0.5109948E-006  0.1333011E+03  0.7561462E-02  0.1222638E+00
          2   -1    0    0  501    0  0.00000000000E+00  0.00000000000E+00  0.54279622757E+02  0.54279622757E+02  0.00000000000E+00 0. -1.
         -2   -1    0    0    0  501 -0.00000000000E+00 -0.00000000000E+00 -0.48530933954E+03  0.48530933954E+03  0.00000000000E+00 0.  1.
         23    2    1    2    0    0  0.37379645009E+02 -0.10106605052E+03 -0.34572120995E+03  0.38312808767E+03  0.12510952050E+03 0.  0.
          5    1    3    3  502    0  0.59394518251E+02 -0.26243224854E+02 -0.25615055443E+03  0.26428581986E+03  0.41800000000E+01 0.  1.
         -5    1    3    3    0  502 -0.22014873242E+02 -0.74822825670E+02 -0.89570655529E+02  0.11884226780E+03  0.41800000000E+01 0.  1.
        -11    1    1    2    0    0 -0.47725434196E+02  0.42347351488E+02 -0.17486684857E+02  0.66157383522E+02  0.00000000000E+00 0. -1.
         11    1    1    2    0    0  0.10345789187E+02  0.58718699035E+02 -0.67821821977E+02  0.90303491109E+02  0.00000000000E+00 0.  1.
</event>
<event>
 7    1  0.5109948E-006  0.1383848E+03  0.7561462E-02  0.1215519E+00
          2   -1    0    0  501    0  0.00000000000E+00  0.00000000000E+00  0.73875638668E+02  0.73875638668E+02  0.00000000000E+00 0. -1.
         -2   -1    0    0    0  501 -0.00000000000E+00 -0.00000000000E+00 -0.28931504416E+03  0.28931504416E+03  0.00000000000E+00 0.  1.
         23    2    1    2    0    0  0.85311754069E+02 -0.20373187260E+02 -0.17171344902E+03  0.22983964525E+03  0.12509033460E+03 0.  0.
          5    1    3    3  502    0  0.39792471720E+02 -0.72891303678E+02 -0.93889911431E+02  0.12541678845E+03  0.41800000000E+01 0. -1.
         -5    1    3    3    0  502  0.45519282349E+02  0.52518116418E+02 -0.77823537591E+02  0.10442285679E+03  0.41800000000E+01 0. -1.
        -11    1    1    2    0    0 -0.77386965141E+02 -0.22343849668E+02 -0.16935649827E+02  0.82309211069E+02  0.00000000000E+00 0.  1.
         11    1    1    2    0    0 -0.79247889281E+01  0.42717036928E+02 -0.26790306640E+02  0.51041826509E+02  0.00000000000E+00 0. -1.
</event>
<event>
 7    1  0.5109948E-006  0.9876963E+02  0.7561462E-02  0.1282905E+00
         -1   -1    0    0    0  501 -0.00000000000E+00  0.00000000000E+00  0.88602467693E+02  0.88602467693E+02  0.00000000000E+00 0.  1.
          1   -1    0    0  501    0  0.00000000000E+00 -0.00000000000E+00 -0.14975848348E+03  0.14975848348E+03  0.00000000000E+00 0. -1.
         23    2    1    2    0    0  0.31261557882E+02  0.32912783125E+01 -0.11586426596E+02  0.12949801630E+03  0.12508946170E+03 0.  0.
          5    1    3    3  502    0 -0.45889403784E+02 -0.14105754039E+02 -0.14256137259E+02  0.50254547318E+02  0.41800000000E+01 0.  1.
         -5    1    3    3    0  502  0.77150961666E+02  0.17397032351E+02  0.26697106622E+01  0.79243468978E+02  0.41800000000E+01 0.  1.
        -11    1    1    2    0    0 -0.46462507909E+02 -0.17202766652E+02  0.57051270942E+01  0.49872319946E+02  0.00000000000E+00 0.  1.
         11    1    1    2    0    0  0.15200950027E+02  0.13911488339E+02 -0.55274716285E+02  0.58990614931E+02  0.00000000000E+00 0. -1.
</event>
<event>
 7    1  0.5109948E-006  0.9544292E+02  0.7561462E-02  0.1290182E+00
          2   -1    0    0  501    0  0.00000000000E+00  0.00000000000E+00  0.19188465800E+03  0.19188465800E+03  0.00000000000E+00 0. -1.
         -2   -1    0    0    0  501 -0.00000000000E+00 -0.00000000000E+00 -0.66206126595E+02  0.66206126595E+02  0.00000000000E+00 0.  1.
         23    2    1    2    0    0 -0.21290564968E+01 -0.11039357398E+01  0.54450516833E+02  0.13644675114E+03  0.12508839098E+03 0.  0.
          5    1    3    3  502    0  0.56150572549E+02  0.84183133001E+01  0.52142701533E+02  0.77201609566E+02  0.41800000000E+01 0.  1.
         -5    1    3    3    0  502 -0.58279629046E+02 -0.95222490399E+01  0.23078152996E+01  0.59245141573E+02  0.41800000000E+01 0.  1.
        -11    1    1    2    0    0 -0.19613760361E+01 -0.36688416781E+02 -0.43968339748E+01  0.37002960299E+02  0.00000000000E+00 0.  1.
         11    1    1    2    0    0  0.40904325329E+01  0.37792352521E+02  0.75624848543E+02  0.84641073153E+02  0.00000000000E+00 0. -1.
</event>
<event>
 7    1  0.5109948E-006  0.1146523E+03  0.7561462E-02  0.1252189E+00
          1   -1    0    0  501    0  0.00000000000E+00  0.00000000000E+00  0.15164389886E+03  0.15164389886E+03  0.00000000000E+00 0. -1.
         -1   -1    0    0    0  501 -0.00000000000E+00 -0.00000000000E+00 -0.14517215945E+03  0.14517215945E+03  0.00000000000E+00 0.  1.
         23    2    1    2    0    0 -0.51367962045E+02  0.50358922233E+02 -0.69789019681E+02  0.16029018767E+03  0.12509096060E+03 0.  0.
          5    1    3    3  502    0 -0.65315672292E+02  0.74703669345E+02 -0.82587106359E+02  0.12916995702E+03  0.41800000000E+01 0.  1.
         -5    1    3    3    0  502  0.13947710247E+02 -0.24344747112E+02  0.12798086679E+02  0.31120230650E+02  0.41800000000E+01 0.  1.
        -11    1    1    2    0    0 -0.18435784457E+02 -0.11482840230E+02 -0.52931885874E+01  0.22355124999E+02  0.00000000000E+00 0.  1.
         11    1    1    2    0    0  0.69803746502E+02 -0.38876082003E+02  0.81553947674E+02  0.11417074563E+03  0.00000000000E+00 0. -1.
</event>
<event>
 7    1  0.5109948E-006  0.1650012E+03  0.7561462E-02  0.1183163E+00
          2   -1    0    0  501    0  0.00000000000E+00  0.00000000000E+00  0.14640095615E+03  0.14640095615E+03  0.00000000000E+00 0. -1.
         -2   -1    0    0    0  501 -0.00000000000E+00 -0.00000000000E+00 -0.19107853156E+03  0.19107853156E+03  0.00000000000E+00 0.  1.
         23    2    1    2    0    0 -0.10812318789E+03 -0.64405030833E+02 -0.39665181233E+02  0.18182330862E+03  0.12509099568E+03 0.  0.
          5    1    3    3  502    0 -0.31722188561E+01  0.33223659727E+02 -0.12437487213E+02  0.35861372343E+02  0.41800000000E+01 0. -1.
         -5    1    3    3    0  502 -0.10495096903E+03 -0.97628690560E+02 -0.27227694020E+02  0.14596193628E+03  0.41800000000E+01 0. -1.
        -11    1    1    2    0    0  0.52933555648E+02 -0.16129484469E+02 -0.15494126008E+02  0.57464680661E+02  0.00000000000E+00 0.  1.
         11    1    1    2    0    0  0.55189632243E+02  0.80534515302E+02  0.10481731832E+02  0.98191498431E+02  0.00000000000E+00 0. -1.
</event>
<event>
 7    1  0.5109948E-006  0.1556283E+03  0.7561462E-02  0.1193723E+00
         -2   -1    0    0    0  501 -0.00000000000E+00  0.00000000000E+00  0.15295104323E+03  0.15295104323E+03  0.00000000000E+00 0.  1.
          2   -1    0    0  501    0  0.00000000000E+00 -0.00000000000E+00 -0.51434206253E+03  0.51434206253E+03  0.00000000000E+00 0. -1.
         23    2    1    2    0    0  0.89597267349E+02  0.79709466685E+02  0.86850997819E+02  0.19383312524E+03  0.12508763018E+03 0.  0.
          5    1    3    3  502    0 -0.24437672078E+02 -0.66347036412E+00  0.39125218618E+02  0.46323807502E+02  0.41800000000E+01 0. -1.
         -5    1    3    3    0  502  0.11403493943E+03  0.80372937049E+02  0.47725779200E+02  0.14750931774E+03  0.41800000000E+01 0. -1.
        -11    1    1    2    0    0 -0.94970551553E+02 -0.34026614344E+02 -0.36104693560E+03  0.37487612067E+03  0.00000000000E+00 0.  1.
         11    1    1    2    0    0  0.53732842043E+01 -0.45682852341E+02 -0.87195081520E+02  0.98583859848E+02  0.00000000000E+00 0. -1.
</event>
<event>
 7    1  0.5109948E-006  0.1824151E+03  0.7561462E-02  0.1165486E+00
          1   -1    0    0  501    0  0.00000000000E+00  0.00000000000E+00  0.14067100664E+04  0.14067100664E+04  0.00000000000E+00 0. -1.
         -1   -1    0    0    0  501 -0.00000000000E+00 -0.00000000000E+00 -0.34443696379E+02  0.34443696379E+02  0.00000000000E+00 0.  1.
         23    2    1    2    0    0 -0.17945964766E+03 -0.28008801272E+02  0.52055070591E+03  0.56534092759E+03  0.12508824445E+03 0.  0.
          5    1    3    3  502    0 -0.16448385180E+03 -0.29166556811E+02  0.29334521995E+03  0.33760111968E+03  0.41800000000E+01 0.  1.
         -5    1    3    3    0  502 -0.14975795863E+02  0.11577555399E+01  0.22720548596E+03  0.22773980792E+03  0.41800000000E+01 0.  1.
        -11    1    1    2    0    0  0.11633636311E+03  0.24682846685E+02  0.71951771346E+03  0.72927987240E+03  0.00000000000E+00 0. -1.
         11    1    1    2    0    0  0.63123284557E+02  0.33259545861E+01  0.13219795064E+03  0.14653296278E+03  0.00000000000E+00 0.  1.
</event>
<event>
 7    1  0.5109948E-006  0.1104522E+03  0.7561462E-02  0.1259735E+00
         -1   -1    0    0    0  501 -0.00000000000E+00  0.00000000000E+00  0.17718487145E+02  0.17718487145E+02  0.00000000000E+00 0.  1.
          1   -1    0    0  501    0  0.00000000000E+00 -0.00000000000E+00 -0.72940767705E+03  0.72940767705E+03  0.00000000000E+00 0. -1.
         23    2    1    2    0    0  0.31533280245E+02 -0.10521716987E+02 -0.45176370913E+03  0.46993799929E+03  0.12508485118E+03 0.  0.
          5    1    3    3  502    0 -0.42691636770E+02  0.20544824499E+02 -0.20086992098E+03  0.20642398896E+03  0.41800000000E+01 0. -1.
         -5    1    3    3    0  502  0.74224917015E+02 -0.31066541486E+02 -0.25089378815E+03  0.26351401032E+03  0.41800000000E+01 0. -1.
        -11    1    1    2    0    0  0.35206613898E+01 -0.35077746198E+02 -0.64883399524E+02  0.73842392085E+02  0.00000000000E+00 0.  1.
         11    1    1    2    0    0 -0.35053941635E+02  0.45599463185E+02 -0.19504208125E+03  0.20334577283E+03  0.00000000000E+00 0. -1.
</event>
<event>
 7    1  0.5109948E-006  0.1013197E+03  0.7561462E-02  0.1277545E+00
         -2   -1    0    0    0  501 -0.00000000000E+00  0.00000000000E+00  0.14937921866E+03  0.14937921866E+03  0.00000000000E+00 0.  1.
          2   -1    0    0  501    0  0.00000000000E+00 -0.00000000000E+00 -0.13114926039E+03  0.13114926039E+03  0.00000000000E+00 0. -1.
         23    2    1    2    0    0  0.37654571712E+02 -0.19834665098E+02  0.87102777981E+02  0.15826528425E+03  0.12509886313E+03 0.  0.
          5    1    3    3  502    0 -0.35462471571E+02 -0.35842602873E+02  0.11680998446E+02  0.51924918829E+02  0.41800000000E+01 0. -1.
         -5    1    3    3    0  502  0.73117043283E+02  0.16007937776E+02  0.75421779536E+02  0.10634036542E+03  0.41800000000E+01 0. -1.
        -11    1    1    2    0    0  0.19667667504E+01  0.34704516144E+02 -0.71872875419E+02  0.79837220851E+02  0.00000000000E+00 0. -1.
         11    1    1    2    0    0 -0.39621338462E+02 -0.14869851046E+02  0.30000557063E+01  0.42425973954E+02  0.00000000000E+00 0.  1.
</event>
<event>
 7    1  0.5109948E-006  0.9109550E+02  0.7561462E-02  0.1300220E+00
          1   -1    0    0  501    0  0.00000000000E+00  0.00000000000E+00  0.13335646474E+03  0.13335646474E+03  0.00000000000E+00 0. -1.
         -1   -1    0    0    0  501 -0.00000000000E+00 -0.00000000000E+00 -0.12256620931E+03  0.12256620931E+03  0.00000000000E+00 0.  1.
         23    2    1    2    0    0  0.85342894358E+01  0.13906847164E+02 -0.61128568173E+02  0.14018852727E+03  0.12509950774E+03 0.  0.
          5    1    3    3  502    0  0.43909784036E+01  0.59031165142E+02 -0.72098024005E+02  0.93378566142E+02  0.41800000000E+01 0. -1.
         -5    1    3    3    0  502  0.41433110321E+01 -0.45124317978E+02  0.10969455832E+02  0.46809961125E+02  0.41800000000E+01 0. -1.
        -11    1    1    2    0    0  0.71718319191E+01  0.29930003533E+02  0.87513362889E+00  0.30789708401E+02  0.00000000000E+00 0.  1.
         11    1    1    2    0    0 -0.15706121355E+02 -0.43836850697E+02  0.71043689970E+02  0.84944438380E+02  0.00000000000E+00 0. -1.
</event>
<event>
 7    1  0.5109948E-006  0.1676256E+03  0.7561462E-02  0.1180347E+00
          2   -1    0    0  501    0  0.00000000000E+00  0.00000000000E+00  0.91181802528E+02  0.91181802528E+02  0.00000000000E+00 0. -1.
         -2   -1    0    0    0  501 -0.00000000000E+00 -0.00000000000E+00 -0.39655491562E+03  0.39655491562E+03  0.00000000000E+00 0.  1.
         23    2    1    2    0    0 -0.49488103470E+02  0.71169466093E+02 -0.14626902606E+03  0.21107430313E+03  0.12507425063E+03 0.  0.
          5    1    3    3  502    0 -0.66479136444E+02  0.68438937963E+02 -0.40336921672E+02  0.10367209587E+03  0.41800000000E+01 0.  1.
         -5    1    3    3    0  502  0.16991032975E+02  0.27305281303E+01 -0.10593210439E+03  0.10740220727E+03  0.41800000000E+01 0.  1.
        -11    1    1    2    0    0 -0.80293235099E+02 -0.32472498825E+02 -0.88916284353E+02  0.12412724280E+03  0.00000000000E+00 0.  1.
         11    1    1    2    0    0  0.12978133857E+03 -0.38696967268E+02 -0.70187802675E+02  0.15253517221E+03  0.00000000000E+00 0. -1.
</event>
<event>
 7    1  0.5109948E-006  0.7980642E+02  0.7561462E-02  0.1329602E+00
         -2   -1    0    0    0  501 -0.00000000000E+00  0.00000000000E+00  0.13757798263E+03  0.13757798263E+03  0.00000000000E+00 0. -1.
          2   -1    0    0  501    0  0.00000000000E+00 -0.00000000000E+00 -0.13417423684E+03  0.13417423684E+03  0.00000000000E+00 0.  1.
         23    2    1    2    0    0  0.10817355049E+02  0.23442961843E+02  0.78892854484E+02  0.15012687365E+03  0.12508960018E+03 0.  0.
          5    1    3    3  502    0 -0.27367668910E+02  0.13807800357E+02 -0.24464828900E+02  0.39441664587E+02  0.41800000000E+01 0. -1.
         -5    1    3    3    0  502  0.38185023960E+02  0.96351614861E+01  0.10335768338E+03  0.11068520907E+03  0.41800000000E+01 0. -1.
        -11    1    1    2    0    0  0.35992736803E+02  0.15147845238E+01 -0.10078924509E+02  0.37407972332E+02  0.00000000000E+00 0.  1.
         11    1    1    2    0    0 -0.46810091852E+02 -0.24957746367E+02 -0.65410184179E+02  0.84217373488E+02  0.00000000000E+00 0. -1.
</event>
<event>
 7    1  0.5109948E-006  0.1308143E+03  0.7561462E-02  0.1226252E+00
         -1   -1    0    0    0  501 -0.00000000000E+00  0.00000000000E+00  0.75397490230E+02  0.75397490230E+02  0.00000000000E+00 0.  1.
          1   -1    0    0  501    0  0.00000000000E+00 -0.00000000000E+00 -0.23914120049E+03  0.23914120049E+03  0.00000000000E+00 0. -1.
         23    2    1    2    0    0 -0.55314286690E+02 -0.49815040592E+02 -0.69146620773E+02  0.16115122403E+03  0.12508898137E+03 0.  0.
          5    1    3    3  502    0 -0.80726711926E+02  0.79048286993E+01 -0.28843390145E+02  0.86189917567E+02  0.41800000000E+01 0. -1.
         -5    1    3    3    0  502  0.25412425236E+02 -0.57719869291E+02 -0.40303230628E+02  0.74961306462E+02  0.41800000000E+01 0. -1.
        -11    1    1    2    0    0  0.73092101286E+02  0.61838404165E+02 -0.61007838832E+02  0.11352708883E+03  0.00000000000E+00 0.  1.
         11    1    1    2    0    0 -0.17777814596E+02 -0.12023363573E+02 -0.33589250654E+02  0.39860377857E+02  0.00000000000E+00 0. -1.
</event>
<event>
 6    1  0.5109948E-006  0.2155187E+03  0.7561462E-02  0.1137269E+00
         -4   -1    0    0    0  501 -0.00000000000E+00  0.00000000000E+00  0.60233807940E+03  0.60233807940E+03  0.00000000000E+00 0.  1.
          4   -1    0    0  501    0  0.00000000000E+00 -0.00000000000E+00 -0.10759708240E+03  0.10759708240E+03  0.00000000000E+00 0. -1.
          5    1    1    2  502    0 -0.90774401038E+02  0.54522417983E+02  0.21109763702E+03  0.23620408698E+03  0.41800000000E+01 0. -1.
         -5    1    1    2    0  502  0.88856713051E+01 -0.91636740980E+02  0.20443325971E+03  0.22424691197E+03  0.41800000000E+01 0.  1.
        -11    1    1    2    0    0  0.11485897369E+03 -0.60537634163E+02  0.65769417003E+02  0.14554382570E+03  0.00000000000E+00 0.  1.
         11    1    1    2    0    0 -0.32970243952E+02  0.97651957161E+02  0.13440683266E+02  0.10394033717E+03  0.00000000000E+00 0. -1.
</event>
<event>
 7    1  0.5109948E-006  0.1505080E+03  0.7561462E-02  0.1199850E+00
          2   -1    0    0  501    0  0.00000000000E+00  0.00000000000E+00  0.86615676648E+02  0.86615676648E+02  0.00000000000E+00 0.  1.
         -2   -1    0    0    0  501 -0.00000000000E+00 -0.00000000000E+00 -0.32982521510E+03  0.32982521510E+03  0.00000000000E+00 0. -1.
         23    2    1    2    0    0  0.12005666803E+03 -0.11870171013E+02 -0.17934313507E+03  0.24972963981E+03  0.12508568424E+03 0.  0.
          5    1    3    3  502    0 -0.44294949733E+01 -0.29808058368E+02 -0.91063342473E+02  0.96011173890E+02  0.41800000000E+01 0. -1.
         -5    1    3    3    0  502  0.12448616301E+03  0.17937887355E+02 -0.88279792594E+02  0.15371846592E+03  0.41800000000E+01 0. -1.
        -11    1    1    2    0    0 -0.90157063875E+01  0.30813688814E+02  0.80078740615E+01  0.33089158753E+02  0.00000000000E+00 0.  1.
         11    1    1    2    0    0 -0.11104096165E+03 -0.18943517800E+02 -0.71874277448E+02  0.13362209319E+03  0.00000000000E+00 0. -1.
</event>
<event>
 7    1  0.5109948E-006  0.1006421E+03  0.7561462E-02  0.1278951E+00
         -2   -1    0    0    0  501 -0.00000000000E+00  0.00000000000E+00  0.45506328113E+02  0.45506328113E+02  0.00000000000E+00 0.  1.
          2   -1    0    0  501    0  0.00000000000E+00 -0.00000000000E+00 -0.29412941250E+03  0.29412941250E+03  0.00000000000E+00 0. -1.
         23    2    1    2    0    0 -0.38885800285E+02 -0.81899286542E+01 -0.12461237525E+03  0.18098675509E+03  0.12509508806E+03 0.  0.
          5    1    3    3  502    0  0.16216018058E+02 -0.36790512468E+02 -0.10982949125E+03  0.11703200673E+03  0.41800000000E+01 0. -1.
         -5    1    3    3    0  502 -0.55101818343E+02  0.28600583814E+02 -0.14782883997E+02  0.63954748365E+02  0.41800000000E+01 0. -1.
        -11    1    1    2    0    0  0.47868978083E+02 -0.31919982229E+02 -0.78454305721E+02  0.97290299693E+02  0.00000000000E+00 0.  1.
         11    1    1    2    0    0 -0.89831777987E+01  0.40109910883E+02 -0.45556403416E+02  0.61358685829E+02  0.00000000000E+00 0. -1.
</event>
<event>
 7    1  0.5109948E-006  0.1513358E+03  0.7561462E-02  0.1198841E+00
         -1   -1    0    0    0  501 -0.00000000000E+00  0.00000000000E+00  0.10099347310E+03  0.10099347310E+03  0.00000000000E+00 0.  1.
          1   -1    0    0  501    0  0.00000000000E+00 -0.00000000000E+00 -0.49344149685E+03  0.49344149685E+03  0.00000000000E+00 0. -1.
         23    2    1    2    0    0  0.63838030006E+02 -0.88360948195E+02  0.11321323659E+02  0.16632554265E+03  0.12511219975E+03 0.  0.
          5    1    3    3  502    0 -0.19905124758E+02  0.16885437390E+02 -0.13198806314E+02  0.29546791291E+02  0.41800000000E+01 0. -1.
         -5    1    3    3    0  502  0.83743154764E+02 -0.10524638558E+03  0.24520129972E+02  0.13677875136E+03  0.41800000000E+01 0. -1.
        -11    1    1    2    0    0 -0.11279246236E+02 -0.19024047497E+02 -0.49676596015E+02  0.54377384734E+02  0.00000000000E+00 0. -1.
         11    1    1    2    0    0 -0.52558783770E+02  0.10738499569E+03 -0.35409275139E+03  0.37373204257E+03  0.00000000000E+00 0.  1.
</event>
<event>
 7    1  0.5109948E-006  0.1358338E+03  0.7561462E-02  0.1219047E+00
         -1   -1    0    0    0  501 -0.00000000000E+00  0.00000000000E+00  0.13773413608E+03  0.13773413608E+03  0.00000000000E+00 0.  1.
          1   -1    0    0  501    0  0.00000000000E+00 -0.00000000000E+00 -0.20653394762E+03  0.20653394762E+03  0.00000000000E+00 0. -1.
         23    2    1    2    0    0 -0.61911816779E+02  0.96545241085E+02  0.26172151445E+02  0.17171648837E+03  0.12509002452E+03 0.  0.
          5    1    3    3  502    0 -0.42279293201E+02  0.66667480727E+01  0.59815845931E+02  0.73670835396E+02  0.41800000000E+01 0.  1.
         -5    1    3    3    0  502 -0.19632523578E+02  0.89878493012E+02 -0.33643694487E+02  0.98045652973E+02  0.41800000000E+01 0.  1.
        -11    1    1    2    0    0 -0.18455304729E+01 -0.65730048523E+02 -0.73352799612E+02  0.98511311393E+02  0.00000000000E+00 0.  1.
         11    1    1    2    0    0  0.63757347252E+02 -0.30815192562E+02 -0.21619163374E+02  0.74040283942E+02  0.00000000000E+00 0. -1.
</event>
<event>
 6    1  0.5109948E-006  0.1508063E+03  0.7561462E-02  0.1199486E+00
          1   -1    0    0  501    0  0.00000000000E+00  0.00000000000E+00  0.87811267347E+03  0.87811267347E+03  0.00000000000E+00 0. -1.
         -1   -1    0    0    0  501 -0.00000000000E+00 -0.00000000000E+00 -0.45749767772E+02  0.45749767772E+02  0.00000000000E+00 0.  1.
          5    1    1    2  502    0 -0.46275890628E+02 -0.95812423919E+02  0.37855476596E+03  0.39324631195E+03  0.41800000000E+01 0. -1.
         -5    1    1    2    0  502 -0.25923413150E+02  0.68370971738E+02  0.14499682978E+02  0.74661411266E+02  0.41800000000E+01 0.  1.
        -11    1    1    2    0    0 -0.12383389959E+02 -0.21027108286E+02  0.98510657400E+02  0.10148811384E+03  0.00000000000E+00 0.  1.
         11    1    1    2    0    0  0.84582693736E+02  0.48468560466E+02  0.34079779936E+03  0.35446660419E+03  0.00000000000E+00 0. -1.
</event>
<event>
 7    1  0.5109948E-006  0.9049041E+02  0.7561462E-02  0.1301668E+00
          2   -1    0    0  501    0  0.00000000000E+00  0.00000000000E+00  0.23733205815E+03  0.23733205815E+03  0.00000000000E+00 0. -1.
         -2   -1    0    0    0  501 -0.00000000000E+00 -0.00000000000E+00 -0.61924638676E+02  0.61924638676E+02  0.00000000000E+00 0.  1.
         23    2    1    2    0    0 -0.25229207876E+02 -0.47567542859E+02  0.97681190795E+02  0.16759620285E+03  0.12509071953E+03 0.  0.
          5    1    3    3  502    0 -0.66272765766E+02 -0.52870467281E+02  0.33793547196E+02  0.91361053107E+02  0.41800000000E+01 0.  1.
         -5    1    3    3    0  502  0.41043557891E+02  0.53029244223E+01  0.63887643600E+02  0.76235149744E+02  0.41800000000E+01 0.  1.
        -11    1    1    2    0    0  0.14676206978E+02  0.35835211079E+02 -0.12012834336E+02  0.40544563053E+02  0.00000000000E+00 0.  1.
         11    1    1    2    0    0  0.10553000898E+02  0.11732331779E+02  0.89739063014E+02  0.91115930921E+02  0.00000000000E+00 0. -1.
</event>
<event>
 7    1  0.5109948E-006  0.1045959E+03  0.7561462E-02  0.1270918E+00
         -3   -1    0    0    0  501 -0.00000000000E+00  0.00000000000E+00  0.35546002405E+03  0.35546002405E+03  0.00000000000E+00 0.  1.
          3   -1    0    0  501    0  0.00000000000E+00 -0.00000000000E+00 -0.58298940458E+02  0.58298940458E+02  0.00000000000E+00 0. -1.
         23    2    1    2    0    0  0.74873313532E+02  0.51477997396E+02  0.19575075057E+03  0.24944375971E+03  0.12509130910E+03 0.  0.
          5    1    3    3  502    0  0.14173788048E+02  0.55421755333E+02  0.15873276920E+02  0.59513868569E+02  0.41800000000E+01 0.  1.
         -5    1    3    3    0  502  0.60699525484E+02 -0.39437579377E+01  0.17987747365E+03  0.18992989114E+03  0.41800000000E+01 0.  1.
        -11    1    1    2    0    0 -0.63155810461E+02 -0.43312613276E+02  0.11908995993E+03  0.14158763159E+03  0.00000000000E+00 0.  1.
         11    1    1    2    0    0 -0.11717503070E+02 -0.81653841196E+01 -0.17679626912E+02  0.22727573205E+02  0.00000000000E+00 0. -1.
</event>
<event>
 7    1  0.5109948E-006  0.7099488E+02  0.7561462E-02  0.1356742E+00
         -1   -1    0    0    0  501 -0.00000000000E+00  0.00000000000E+00  0.94884670963E+03  0.94884670963E+03  0.00000000000E+00 0.  1.
          1   -1    0    0  501    0  0.00000000000E+00 -0.00000000000E+00 -0.13490244319E+02  0.13490244319E+02  0.00000000000E+00 0. -1.
         23    2    1    2    0    0 -0.26389275268E+02 -0.53755074842E+01  0.63403777828E+03  0.64681894923E+03  0.12508220846E+03 0.  0.
          5    1    3    3  502    0 -0.24270547906E+01 -0.19655935952E+02  0.10798648528E+02  0.22941874883E+02  0.41800000000E+01 0. -1.
         -5    1    3    3    0  502 -0.23962220477E+02  0.14280428468E+02  0.62323912975E+03  0.62387707435E+03  0.41800000000E+01 0. -1.
        -11    1    1    2    0    0  0.38669902425E+02 -0.34497165339E+02  0.16201022339E+03  0.17009623233E+03  0.00000000000E+00 0. -1.
         11    1    1    2    0    0 -0.12280627157E+02  0.39872672823E+02  0.13930846364E+03  0.14542177238E+03  0.00000000000E+00 0.  1.
</event>
<event>
 7    1  0.5109948E-006  0.9492036E+02  0.7561462E-02  0.1291356E+00
         -1   -1    0    0    0  501 -0.00000000000E+00  0.00000000000E+00  0.52368802666E+02  0.52368802666E+02  0.00000000000E+00 0.  1.
          1   -1    0    0  501    0  0.00000000000E+00 -0.00000000000E+00 -0.50308340059E+03  0.50308340059E+03  0.00000000000E+00 0. -1.
         23    2    1    2    0    0  0.26634340053E+02 -0.31713684444E+02 -0.68030289099E+02  0.14829398211E+03  0.12509132282E+03 0.  0.
          5    1    3    3  502    0 -0.10205373545E+02 -0.49208294901E+02  0.17554432449E+02  0.53396970278E+02  0.41800000000E+01 0. -1.
         -5    1    3    3    0  502  0.36839713598E+02  0.17494610457E+02 -0.85584721547E+02  0.94897011836E+02  0.41800000000E+01 0. -1.
        -11    1    1    2    0    0  0.31481906969E+02 -0.14266031133E+01 -0.17804597981E+02  0.36195985580E+02  0.00000000000E+00 0.  1.
         11    1    1    2    0    0 -0.58116247022E+02  0.33140287557E+02 -0.36487971085E+03  0.37096223556E+03  0.00000000000E+00 0. -1.
</event>
<event>
 7    1  0.5109948E-006  0.3899862E+03  0.7561462E-02  0.1047303E+00
          2   -1    0    0  501    0  0.00000000000E+00  0.00000000000E+00  0.11039013017E+04  0.11039013017E+04  0.00000000000E+00 0. -1.
         -2   -1    0    0    0  501 -0.00000000000E+00 -0.00000000000E+00 -0.18627732098E+03  0.18627732098E+03  0.00000000000E+00 0.  1.
         23    2    1    2    0    0 -0.37469755874E+03 -0.81297245205E+01  0.13565594790E+03  0.41775018758E+03  0.12509328549E+03 0.  0.
          5    1    3    3  502    0 -0.20991297859E+03 -0.65143693323E+02  0.89314543576E+02  0.23727983364E+03  0.41800000000E+01 0. -1.
         -5    1    3    3    0  502 -0.16478458015E+03  0.57013968802E+02  0.46341404325E+02  0.18047035393E+03  0.41800000000E+01 0. -1.
        -11    1    1    2    0    0  0.22392566780E+03 -0.39972668312E+02  0.49351839975E+03  0.54341598229E+03  0.00000000000E+00 0. -1.
         11    1    1    2    0    0  0.15077189094E+03  0.48102392833E+02  0.28844963305E+03  0.32901245280E+03  0.00000000000E+00 0.  1.
</event>
<event>
 7    1  0.5109948E-006  0.1148432E+03  0.7561462E-02  0.1251855E+00
         -3   -1    0    0    0  501 -0.00000000000E+00  0.00000000000E+00  0.32590687663E+03  0.32590687663E+03  0.00000000000E+00 0.  1.
          3   -1    0    0  501    0  0.00000000000E+00 -0.00000000000E+00 -0.61618288039E+02  0.61618288039E+02  0.00000000000E+00 0. -1.
         23    2    1    2    0    0  0.84990671047E+02 -0.24399540441E+02  0.12198832686E+03  0.19582258442E+03  0.12508629397E+03 0.  0.
          5    1    3    3  502    0  0.10722864556E+02  0.13904541042E+02 -0.22507696450E+02  0.28851081182E+02  0.41800000000E+01 0.  1.
         -5    1    3    3    0  502  0.74267806491E+02 -0.38304081483E+02  0.14449602331E+03  0.16697150323E+03  0.41800000000E+01 0.  1.
        -11    1    1    2    0    0 -0.98519266949E+02  0.40864816862E+02  0.12446936700E+03  0.16391644988E+03  0.00000000000E+00 0.  1.
         11    1    1    2    0    0  0.13528595902E+02 -0.16465276421E+02  0.17830894726E+02  0.27786130379E+02  0.00000000000E+00 0. -1.
</event>
<event>
 7    1  0.5109948E-006  0.1423762E+03  0.7561462E-02  0.1210167E+00
          1   -1    0    0  501    0  0.00000000000E+00  0.00000000000E+00  0.27386709097E+03  0.27386709097E+03  0.00000000000E+00 0. -1.
         -1   -1    0    0    0  501 -0.00000000000E+00 -0.00000000000E+00 -0.79132632925E+02  0.79132632925E+02  0.00000000000E+00 0.  1.
         23    2    1    2    0    0  0.96282103440E+02 -0.18621406436E+02  0.87178269670E+02  0.18128930005E+03  0.12509500145E+03 0.  0.
          5    1    3    3  502    0  0.30634574618E+02 -0.69205992986E+02  0.37405581515E+02  0.84525715352E+02  0.41800000000E+01 0. -1.
         -5    1    3    3    0  502  0.65647528821E+02  0.50584586551E+02  0.49772688155E+02  0.96763584695E+02  0.41800000000E+01 0. -1.
        -11    1    1    2    0    0 -0.52714532879E+02  0.49705346040E+02  0.89666204887E+02  0.11527997094E+03  0.00000000000E+00 0. -1.
         11    1    1    2    0    0 -0.43567570561E+02 -0.31083939604E+02  0.17889983487E+02  0.56430452905E+02  0.00000000000E+00 0.  1.
</event>
<event>
 7    1  0.5109948E-006  0.1589263E+03  0.7561462E-02  0.1189914E+00
          1   -1    0    0  501    0  0.00000000000E+00  0.00000000000E+00  0.19581770807E+03  0.19581770807E+03  0.00000000000E+00 0. -1.
         -1   -1    0    0    0  501 -0.00000000000E+00 -0.00000000000E+00 -0.16823224212E+03  0.16823224212E+03  0.00000000000E+00 0.  1.
         23    2    1    2    0    0 -0.90037394811E+02 -0.84694739952E+02 -0.59414330905E+02  0.18562836345E+03  0.12509154712E+03 0.  0.
          5    1    3    3  502    0 -0.10882353316E+03 -0.44708228578E+02 -0.84138995226E+01  0.11802395171E+03  0.41800000000E+01 0. -1.
         -5    1    3    3    0  502  0.18786138349E+02 -0.39986511375E+02 -0.51000431383E+02  0.67604411744E+02  0.41800000000E+01 0. -1.
        -11    1    1    2    0    0  0.68428444998E+02  0.87086923491E-01  0.39684350336E+02  0.79103143620E+02  0.00000000000E+00 0.  1.
         11    1    1    2    0    0  0.21608949813E+02  0.84607653029E+02  0.47315446519E+02  0.99318443113E+02  0.00000000000E+00 0. -1.
</event>
<event>
 7    1  0.5109948E-006  0.1058513E+03  0.7561462E-02  0.1268451E+00
         -4   -1    0    0    0  501 -0.00000000000E+00  0.00000000000E+00  0.16006734781E+03  0.16006734781E+03  0.00000000000E+00 0.  1.
          4   -1    0    0  501    0  0.00000000000E+00 -0.00000000000E+00 -0.82988685889E+02  0.82988685889E+02  0.00000000000E+00 0. -1.
         23    2    1    2    0    0 -0.37486808656E+02 -0.47140375381E+01  0.35575269904E+02  0.13542819357E+03  0.12509081826E+03 0.  0.
          5    1    3    3  502    0 -0.74323690763E+02 -0.13185027702E+02 -0.97910245679E+01  0.76231178177E+02  0.41800000000E+01 0.  1.
         -5    1    3    3    0  502  0.36836882107E+02  0.84709901636E+01  0.45366294472E+02  0.59197015396E+02  0.41800000000E+01 0.  1.
        -11    1    1    2    0    0  0.66463398234E+02 -0.69754231146E+01  0.20213542260E+02  0.69818529941E+02  0.00000000000E+00 0. -1.
         11    1    1    2    0    0 -0.28976589578E+02  0.11689460653E+02  0.21289849759E+02  0.37809310185E+02  0.00000000000E+00 0.  1.
</event>
<event>
 7    1  0.5109948E-006  0.1504491E+03  0.7561462E-02  0.1199922E+00
         -1   -1    0    0    0  501 -0.00000000000E+00  0.00000000000E+00  0.66297615852E+02  0.66297615852E+02  0.00000000000E+00 0.  1.
          1   -1    0    0  501    0  0.00000000000E+00 -0.00000000000E+00 -0.36293102382E+03  0.36293102382E+03  0.00000000000E+00 0. -1.
         23    2    1    2    0    0 -0.69704364442E+01  0.10833974107E+03 -0.12539106052E+03  0.20774389054E+03  0.12509404271E+03 0.  0.
          5    1    3    3  502    0  0.44075197975E+02  0.10285784835E+03 -0.69782175625E+02  0.13194462656E+03  0.41800000000E+01 0. -1.
         -5    1    3    3    0  502 -0.51045634419E+02  0.54818927174E+01 -0.55608884892E+02  0.75799263980E+02  0.41800000000E+01 0. -1.
        -11    1    1    2    0    0 -0.37817679535E+02 -0.64287474302E+02 -0.69722260572E+02  0.10209921575E+03  0.00000000000E+00 0. -1.
         11    1    1    2    0    0  0.44788115979E+02 -0.44052266766E+02 -0.10152008688E+03  0.11938553338E+03  0.00000000000E+00 0.  1.
</event>
<event>
 7    1  0.5109948E-006  0.1534843E+03  0.7561462E-02  0.1196256E+00
          1   -1    0    0  501    0  0.00000000000E+00  0.00000000000E+00  0.42060137961E+02  0.42060137961E+02  0.00000000000E+00 0. -1.
         -1   -1    0    0    0  501 -0.00000000000E+00 -0.00000000000E+00 -0.98029663381E+03  0.98029663381E+03  0.00000000000E+00 0.  1.
         23    2    1    2    0    0  0.25050232892E+02  0.11978962803E+03 -0.79312601045E+03  0.81220309437E+03  0.12509168196E+03 0.  0.
          5    1    3    3  502    0  0.66008156086E+02  0.69725909832E+02 -0.30475625866E+03  0.31955066698E+03  0.41800000000E+01 0.  1.
         -5    1    3    3    0  502 -0.40957923194E+02  0.50063718200E+02 -0.48836975179E+03  0.49265242739E+03  0.41800000000E+01 0.  1.
        -11    1    1    2    0    0 -0.75035789142E+01 -0.12689333202E+03 -0.14264300548E+03  0.19106346700E+03  0.00000000000E+00 0.  1.
         11    1    1    2    0    0 -0.17546653978E+02  0.71037039919E+01 -0.24674799204E+01  0.19090210407E+02  0.00000000000E+00 0. -1.
</event>
<event>
 7    1  0.5109948E-006  0.1772742E+03  0.7561462E-02  0.1170467E+00
         -2   -1    0    0    0  501 -0.00000000000E+00  0.00000000000E+00  0.29019213460E+02  0.29019213460E+02  0.00000000000E+00 0.  1.
          2   -1    0    0  501    0  0.00000000000E+00 -0.00000000000E+00 -0.14716588151E+04  0.14716588151E+04  0.00000000000E+00 0. -1.
         23    2    1    2    0    0  0.10518599666E+03  0.13956372667E+03 -0.81494865007E+03  0.84281121474E+03  0.12508922315E+03 0.  0.
          5    1    3    3  502    0  0.10014572670E+02  0.13284878728E+02 -0.37322754268E+03  0.37362153402E+03  0.41800000000E+01 0. -1.
         -5    1    3    3    0  502  0.95171423987E+02  0.12627884794E+03 -0.44172110739E+03  0.46918968072E+03  0.41800000000E+01 0. -1.
        -11    1    1    2    0    0 -0.89906809976E+02 -0.13677959174E+03 -0.61856100847E+03  0.63985124239E+03  0.00000000000E+00 0. -1.
         11    1    1    2    0    0 -0.15279186682E+02 -0.27841349284E+01 -0.91299431168E+01  0.18015571439E+02  0.00000000000E+00 0.  1.
</event>
<event>
 7    1  0.5109948E-006  0.8721074E+02  0.7561462E-02  0.1309750E+00
         -1   -1    0    0    0  501 -0.00000000000E+00  0.00000000000E+00  0.32302637750E+02  0.32302637750E+02  0.00000000000E+00 0.  1.
          1   -1    0    0  501    0  0.00000000000E+00 -0.00000000000E+00 -0.38956144641E+03  0.38956144641E+03  0.00000000000E+00 0. -1.
         23    2    1    2    0    0 -0.14621603652E+02 -0.18862390335E+02 -0.14099109779E+03  0.18526348995E+03  0.11779002500E+03 0.  0.
          5    1    3    3  502    0 -0.29736385848E+02  0.28917494682E+02 -0.71635876589E+01  0.42299687116E+02  0.41800000000E+01 0. -1.
         -5    1    3    3    0  502  0.15114782197E+02 -0.47779885017E+02 -0.13382751013E+03  0.14296380284E+03  0.41800000000E+01 0.  1.
        -11    1    1    2    0    0  0.31422694141E+02 -0.21936529684E+02 -0.42095657108E+02  0.56926631632E+02  0.00000000000E+00 0.  1.
         11    1    1    2    0    0 -0.16801090489E+02  0.40798920019E+02 -0.17417205376E+03  0.17967396257E+03  0.00000000000E+00 0. -1.
</event>
<event>
 7    1  0.5109948E-006  0.1952761E+03  0.7561462E-02  0.1153787E+00
         -1   -1    0    0    0  501 -0.00000000000E+00  0.00000000000E+00  0.50764593197E+02  0.50764593197E+02  0.00000000000E+00 0.  1.
          1   -1    0    0  501    0  0.00000000000E+00 -0.00000000000E+00 -0.80940274083E+03  0.80940274083E+03  0.00000000000E+00 0. -1.
         23    2    1    2    0    0  0.12758858168E+03  0.11204608151E+03 -0.34735840842E+03  0.40637144722E+03  0.12508684446E+03 0.  0.
          5    1    3    3  502    0  0.10239352084E+03  0.12818909363E+02 -0.12964813013E+03  0.16575544514E+03  0.41800000000E+01 0. -1.
         -5    1    3    3    0  502  0.25195060837E+02  0.99227172142E+02 -0.21771027829E+03  0.24061600207E+03  0.41800000000E+01 0. -1.
        -11    1    1    2    0    0 -0.48919500875E+02 -0.91099952556E+02 -0.28856748531E+03  0.30653468401E+03  0.00000000000E+00 0.  1.
         11    1    1    2    0    0 -0.78669080806E+02 -0.20946128950E+02 -0.12271225391E+03  0.14726120281E+03  0.00000000000E+00 0. -1.
</event>
<event>
 7    1  0.5109948E-006  0.1876929E+03  0.7561462E-02  0.1160559E+00
          1   -1    0    0  501    0  0.00000000000E+00  0.00000000000E+00  0.62256983178E+03  0.62256983178E+03  0.00000000000E+00 0. -1.
         -1   -1    0    0    0  501 -0.00000000000E+00 -0.00000000000E+00 -0.63534507600E+02  0.63534507600E+02  0.00000000000E+00 0.  1.
         23    2    1    2    0    0 -0.15213358060E+03  0.63321424406E+02  0.25262388006E+03  0.32652629860E+03  0.12508544985E+03 0.  0.
          5    1    3    3  502    0 -0.17224940189E+03  0.54825337876E+02  0.24143821223E+03  0.30163812234E+03  0.41800000000E+01 0.  1.
         -5    1    3    3    0  502  0.20115821289E+02  0.84960865306E+01  0.11185667828E+02  0.24888176254E+02  0.41800000000E+01 0.  1.
        -11    1    1    2    0    0  0.14357350392E+03 -0.71595979244E+02  0.30827850565E+03  0.34752693754E+03  0.00000000000E+00 0. -1.
         11    1    1    2    0    0  0.85600766827E+01  0.82745548375E+01 -0.18670615280E+01  0.12051103241E+02  0.00000000000E+00 0.  1.
</event>
<event>
 7    1  0.5109948E-006  0.8469336E+02  0.7561462E-02  0.1316236E+00
         -2   -1    0    0    0  501 -0.00000000000E+00  0.00000000000E+00  0.50160951320E+02  0.50160951320E+02  0.00000000000E+00 0.  1.
          2   -1    0    0  501    0  0.00000000000E+00 -0.00000000000E+00 -0.29259870596E+03  0.29259870596E+03  0.00000000000E+00 0. -1.
         23    2    1    2    0    0  0.13393528975E+02 -0.36531933124E+01 -0.70160422031E+02  0.14409111206E+03  0.12508809422E+03 0.  0.
          5    1    3    3  502    0  0.25407835189E+02  0.28211237587E+02 -0.94564806933E+02  0.10198728904E+03  0.41800000000E+01 0.  1.
         -5    1    3    3    0  502 -0.12014306214E+02 -0.31864430899E+02  0.24404384902E+02  0.42103823019E+02  0.41800000000E+01 0.  1.
        -11    1    1    2    0    0  0.16388405892E+02 -0.40461686226E+02 -0.57901598357E+02  0.72514295089E+02  0.00000000000E+00 0.  1.
         11    1    1    2    0    0 -0.29781934867E+02  0.44114879539E+02 -0.11437573425E+03  0.12615425013E+03  0.00000000000E+00 0. -1.
</event>
<event>
 7    1  0.5109948E-006  0.1072778E+03  0.7561462E-02  0.1265696E+00
         -2   -1    0    0    0  501 -0.00000000000E+00  0.00000000000E+00  0.11482564495E+04  0.11482564495E+04  0.00000000000E+00 0.  1.
          2   -1    0    0  501    0  0.00000000000E+00 -0.00000000000E+00 -0.27250719011E+02  0.27250719011E+02  0.00000000000E+00 0. -1.
         23    2    1    2    0    0 -0.40307993557E+02 -0.25387706686E+02  0.10292938282E+04  0.10379603403E+04  0.12508642340E+03 0.  0.
          5    1    3    3  502    0  0.42270453120E+02  0.20850409201E+00  0.22097994981E+03  0.22502543256E+03  0.41800000000E+01 0.  1.
         -5    1    3    3    0  502 -0.82578446677E+02 -0.25596210778E+02  0.80831387838E+03  0.81293490776E+03  0.41800000000E+01 0.  1.
        -11    1    1    2    0    0 -0.94933468776E+01 -0.17428653296E+02  0.62666733943E+02  0.65734322341E+02  0.00000000000E+00 0.  1.
         11    1    1    2    0    0  0.49801340435E+02  0.42816359982E+02  0.29045168341E+02  0.71812505841E+02  0.00000000000E+00 0. -1.
</event>
<event>
 7    1  0.5109948E-006  0.1365841E+03  0.7561462E-02  0.1218001E+00
         -2   -1    0    0    0  501 -0.00000000000E+00  0.00000000000E+00  0.76468656089E+02  0.76468656089E+02  0.00000000000E+00 0.  1.
          2   -1    0    0  501    0  0.00000000000E+00 -0.00000000000E+00 -0.58323420470E+03  0.58323420470E+03  0.00000000000E+00 0. -1.
         23    2    1    2    0    0 -0.65465458390E+02 -0.10208081272E+03 -0.55781596999E+02  0.18293350874E+03  0.12508742338E+03 0.  0.
          5    1    3    3  502    0 -0.33404792982E+02 -0.25346411840E+02  0.38546712105E+02  0.57110788836E+02  0.41800000000E+01 0. -1.
         -5    1    3    3    0  502 -0.32060665409E+02 -0.76734400883E+02 -0.94328309104E+02  0.12582271990E+03  0.41800000000E+01 0. -1.
        -11    1    1    2    0    0  0.65617389320E+02  0.24289402107E+02 -0.14423579311E+03  0.16031088812E+03  0.00000000000E+00 0.  1.
         11    1    1    2    0    0 -0.15193092996E+00  0.77791410616E+02 -0.30674815850E+03  0.31645846393E+03  0.00000000000E+00 0. -1.
</event>
<event>
 7    1  0.5109948E-006  0.2163604E+03  0.7561462E-02  0.1136626E+00
          2   -1    0    0  501    0  0.00000000000E+00  0.00000000000E+00  0.72022167765E+03  0.72022167765E+03  0.00000000000E+00 0. -1.
         -2   -1    0    0    0  501 -0.00000000000E+00 -0.00000000000E+00 -0.10589556799E+03  0.10589556799E+03  0.00000000000E+00 0.  1.
         23    2    1    2    0    0 -0.68192182902E+02  0.18894457964E+03  0.79912147805E+02  0.24976399281E+03  0.12508346314E+03 0.  0.
          5    1    3    3  502    0  0.17526369264E+02  0.54712751064E+02 -0.20841556442E+02  0.61257665834E+02  0.41800000000E+01 0. -1.
         -5    1    3    3    0  502 -0.85718552166E+02  0.13423182858E+03  0.10075370425E+03  0.18850632697E+03  0.41800000000E+01 0. -1.
        -11    1    1    2    0    0  0.75202298898E+02 -0.93023196647E+02  0.29078314026E+03  0.31442572340E+03  0.00000000000E+00 0.  1.
         11    1    1    2    0    0 -0.70101159966E+01 -0.95921382997E+02  0.24363082159E+03  0.26192752943E+03  0.00000000000E+00 0. -1.
</event>
<event>
 7    1  0.5109948E-006  0.6740042E+02  0.7561462E-02  0.1369163E+00
         -2   -1    0    0    0  501 -0.00000000000E+00  0.00000000000E+00  0.59414226437E+02  0.59414226437E+02  0.00000000000E+00 0. -1.
          2   -1    0    0  501    0  0.00000000000E+00 -0.00000000000E+00 -0.21474208038E+03  0.21474208038E+03  0.00000000000E+00 0.  1.
         23    2    1    2    0    0  0.43643312636E+01 -0.18148084808E+02 -0.57484744910E+02  0.13892298196E+03  0.12508676448E+03 0.  0.
          5    1    3    3  502    0 -0.33427763156E+02  0.91908364824E+01  0.25771405761E+02  0.43399591930E+02  0.41800000000E+01 0.  1.
         -5    1    3    3    0  502  0.37792094419E+02 -0.27338921290E+02 -0.83256150671E+02  0.95523390028E+02  0.41800000000E+01 0.  1.
        -11    1    1    2    0    0  0.13305944582E+02 -0.12122437712E+02  0.10857693782E+02  0.21021207662E+02  0.00000000000E+00 0.  1.
         11    1    1    2    0    0 -0.17670275846E+02  0.30270522520E+02 -0.10870080281E+03  0.11421211720E+03  0.00000000000E+00 0. -1.
</event>
<event>
 7    1  0.5109948E-006  0.1128729E+03  0.7561462E-02  0.1255340E+00
         -1   -1    0    0    0  501 -0.00000000000E+00  0.00000000000E+00  0.34337822603E+02  0.34337822603E+02  0.00000000000E+00 0.  1.
          1   -1    0    0  501    0  0.00000000000E+00 -0.00000000000E+00 -0.49544324951E+03  0.49544324951E+03  0.00000000000E+00 0. -1.
         23    2    1    2    0    0  0.16262890390E+02  0.46352415374E+02 -0.14057396348E+03  0.19536329186E+03  0.12646243940E+03 0.  0.
          5    1    3    3  502    0 -0.15598092939E+01 -0.41132128793E+02 -0.70686233517E+02  0.81904218652E+02  0.41800000000E+01 0. -1.
         -5    1    3    3    0  502  0.17822699684E+02  0.87484544167E+02 -0.69887729967E+02  0.11345907320E+03  0.41800000000E+01 0.  1.
        -11    1    1    2    0    0  0.23641453746E+02 -0.49610836312E+02 -0.19984575275E+03  0.20726427166E+03  0.00000000000E+00 0. -1.
         11    1    1    2    0    0 -0.39904344136E+02  0.32584209378E+01 -0.12068571067E+03  0.12715350860E+03  0.00000000000E+00 0.  1.
</event>
<event>
 7    1  0.5109948E-006  0.1566185E+03  0.7561462E-02  0.1192568E+00
         -2   -1    0    0    0  501 -0.00000000000E+00  0.00000000000E+00  0.66051209284E+02  0.66051209284E+02  0.00000000000E+00 0.  1.
          2   -1    0    0  501    0  0.00000000000E+00 -0.00000000000E+00 -0.52946468547E+03  0.52946468547E+03  0.00000000000E+00 0. -1.
         23    2    1    2    0    0  0.54607905916E+02 -0.12097655177E+03 -0.12746304761E+03  0.22250955115E+03  0.12508526044E+03 0.  0.
          5    1    3    3  502    0 -0.10414043856E+02 -0.10890193013E+03 -0.49384293184E+02  0.12010147172E+03  0.41800000000E+01 0. -1.
         -5    1    3    3    0  502  0.65021949772E+02 -0.12074621642E+02 -0.78078754424E+02  0.10240807943E+03  0.41800000000E+01 0. -1.
        -11    1    1    2    0    0 -0.28188604918E+01  0.47585645031E+02 -0.35553843755E+02  0.59467767684E+02  0.00000000000E+00 0.  1.
         11    1    1    2    0    0 -0.51789045424E+02  0.73390906742E+02 -0.30039658482E+03  0.31353857592E+03  0.00000000000E+00 0. -1.
</event>
<event>
 7    1  0.5109948E-006  0.1690292E+03  0.7561462E-02  0.1178864E+00
          2   -1    0    0  501    0  0.00000000000E+00  0.00000000000E+00  0.39998817564E+02  0.39998817564E+02  0.00000000000E+00 0. -1.
         -2   -1    0    0    0  501 -0.00000000000E+00 -0.00000000000E+00 -0.77088160656E+03  0.77088160656E+03  0.00000000000E+00 0.  1.
         23    2    1    2    0    0 -0.12340693593E+03  0.56991464327E+02 -0.29652629642E+03  0.34935657844E+03  0.12507947710E+03 0.  0.
          5    1    3    3  502    0 -0.64067008906E+02  0.94118396572E+02 -0.19772278644E+03  0.22819865662E+03  0.41800000000E+01 0. -1.
         -5    1    3    3    0  502 -0.59339927028E+02 -0.37126932245E+02 -0.98803509977E+02  0.12115792183E+03  0.41800000000E+01 0. -1.
        -11    1    1    2    0    0  0.55704189263E+02 -0.65257966458E+02 -0.27798541742E+03  0.29092516424E+03  0.00000000000E+00 0.  1.
         11    1    1    2    0    0  0.67702746672E+02  0.82665021311E+01 -0.15637107515E+03  0.17059868144E+03  0.00000000000E+00 0. -1.
</event>
<event>
 7    1  0.5109948E-006  0.8992107E+02  0.7561462E-02  0.1303043E+00
         -2   -1    0    0    0  501 -0.00000000000E+00  0.00000000000E+00  0.47229990257E+02  0.47229990257E+02  0.00000000000E+00 0.  1.
          2   -1    0    0  501    0  0.00000000000E+00 -0.00000000000E+00 -0.54734210754E+03  0.54734210754E+03  0.00000000000E+00 0. -1.
         23    2    1    2    0    0  0.18770210506E+02  0.47723359213E+02 -0.70980965042E+02  0.15269751453E+03  0.12509353992E+03 0.  0.
          5    1    3    3  502    0  0.38400819201E+02  0.46688959744E+02 -0.10028086281E+03  0.11716742603E+03  0.41800000000E+01 0.  1.
         -5    1    3    3    0  502 -0.19630608694E+02  0.10343994693E+01  0.29299897766E+02  0.35530088503E+02  0.41800000000E+01 0.  1.
        -11    1    1    2    0    0 -0.10477987598E+02 -0.72379995561E+02 -0.37170098604E+03  0.37882750033E+03  0.00000000000E+00 0.  1.
         11    1    1    2    0    0 -0.82922229087E+01  0.24656636348E+02 -0.57430166199E+02  0.63047082933E+02  0.00000000000E+00 0. -1.
</event>
<event>
 7    1  0.5109948E-006  0.1104990E+03  0.7561462E-02  0.1259649E+00
          1   -1    0    0  501    0  0.00000000000E+00  0.00000000000E+00  0.64757605525E+02  0.64757605525E+02  0.00000000000E+00 0. -1.
         -1   -1    0    0    0  501 -0.00000000000E+00 -0.00000000000E+00 -0.24634834510E+03  0.24634834510E+03  0.00000000000E+00 0.  1.
         23    2    1    2    0    0 -0.43878514861E+01  0.65917040440E+02 -0.11598206933E+03  0.18293079667E+03  0.12509007356E+03 0.  0.
          5    1    3    3  502    0  0.37184946195E+02 -0.22183287440E+02 -0.42710593071E+02  0.60962985702E+02  0.41800000000E+01 0. -1.
         -5    1    3    3    0  502 -0.41572797681E+02  0.88100327881E+02 -0.73271476256E+02  0.12196781097E+03  0.41800000000E+01 0. -1.
        -11    1    1    2    0    0 -0.17451996615E+02 -0.10358909393E+02 -0.65401705358E+02  0.68478188158E+02  0.00000000000E+00 0.  1.
         11    1    1    2    0    0  0.21839848101E+02 -0.55558131048E+02 -0.20696488655E+00  0.59696965794E+02  0.00000000000E+00 0. -1.
</event>
<event>
 7    1  0.5109948E-006  0.2521400E+03  0.7561462E-02  0.1111960E+00
         -1   -1    0    0    0  501 -0.00000000000E+00  0.00000000000E+00  0.79524893288E+02  0.79524893288E+02  0.00000000000E+00 0.  1.
          1   -1    0    0  501    0  0.00000000000E+00 -0.00000000000E+00 -0.95279858227E+03  0.95279858227E+03  0.00000000000E+00 0. -1.
         23    2    1    2    0    0 -0.23730437314E+03  0.15718399203E+02 -0.28577896366E+03  0.39227366855E+03  0.12509428996E+03 0.  0.
          5    1    3    3  502    0 -0.18446488284E+03  0.44734732636E+02 -0.14442917470E+03  0.23854925741E+03  0.41800000000E+01 0. -1.
         -5    1    3    3    0  502 -0.52839490299E+02 -0.29016333433E+02 -0.14134978896E+03  0.15372441114E+03  0.41800000000E+01 0. -1.
        -11    1    1    2    0    0  0.12449707244E+03  0.36429714326E+02 -0.29950314488E+03  0.32638746748E+03  0.00000000000E+00 0.  1.
         11    1    1    2    0    0  0.11280730070E+03 -0.52148113529E+02 -0.28799158044E+03  0.31366233953E+03  0.00000000000E+00 0. -1.
</event>
<event>
 7    1  0.5109948E-006  0.7637768E+02  0.7561462E-02  0.1339657E+00
          1   -1    0    0  501    0  0.00000000000E+00  0.00000000000E+00  0.18347565376E+03  0.18347565376E+03  0.00000000000E+00 0. -1.
         -1   -1    0    0    0  501 -0.00000000000E+00 -0.00000000000E+00 -0.11499143157E+03  0.11499143157E+03  0.00000000000E+00 0.  1.
         23    2    1    2    0    0 -0.21677207630E+02  0.12229731753E+02 -0.59595706779E+02  0.14077759882E+03  0.12508883401E+03 0.  0.
          5    1    3    3  502    0  0.63473212831E+01  0.58051994208E+02 -0.63979198074E+02  0.86724464283E+02  0.41800000000E+01 0. -1.
         -5    1    3    3    0  502 -0.28024528913E+02 -0.45822262455E+02  0.43834912951E+01  0.54053134536E+02  0.41800000000E+01 0. -1.
        -11    1    1    2    0    0  0.20599142822E+02 -0.22211447845E+02  0.13934500042E+03  0.14259979748E+03  0.00000000000E+00 0. -1.
         11    1    1    2    0    0  0.10780648075E+01  0.99817160917E+01 -0.11265071455E+02  0.15089689021E+02  0.00000000000E+00 0.  1.
</event>
<event>
 7    1  0.5109948E-006  0.9458656E+02  0.7561462E-02  0.1292110E+00
          1   -1    0    0  501    0  0.00000000000E+00  0.00000000000E+00  0.12372385172E+03  0.12372385172E+03  0.00000000000E+00 0. -1.
         -1   -1    0    0    0  501 -0.00000000000E+00 -0.00000000000E+00 -0.13290648170E+03  0.13290648170E+03  0.00000000000E+00 0.  1.
         23    2    1    2    0    0  0.37166459177E+02 -0.21806956673E+01 -0.64481539145E+02  0.14557574829E+03  0.12509327911E+03 0.  0.
          5    1    3    3  502    0  0.27758838363E+02  0.53084052501E+02 -0.25580994263E-01  0.60049502842E+02  0.41800000000E+01 0. -1.
         -5    1    3    3    0  502  0.94076208136E+01 -0.55264748169E+02 -0.64455958151E+02  0.85526245450E+02  0.41800000000E+01 0. -1.
        -11    1    1    2    0    0  0.10960304519E+02 -0.17714754252E+02 -0.13459133755E+02  0.24800989392E+02  0.00000000000E+00 0.  1.
         11    1    1    2    0    0 -0.48126763696E+02  0.19895449919E+02  0.68758042916E+02  0.86253595734E+02  0.00000000000E+00 0. -1.
</event>
<event>
 7    1  0.5109948E-006  0.1220013E+03  0.7561462E-02  0.1239832E+00
         -2   -1    0    0    0  501 -0.00000000000E+00  0.00000000000E+00  0.63669746695E+02  0.63669746695E+02  0.00000000000E+00 0.  1.
          2   -1    0    0  501    0  0.00000000000E+00 -0.00000000000E+00 -0.39411383743E+03  0.39411383743E+03  0.00000000000E+00 0. -1.
         23    2    1    2    0    0  0.81065630210E-01 -0.11415754633E+03 -0.20603902353E+03  0.26670349841E+03  0.12508686938E+03 0.  0.
          5    1    3    3  502    0  0.47112968330E+01 -0.70279668994E+02 -0.21064180963E+03  0.22214606131E+03  0.41800000000E+01 0.  1.
         -5    1    3    3    0  502 -0.46302312028E+01 -0.43877877336E+02  0.46027861042E+01  0.44557437095E+02  0.41800000000E+01 0.  1.
        -11    1    1    2    0    0 -0.19375929472E+02  0.10668595199E+03 -0.13034841190E+03  0.16955243283E+03  0.00000000000E+00 0. -1.
         11    1    1    2    0    0  0.19294863841E+02  0.74715943438E+01  0.59433446912E+01  0.21527652887E+02  0.00000000000E+00 0.  1.
</event>
<event>
 7    1  0.5109948E-006  0.7596852E+02  0.7561462E-02  0.1340898E+00
         -2   -1    0    0    0  501 -0.00000000000E+00  0.00000000000E+00  0.83424973583E+03  0.83424973583E+03  0.00000000000E+00 0.  1.
          2   -1    0    0  501    0  0.00000000000E+00 -0.00000000000E+00 -0.18625739947E+02  0.18625739947E+02  0.00000000000E+00 0. -1.
         23    2    1    2    0    0  0.25981284114E+02  0.37867770128E+02  0.58566106869E+03  0.60062592045E+03  0.12507443307E+03 0.  0.
          5    1    3    3  502    0  0.15530569266E+02  0.60845784020E+01  0.55433670957E+03  0.55460335434E+03  0.41800000000E+01 0.  1.
         -5    1    3    3    0  502  0.10450714849E+02  0.31783191726E+02  0.31324359120E+02  0.46022566111E+02  0.41800000000E+01 0.  1.
        -11    1    1    2    0    0  0.30314726232E+02  0.43920553094E+01  0.98140042278E+02  0.10280924411E+03  0.00000000000E+00 0. -1.
         11    1    1    2    0    0 -0.56296010346E+02 -0.42259825438E+02  0.13182288492E+03  0.14944031122E+03  0.00000000000E+00 0.  1.
</event>
<event>
 7    1  0.5109948E-006  0.1326552E+03  0.7561462E-02  0.1223568E+00
          2   -1    0    0  501    0  0.00000000000E+00  0.00000000000E+00  0.30795971684E+03  0.30795971684E+03  0.00000000000E+00 0. -1.
         -2   -1    0    0    0  501 -0.00000000000E+00 -0.00000000000E+00 -0.61215598880E+02  0.61215598880E+02  0.00000000000E+00 0.  1.
         23    2    1    2    0    0  0.84641183065E+01 -0.72422130999E+02  0.10178987202E+03  0.17698884719E+03  0.12508903880E+03 0.  0.
          5    1    3    3  502    0 -0.10885206337E+02  0.34069925413E+02  0.19434902295E+02  0.40919865125E+02  0.41800000000E+01 0. -1.
         -5    1    3    3    0  502  0.19349324644E+02 -0.10649205641E+03  0.82354969721E+02  0.13606898207E+03  0.41800000000E+01 0. -1.
        -11    1    1    2    0    0  0.41389512672E+02  0.12923563678E+02  0.27319995589E+02  0.51249316253E+02  0.00000000000E+00 0. -1.
         11    1    1    2    0    0 -0.49853630979E+02  0.59498567321E+02  0.11763425035E+03  0.14093715228E+03  0.00000000000E+00 0.  1.
</event>
<event>
 7    1  0.5109948E-006  0.1517626E+03  0.7561462E-02  0.1198324E+00
          2   -1    0    0  501    0  0.00000000000E+00  0.00000000000E+00  0.63396335388E+03  0.63396335388E+03  0.00000000000E+00 0.  1.
         -2   -1    0    0    0  501 -0.00000000000E+00 -0.00000000000E+00 -0.53364690682E+02  0.53364690682E+02  0.00000000000E+00 0. -1.
         23    2    1    2    0    0 -0.73095805004E+02 -0.12877063521E+03  0.31462308610E+03  0.36954071714E+03  0.12509109527E+03 0.  0.
          5    1    3    3  502    0 -0.73350916748E+02 -0.88766267829E+02  0.30790647851E+03  0.32876082370E+03  0.41800000000E+01 0. -1.
         -5    1    3    3    0  502  0.25511174409E+00 -0.40004367378E+02  0.67166075907E+01  0.40779893438E+02  0.41800000000E+01 0. -1.
        -11    1    1    2    0    0  0.56527646279E+02  0.98572134775E+02  0.25873810856E+03  0.28259024995E+03  0.00000000000E+00 0.  1.
         11    1    1    2    0    0  0.16568158725E+02  0.30198500432E+02  0.72374685446E+01  0.35197077475E+02  0.00000000000E+00 0. -1.
</event>
<event>
 7    1  0.5109948E-006  0.8868849E+02  0.7561462E-02  0.1306059E+00
          1   -1    0    0  501    0  0.00000000000E+00  0.00000000000E+00  0.18921754605E+03  0.18921754605E+03  0.00000000000E+00 0. -1.
         -1   -1    0    0    0  501 -0.00000000000E+00 -0.00000000000E+00 -0.76992047334E+02  0.76992047334E+02  0.00000000000E+00 0.  1.
         23    2    1    2    0    0  0.45263709077E+02 -0.84859764681E+01  0.33088153415E+02  0.13735641357E+03  0.12510452948E+03 0.  0.
          5    1    3    3  502    0  0.19514952429E+02  0.26303284207E+02  0.71870027036E+02  0.79091524922E+02  0.41800000000E+01 0.  1.
         -5    1    3    3    0  502  0.25748756648E+02 -0.34789260675E+02 -0.38781873621E+02  0.58264888645E+02  0.41800000000E+01 0.  1.
        -11    1    1    2    0    0  0.10442652219E+02  0.36894895882E+02  0.22341914163E+02  0.44378412049E+02  0.00000000000E+00 0.  1.
         11    1    1    2    0    0 -0.55706361296E+02 -0.28408919414E+02  0.56795431135E+02  0.84474767765E+02  0.00000000000E+00 0. -1.
</event>
<event>
 7    1  0.5109948E-006  0.1077240E+03  0.7561462E-02  0.1264844E+00
         -2   -1    0    0    0  501 -0.00000000000E+00  0.00000000000E+00  0.79733009232E+02  0.79733009232E+02  0.00000000000E+00 0.  1.
          2   -1    0    0  501    0  0.00000000000E+00 -0.00000000000E+00 -0.29385306511E+03  0.29385306511E+03  0.00000000000E+00 0. -1.
         23    2    1    2    0    0  0.28692892295E+02 -0.28862997387E+02 -0.16452997882E+02  0.13256826506E+03  0.12508912452E+03 0.  0.
          5    1    3    3  502    0  0.65480171755E+01 -0.72661994734E+02 -0.33575597096E+02  0.80420365132E+02  0.41800000000E+01 0. -1.
         -5    1    3    3    0  502  0.22144875119E+02  0.43798997347E+02  0.17122599214E+02  0.52147899924E+02  0.41800000000E+01 0. -1.
        -11    1    1    2    0    0  0.19497008265E+01  0.53660516292E+02 -0.19415383302E+03  0.20144220813E+03  0.00000000000E+00 0. -1.
         11    1    1    2    0    0 -0.30642593121E+02 -0.24797518905E+02 -0.35132249797E+01  0.39575601155E+02  0.00000000000E+00 0.  1.
</event>
<event>
 7    1  0.5109948E-006  0.9535637E+02  0.7561462E-02  0.1290375E+00
          1   -1    0    0  501    0  0.00000000000E+00  0.00000000000E+00  0.81925888040E+03  0.81925888040E+03  0.00000000000E+00 0. -1.
         -1   -1    0    0    0  501 -0.00000000000E+00 -0.00000000000E+00 -0.20194385184E+02  0.20194385184E+02  0.00000000000E+00 0.  1.
         23    2    1    2    0    0 -0.41184434461E+02 -0.43525564208E+02  0.33858894997E+03  0.36589808044E+03  0.12509314870E+03 0.  0.
          5    1    3    3  502    0 -0.26955387479E+02 -0.56310708289E+02  0.34052161941E+03  0.34622237719E+03  0.41800000000E+01 0.  1.
         -5    1    3    3    0  502 -0.14229046982E+02  0.12785144081E+02 -0.19326694473E+01  0.19675703250E+02  0.41800000000E+01 0.  1.
        -11    1    1    2    0    0 -0.21978198392E+02 -0.11489249286E+02  0.71987135308E+02  0.76139291457E+02  0.00000000000E+00 0. -1.
         11    1    1    2    0    0  0.63162632853E+02  0.55014813494E+02  0.38848840994E+03  0.39741589368E+03  0.00000000000E+00 0.  1.
</event>
<event>
 7    1  0.5109948E-006  0.9059273E+02  0.7561462E-02  0.1301423E+00
         -1   -1    0    0    0  501 -0.00000000000E+00  0.00000000000E+00  0.28085473850E+02  0.28085473850E+02  0.00000000000E+00 0.  1.
          1   -1    0    0  501    0  0.00000000000E+00 -0.00000000000E+00 -0.73592404240E+03  0.73592404240E+03  0.00000000000E+00 0. -1.
         23    2    1    2    0    0  0.94640632482E+01  0.66691312838E+02 -0.20998649200E+03  0.25352482366E+03  0.12507281755E+03 0.  0.
          5    1    3    3  502    0  0.68048757098E+01  0.56227692347E+02 -0.22641383632E+03  0.23342784195E+03  0.41800000000E+01 0. -1.
         -5    1    3    3    0  502  0.26591875383E+01  0.10463620491E+02  0.16427344327E+02  0.20096981709E+02  0.41800000000E+01 0. -1.
        -11    1    1    2    0    0 -0.42220679112E+02 -0.67991418975E+02 -0.34646975378E+03  0.35559346040E+03  0.00000000000E+00 0.  1.
         11    1    1    2    0    0  0.32756615864E+02  0.13001061369E+01 -0.15138232278E+03  0.15489123219E+03  0.00000000000E+00 0. -1.
</event>
<event>
 7    1  0.5109948E-006  0.1089356E+03  0.7561462E-02  0.1262554E+00
         -2   -1    0    0    0  501 -0.00000000000E+00  0.00000000000E+00  0.71495700082E+02  0.71495700082E+02  0.00000000000E+00 0.  1.
          2   -1    0    0  501    0  0.00000000000E+00 -0.00000000000E+00 -0.31001582783E+03  0.31001582783E+03  0.00000000000E+00 0. -1.
         23    2    1    2    0    0  0.11446744131E+02  0.41425799359E+02 -0.12479952003E+02  0.13285532453E+03  0.12509062016E+03 0.  0.
          5    1    3    3  502    0 -0.27065965913E+02 -0.33653437294E+02  0.11775017936E+02  0.44958245071E+02  0.41800000000E+01 0.  1.
         -5    1    3    3    0  502  0.38512710044E+02  0.75079236652E+02 -0.24254969939E+02  0.87897079462E+02  0.41800000000E+01 0.  1.
        -11    1    1    2    0    0 -0.14511662405E+02 -0.64809483479E+02 -0.20969764945E+03  0.21996354626E+03  0.00000000000E+00 0. -1.
         11    1    1    2    0    0  0.30649182739E+01  0.23383684121E+02 -0.16342526287E+02  0.28692657119E+02  0.00000000000E+00 0.  1.
</event>
<event>
 7    1  0.5109948E-006  0.1221288E+03  0.7561462E-02  0.1239626E+00
         -1   -1    0    0    0  501 -0.00000000000E+00  0.00000000000E+00  0.23497159875E+04  0.23497159875E+04  0.00000000000E+00 0.  1.
          1   -1    0    0  501    0  0.00000000000E+00 -0.00000000000E+00 -0.13001653678E+02  0.13001653678E+02  0.00000000000E+00 0. -1.
         23    2    1    2    0    0  0.78005656483E+02 -0.37775980772E+02  0.19780116480E+04  0.19838571767E+04  0.12508921082E+03 0.  0.
          5    1    3    3  502    0 -0.19091697251E+02 -0.11735996384E+02  0.10776488272E+04  0.10778899265E+04  0.41800000000E+01 0. -1.
         -5    1    3    3    0  502  0.97097353733E+02 -0.26039984387E+02  0.90036282078E+03  0.90596725014E+03  0.41800000000E+01 0. -1.
        -11    1    1    2    0    0 -0.72374370678E+02 -0.97134496082E+01  0.19139102373E+03  0.20484854064E+03  0.00000000000E+00 0.  1.
         11    1    1    2    0    0 -0.56312858050E+01  0.47489430380E+02  0.16731166212E+03  0.17401192390E+03  0.00000000000E+00 0. -1.
</event>
<event>
 7    1  0.5109948E-006  0.1980179E+03  0.7561462E-02  0.1151422E+00
          1   -1    0    0  501    0  0.00000000000E+00  0.00000000000E+00  0.86217656835E+02  0.86217656835E+02  0.00000000000E+00 0. -1.
         -1   -1    0    0    0  501 -0.00000000000E+00 -0.00000000000E+00 -0.58770727416E+03  0.58770727416E+03  0.00000000000E+00 0.  1.
         23    2    1    2    0    0 -0.11360507132E+02 -0.18399574696E+03 -0.36322764470E+03  0.42610714373E+03  0.12509788185E+03 0.  0.
          5    1    3    3  502    0 -0.52147069586E+02 -0.68783378781E+02 -0.80657948500E+02  0.11821018196E+03  0.41800000000E+01 0. -1.
         -5    1    3    3    0  502  0.40786562454E+02 -0.11521236818E+03 -0.28256969620E+03  0.30789696177E+03  0.41800000000E+01 0. -1.
        -11    1    1    2    0    0 -0.10124703057E+02  0.10420088379E+03 -0.12673020870E+03  0.16438028955E+03  0.00000000000E+00 0. -1.
         11    1    1    2    0    0  0.21485210189E+02  0.79794863171E+02 -0.11531763918E+02  0.83437497711E+02  0.00000000000E+00 0.  1.
</event>
<event>
 7    1  0.5109948E-006  0.2355312E+03  0.7561462E-02  0.1122806E+00
         -2   -1    0    0    0  501 -0.00000000000E+00  0.00000000000E+00  0.24680508059E+03  0.24680508059E+03  0.00000000000E+00 0.  1.
          2   -1    0    0  501    0  0.00000000000E+00 -0.00000000000E+00 -0.22685807199E+03  0.22685807199E+03  0.00000000000E+00 0. -1.
         23    2    1    2    0    0 -0.14502782114E+03  0.15332006435E+03  0.28770371165E+02  0.24701467769E+03  0.12509358776E+03 0.  0.
          5    1    3    3  502    0  0.15767622320E+02  0.52214655029E+02  0.13930569849E+02  0.56449280684E+02  0.41800000000E+01 0. -1.
         -5    1    3    3    0  502 -0.16079544346E+03  0.10110540932E+03  0.14839801316E+02  0.19056539700E+03  0.41800000000E+01 0. -1.
        -11    1    1    2    0    0  0.70348565006E+02 -0.13055173499E+03 -0.25077866032E+01  0.14832048106E+03  0.00000000000E+00 0.  1.
         11    1    1    2    0    0  0.74679256138E+02 -0.22768329357E+02 -0.63155759625E+01  0.78327993839E+02  0.00000000000E+00 0. -1.
</event>
<event>
 7    1  0.5109948E-006  0.1742974E+03  0.7561462E-02  0.1173439E+00
         -1   -1    0    0    0  501 -0.00000000000E+00  0.00000000000E+00  0.64696407418E+02  0.64696407418E+02  0.00000000000E+00 0.  1.
          1   -1    0    0  501    0  0.00000000000E+00 -0.00000000000E+00 -0.84361379558E+03  0.84361379558E+03  0.00000000000E+00 0. -1.
         23    2    1    2    0    0  0.31505970506E+02  0.16722730179E+03 -0.17424639061E+03  0.27380053667E+03  0.12508929851E+03 0.  0.
          5    1    3    3  502    0  0.11174118519E+02  0.80642659994E+01  0.18196577483E+02  0.23205196463E+02  0.41800000000E+01 0. -1.
         -5    1    3    3    0  502  0.20331851987E+02  0.15916303579E+03 -0.19244296809E+03  0.25059534021E+03  0.41800000000E+01 0. -1.
        -11    1    1    2    0    0  0.76781604327E+01 -0.30607152582E+02 -0.33919754171E+02  0.46328195085E+02  0.00000000000E+00 0.  1.
         11    1    1    2    0    0 -0.39184130938E+02 -0.13662014921E+03 -0.57075124338E+03  0.58818147124E+03  0.00000000000E+00 0. -1.
</event>
<event>
 7    1  0.5109948E-006  0.1142566E+03  0.7561462E-02  0.1252884E+00
          3   -1    0    0  501    0  0.00000000000E+00  0.00000000000E+00  0.29806671993E+02  0.29806671993E+02  0.00000000000E+00 0. -1.
         -3   -1    0    0    0  501 -0.00000000000E+00 -0.00000000000E+00 -0.85401626392E+03  0.85401626392E+03  0.00000000000E+00 0.  1.
         23    2    1    2    0    0  0.87731283041E+01 -0.84773268666E+02 -0.65269790240E+03  0.67001953392E+03  0.12509256243E+03 0.  0.
          5    1    3    3  502    0 -0.11164038068E+01  0.71861177277E+01  0.21499555737E+01  0.86591774682E+01  0.41800000000E+01 0. -1.
         -5    1    3    3    0  502  0.98895321109E+01 -0.91959386394E+02 -0.65484785798E+03  0.66136035645E+03  0.41800000000E+01 0. -1.
        -11    1    1    2    0    0 -0.30373458127E+02 -0.87076928083E+01 -0.38678303198E+02  0.49943788512E+02  0.00000000000E+00 0.  1.
         11    1    1    2    0    0  0.21600329823E+02  0.93480961474E+02 -0.13283338632E+03  0.16385961348E+03  0.00000000000E+00 0. -1.
</event>
<event>
 7    1  0.5109948E-006  0.1033552E+03  0.7561462E-02  0.1273394E+00
         -1   -1    0    0    0  501 -0.00000000000E+00  0.00000000000E+00  0.12698179943E+03  0.12698179943E+03  0.00000000000E+00 0.  1.
          1   -1    0    0  501    0  0.00000000000E+00 -0.00000000000E+00 -0.15907325292E+03  0.15907325292E+03  0.00000000000E+00 0. -1.
         23    2    1    2    0    0 -0.67435225549E+02  0.60943235513E+02 -0.16797334768E+02  0.15553949409E+03  0.12509514846E+03 0.  0.
          5    1    3    3  502    0 -0.49316098404E+02  0.24916714291E+02  0.51802864940E+02  0.75854659902E+02  0.41800000000E+01 0.  1.
         -5    1    3    3    0  502 -0.18119127144E+02  0.36026521222E+02 -0.68600199708E+02  0.79684834189E+02  0.41800000000E+01 0.  1.
        -11    1    1    2    0    0  0.79505296934E+02 -0.57767715725E+02 -0.37381765394E+02  0.10514560193E+03  0.00000000000E+00 0. -1.
         11    1    1    2    0    0 -0.12070071386E+02 -0.31755197883E+01  0.22087646671E+02  0.25369956339E+02  0.00000000000E+00 0.  1.
</event>
<event>
 7    1  0.5109948E-006  0.1110568E+03  0.7561462E-02  0.1258625E+00
         -1   -1    0    0    0  501 -0.00000000000E+00  0.00000000000E+00  0.48524970343E+03  0.48524970343E+03  0.00000000000E+00 0.  1.
          1   -1    0    0  501    0  0.00000000000E+00 -0.00000000000E+00 -0.27936190307E+02  0.27936190307E+02  0.00000000000E+00 0. -1.
         23    2    1    2    0    0  0.17567885100E+02  0.24243590539E+02  0.31616812498E+03  0.34132929206E+03  0.12508804937E+03 0.  0.
          5    1    3    3  502    0  0.48137389091E+02  0.59927101769E+02  0.15006790868E+03  0.16866035506E+03  0.41800000000E+01 0. -1.
         -5    1    3    3    0  502 -0.30569503991E+02 -0.35683511230E+02  0.16610021630E+03  0.17266893699E+03  0.41800000000E+01 0. -1.
        -11    1    1    2    0    0 -0.17368313665E+02  0.34812311138E+02  0.59550688834E+02  0.71132551388E+02  0.00000000000E+00 0.  1.
         11    1    1    2    0    0 -0.19957143497E+00 -0.59055901677E+02  0.81594699306E+02  0.10072405029E+03  0.00000000000E+00 0. -1.
</event>
<event>
 7    1  0.5109948E-006  0.1073012E+03  0.7561462E-02  0.1265651E+00
         -2   -1    0    0    0  501 -0.00000000000E+00  0.00000000000E+00  0.39000412282E+02  0.39000412282E+02  0.00000000000E+00 0.  1.
          2   -1    0    0  501    0  0.00000000000E+00 -0.00000000000E+00 -0.38794302004E+03  0.38794302004E+03  0.00000000000E+00 0. -1.
         23    2    1    2    0    0  0.59721997615E+02 -0.30688513349E+01 -0.20004886405E+03  0.24339862825E+03  0.12508880597E+03 0.  0.
          5    1    3    3  502    0  0.28345438506E+02 -0.60424678373E+02 -0.13712824612E+03  0.15256550700E+03  0.41800000000E+01 0.  1.
         -5    1    3    3    0  502  0.31376559109E+02  0.57355827038E+02 -0.62920617928E+02  0.90833121256E+02  0.41800000000E+01 0.  1.
        -11    1    1    2    0    0 -0.23037392782E+02 -0.26490344892E+02 -0.94476999566E+01  0.36355451766E+02  0.00000000000E+00 0.  1.
         11    1    1    2    0    0 -0.36684604833E+02  0.29559196227E+02 -0.13944604375E+03  0.14718935230E+03  0.00000000000E+00 0. -1.
</event>
<event>
 7    1  0.5109948E-006  0.6880508E+02  0.7561462E-02  0.1364204E+00
          3   -1    0    0  501    0  0.00000000000E+00  0.00000000000E+00  0.22833383757E+03  0.22833383757E+03  0.00000000000E+00 0. -1.
         -3   -1    0    0    0  501 -0.00000000000E+00 -0.00000000000E+00 -0.65614607579E+02  0.65614607579E+02  0.00000000000E+00 0.  1.
         23    2    1    2    0    0  0.52675889191E+02 -0.51561035889E+01  0.67148318482E+02  0.15152262210E+03  0.12509545806E+03 0.  0.
          5    1    3    3  502    0  0.49858741832E+01 -0.62436149515E+01 -0.36366946059E+02  0.37468237678E+02  0.41800000000E+01 0. -1.
         -5    1    3    3    0  502  0.47690015008E+02  0.10875113626E+01  0.10351526454E+03  0.11405438442E+03  0.41800000000E+01 0. -1.
        -11    1    1    2    0    0 -0.22877425373E+02 -0.27980887533E+02  0.90650861764E+02  0.97590396031E+02  0.00000000000E+00 0. -1.
         11    1    1    2    0    0 -0.29798463818E+02  0.33136991122E+02  0.49200497430E+01  0.44835427019E+02  0.00000000000E+00 0.  1.
</event>
<event>
 7    1  0.5109948E-006  0.1646944E+03  0.7561462E-02  0.1183497E+00
          2   -1    0    0  501    0  0.00000000000E+00  0.00000000000E+00  0.58257567101E+03  0.58257567101E+03  0.00000000000E+00 0.  1.
         -2   -1    0    0    0  501 -0.00000000000E+00 -0.00000000000E+00 -0.82438653796E+02  0.82438653796E+02  0.00000000000E+00 0. -1.
         23    2    1    2    0    0 -0.34021284959E+02 -0.14201066005E+03  0.74986573580E+02  0.20638670233E+03  0.12509200328E+03 0.  0.
          5    1    3    3  502    0  0.28330904375E+02 -0.40477835428E+02  0.71628629881E+02  0.87116177157E+02  0.41800000000E+01 0. -1.
         -5    1    3    3    0  502 -0.62352189334E+02 -0.10153282462E+03  0.33579436983E+01  0.11927052518E+03  0.41800000000E+01 0. -1.
        -11    1    1    2    0    0  0.51953384138E+02  0.75165511807E+02  0.15665114843E+03  0.18135211770E+03  0.00000000000E+00 0. -1.
         11    1    1    2    0    0 -0.17932099180E+02  0.66845148240E+02  0.26849929520E+03  0.27727550477E+03  0.00000000000E+00 0.  1.
</event>
<event>
 6    1  0.5109948E-006  0.1411937E+03  0.7561462E-02  0.1211732E+00
          1   -1    0    0  501    0  0.00000000000E+00  0.00000000000E+00  0.24079316896E+03  0.24079316896E+03  0.00000000000E+00 0. -1.
         -1   -1    0    0    0  501 -0.00000000000E+00 -0.00000000000E+00 -0.83204321691E+02  0.83204321691E+02  0.00000000000E+00 0.  1.
          5    1    1    2  502    0  0.89720281780E+02 -0.19225099622E+02  0.41923624034E+02  0.10096730199E+03  0.41800000000E+01 0. -1.
         -5    1    1    2    0  502 -0.53503096210E+02  0.63290750491E+02  0.54525498140E+02  0.99291503912E+02  0.41800000000E+01 0.  1.
        -11    1    1    2    0    0 -0.81893230748E+01  0.28558652058E+02  0.15722865348E+02  0.33613540643E+02  0.00000000000E+00 0. -1.
         11    1    1    2    0    0 -0.28027862495E+02 -0.72624302928E+02  0.45416859749E+02  0.90125144112E+02  0.00000000000E+00 0.  1.
</event>
<event>
 7    1  0.5109948E-006  0.1937489E+03  0.7561462E-02  0.1155123E+00
         -1   -1    0    0    0  501 -0.00000000000E+00  0.00000000000E+00  0.30822042825E+03  0.30822042825E+03  0.00000000000E+00 0.  1.
          1   -1    0    0  501    0  0.00000000000E+00 -0.00000000000E+00 -0.13908955982E+03  0.13908955982E+03  0.00000000000E+00 0. -1.
         23    2    1    2    0    0  0.13973571953E+03 -0.10206863232E+03  0.61230063637E+02  0.22212789944E+03  0.12509039132E+03 0.  0.
          5    1    3    3  502    0  0.32732032778E+02 -0.99602192092E+02  0.17239491827E+02  0.10633275656E+03  0.41800000000E+01 0. -1.
         -5    1    3    3    0  502  0.10700368675E+03 -0.24664402275E+01  0.43990571811E+02  0.11579514288E+03  0.41800000000E+01 0. -1.
        -11    1    1    2    0    0 -0.13066716925E+03  0.84274916511E+02  0.49058032327E+02  0.16304251350E+03  0.00000000000E+00 0. -1.
         11    1    1    2    0    0 -0.90685502813E+01  0.17793715809E+02  0.58842772463E+02  0.62139575133E+02  0.00000000000E+00 0.  1.
</event>
<event>
 7    1  0.5109948E-006  0.1014703E+03  0.7561462E-02  0.1277234E+00
         -1   -1    0    0    0  501 -0.00000000000E+00  0.00000000000E+00  0.32497984132E+02  0.32497984132E+02  0.00000000000E+00 0.  1.
          1   -1    0    0  501    0  0.00000000000E+00 -0.00000000000E+00 -0.47221532862E+03  0.47221532862E+03  0.00000000000E+00 0. -1.
         23    2    1    2    0    0 -0.43302215165E+02  0.41471330372E+02 -0.26345753224E+03  0.29774494058E+03  0.12508886948E+03 0.  0.
          5    1    3    3  502    0 -0.81747997151E+02  0.16428024808E-01 -0.16281266242E+03  0.18223109162E+03  0.41800000000E+01 0.  1.
         -5    1    3    3    0  502  0.38445781986E+02  0.41454902347E+02 -0.10064486982E+03  0.11551384896E+03  0.41800000000E+01 0.  1.
        -11    1    1    2    0    0  0.19053964193E+02 -0.35497805907E+01  0.51528543736E+01  0.20055084191E+02  0.00000000000E+00 0.  1.
         11    1    1    2    0    0  0.24248250972E+02 -0.37921549781E+02 -0.18141266663E+03  0.18691328798E+03  0.00000000000E+00 0. -1.
</event>
<event>
 7    1  0.5109948E-006  0.1088308E+03  0.7561462E-02  0.1262751E+00
          1   -1    0    0  501    0  0.00000000000E+00  0.00000000000E+00  0.13128388480E+03  0.13128388480E+03  0.00000000000E+00 0. -1.
         -1   -1    0    0    0  501 -0.00000000000E+00 -0.00000000000E+00 -0.16122373244E+03  0.16122373244E+03  0.00000000000E+00 0.  1.
         23    2    1    2    0    0  0.79963046534E+02  0.50927463591E+02 -0.29298527116E+02  0.15966774082E+03  0.12509072072E+03 0.  0.
          5    1    3    3  502    0  0.64438959173E+02  0.38379397344E+02 -0.77132680885E+02  0.10766745311E+03  0.41800000000E+01 0.  1.
         -5    1    3    3    0  502  0.15524087361E+02  0.12548066247E+02  0.47834153769E+02  0.52000287708E+02  0.41800000000E+01 0.  1.
        -11    1    1    2    0    0  0.13303623156E+02  0.40220716048E+01  0.18264398745E+02  0.22951072101E+02  0.00000000000E+00 0. -1.
         11    1    1    2    0    0 -0.93266669689E+02 -0.54949535195E+02 -0.18905719268E+02  0.10988880432E+03  0.00000000000E+00 0.  1.
</event>
<event>
 7    1  0.5109948E-006  0.1071353E+03  0.7561462E-02  0.1265969E+00
          1   -1    0    0  501    0  0.00000000000E+00  0.00000000000E+00  0.40575206412E+02  0.40575206412E+02  0.00000000000E+00 0. -1.
         -1   -1    0    0    0  501 -0.00000000000E+00 -0.00000000000E+00 -0.29590492050E+03  0.29590492050E+03  0.00000000000E+00 0.  1.
         23    2    1    2    0    0 -0.15775077244E+02  0.64503326023E+00 -0.15045343974E+03  0.19629882916E+03  0.12509086166E+03 0.  0.
          5    1    3    3  502    0  0.18887958588E+02  0.54093228916E+02 -0.44785222239E+02  0.72842439039E+02  0.41800000000E+01 0.  1.
         -5    1    3    3    0  502 -0.34663035832E+02 -0.53448195656E+02 -0.10566821751E+03  0.12345639012E+03  0.41800000000E+01 0.  1.
        -11    1    1    2    0    0  0.53989567652E+02  0.55254643895E+01 -0.59345047432E+02  0.80419144652E+02  0.00000000000E+00 0.  1.
         11    1    1    2    0    0 -0.38214490408E+02 -0.61704976498E+01 -0.45531226914E+02  0.59762153096E+02  0.00000000000E+00 0. -1.
</event>
<event>
 7    1  0.5109948E-006  0.6129224E+02  0.7561462E-02  0.1392487E+00
          2   -1    0    0  501    0  0.00000000000E+00  0.00000000000E+00  0.12220395698E+03  0.12220395698E+03  0.00000000000E+00 0. -1.
         -2   -1    0    0    0  501 -0.00000000000E+00 -0.00000000000E+00 -0.14339828280E+03  0.14339828280E+03  0.00000000000E+00 0.  1.
         23    2    1    2    0    0 -0.42096373169E+02 -0.19779267752E+02 -0.71544398822E+02  0.15142038614E+03  0.12508480431E+03 0.  0.
          5    1    3    3  502    0 -0.28872198333E+02 -0.51237147123E+01  0.33349152119E+02  0.44603751368E+02  0.41800000000E+01 0.  1.
         -5    1    3    3    0  502 -0.13224174836E+02 -0.14655553039E+02 -0.10489355094E+03  0.10681663477E+03  0.41800000000E+01 0.  1.
        -11    1    1    2    0    0 -0.50917738978E+01  0.24814121709E+02 -0.17926613626E+02  0.31032729073E+02  0.00000000000E+00 0.  1.
         11    1    1    2    0    0  0.47188147067E+02 -0.50348539577E+01  0.68276686637E+02  0.83149124566E+02  0.00000000000E+00 0. -1.
</event>
<event>
 7    1  0.5109948E-006  0.1170341E+03  0.7561462E-02  0.1248072E+00
         -2   -1    0    0    0  501 -0.00000000000E+00  0.00000000000E+00  0.94239130706E+02  0.94239130706E+02  0.00000000000E+00 0. -1.
          2   -1    0    0  501    0  0.00000000000E+00 -0.00000000000E+00 -0.20380321809E+03  0.20380321809E+03  0.00000000000E+00 0.  1.
         23    2    1    2    0    0 -0.24118448897E+02  0.91132423624E+02 -0.59733472639E+02  0.16763870526E+03  0.12509128481E+03 0.  0.
          5    1    3    3  502    0  0.82474212335E+01 -0.18750348174E+02  0.19263088617E+02  0.28427706497E+02  0.41800000000E+01 0.  1.
         -5    1    3    3    0  502 -0.32365870130E+02  0.10988277180E+03 -0.78996561256E+02  0.13921099877E+03  0.41800000000E+01 0.  1.
        -11    1    1    2    0    0  0.26827436314E+01 -0.63532598713E+02 -0.66217575183E+02  0.91806075375E+02  0.00000000000E+00 0.  1.
         11    1    1    2    0    0  0.21435705265E+02 -0.27599824911E+02  0.16386960437E+02  0.38597568158E+02  0.00000000000E+00 0. -1.
</event>
<event>
 7    1  0.5109948E-006  0.1218643E+03  0.7561462E-02  0.1240053E+00
          1   -1    0    0  501    0  0.00000000000E+00  0.00000000000E+00  0.45683163330E+03  0.45683163330E+03  0.00000000000E+00 0. -1.
         -1   -1    0    0    0  501 -0.00000000000E+00 -0.00000000000E+00 -0.41562685192E+02  0.41562685192E+02  0.00000000000E+00 0.  1.
         23    2    1    2    0    0 -0.50904222361E+02  0.47874092096E+02  0.14104466781E+03  0.20105722317E+03  0.12508892886E+03 0.  0.
          5    1    3    3  502    0 -0.73416313486E+01  0.84918073233E+02  0.75150332481E+02  0.11371026156E+03  0.41800000000E+01 0.  1.
         -5    1    3    3    0  502 -0.43562591012E+02 -0.37043981137E+02  0.65894335331E+02  0.87346961612E+02  0.41800000000E+01 0.  1.
        -11    1    1    2    0    0  0.23989569450E+02  0.17936513772E+02  0.27821646655E+02  0.40881071308E+02  0.00000000000E+00 0. -1.
         11    1    1    2    0    0  0.26914652911E+02 -0.65810605868E+02  0.24640263364E+03  0.25645602401E+03  0.00000000000E+00 0.  1.
</event>
<event>
 7    1  0.5109948E-006  0.1040221E+03  0.7561462E-02  0.1272058E+00
          1   -1    0    0  501    0  0.00000000000E+00  0.00000000000E+00  0.92587165019E+02  0.92587165019E+02  0.00000000000E+00 0. -1.
         -1   -1    0    0    0  501 -0.00000000000E+00 -0.00000000000E+00 -0.14276212942E+03  0.14276212942E+03  0.00000000000E+00 0.  1.
         23    2    1    2    0    0  0.55960249577E+01  0.14856877245E+02 -0.59713123877E+02  0.13951884707E+03  0.12509120363E+03 0.  0.
          5    1    3    3  502    0 -0.14568080927E+02  0.60704776002E+02 -0.14664507911E+01  0.62585315285E+02  0.41800000000E+01 0.  1.
         -5    1    3    3    0  502  0.20164105885E+02 -0.45847898757E+02 -0.58246673086E+02  0.76933531780E+02  0.41800000000E+01 0.  1.
        -11    1    1    2    0    0  0.31898483177E+02  0.24975257417E+02  0.66154762113E+01  0.41049253800E+02  0.00000000000E+00 0.  1.
         11    1    1    2    0    0 -0.37494508135E+02 -0.39832134662E+02  0.29226832649E+01  0.54781193575E+02  0.00000000000E+00 0. -1.
</event>
<event>
 7    1  0.5109948E-006  0.1112319E+03  0.7561462E-02  0.1258306E+00
         -3   -1    0    0    0  501 -0.00000000000E+00  0.00000000000E+00  0.28727260522E+02  0.28727260522E+02  0.00000000000E+00 0.  1.
          3   -1    0    0  501    0  0.00000000000E+00 -0.00000000000E+00 -0.45660863672E+03  0.45660863672E+03  0.00000000000E+00 0. -1.
         23    2    1    2    0    0  0.34782333756E+02 -0.13453410185E+02 -0.22719391483E+03  0.26211912343E+03  0.12529387433E+03 0.  0.
          5    1    3    3  502    0  0.41000564828E+02 -0.62741609237E+02 -0.96636518517E+02  0.12236684582E+03  0.41800000000E+01 0. -1.
         -5    1    3    3    0  502 -0.62182310715E+01  0.49288199051E+02 -0.13055739631E+03  0.13975227761E+03  0.41800000000E+01 0. -1.
        -11    1    1    2    0    0 -0.29028969623E+01  0.49406215701E+02 -0.10864659965E+03  0.11938795825E+03  0.00000000000E+00 0. -1.
         11    1    1    2    0    0 -0.31879436794E+02 -0.35952805516E+02 -0.92040861718E+02  0.10382881556E+03  0.00000000000E+00 0.  1.
</event>
<event>
 7    1  0.5109948E-006  0.1437413E+03  0.7561462E-02  0.1208382E+00
          2   -1    0    0  501    0  0.00000000000E+00  0.00000000000E+00  0.28525523188E+03  0.28525523188E+03  0.00000000000E+00 0. -1.
         -2   -1    0    0    0  501 -0.00000000000E+00 -0.00000000000E+00 -0.93005964488E+02  0.93005964488E+02  0.00000000000E+00 0.  1.
         23    2    1    2    0    0  0.36733831946E+02  0.10199859641E+03  0.41021473192E+02  0.17053742307E+03  0.12508862189E+03 0.  0.
          5    1    3    3  502    0  0.46318253103E+02  0.12501308215E+03  0.14942355140E+02  0.13421772482E+03  0.41800000000E+01 0.  1.
         -5    1    3    3    0  502 -0.95844211573E+01 -0.23014485740E+02  0.26079118052E+02  0.36319698253E+02  0.41800000000E+01 0.  1.
        -11    1    1    2    0    0 -0.48328988455E+02 -0.32218395804E+02  0.11363232892E+03  0.12761670082E+03  0.00000000000E+00 0. -1.
         11    1    1    2    0    0  0.11595156509E+02 -0.69780200604E+02  0.37595465284E+02  0.80107072476E+02  0.00000000000E+00 0.  1.
</event>
<event>
 7    1  0.5109948E-006  0.3386148E+03  0.7561462E-02  0.1067387E+00
          1   -1    0    0  501    0  0.00000000000E+00  0.00000000000E+00  0.41439520891E+03  0.41439520891E+03  0.00000000000E+00 0. -1.
         -1   -1    0    0    0  501 -0.00000000000E+00 -0.00000000000E+00 -0.39053852355E+03  0.39053852355E+03  0.00000000000E+00 0.  1.
         23    2    1    2    0    0 -0.31263177896E+03  0.75523367528E+02 -0.20367746859E+03  0.40072914878E+03  0.12512765966E+03 0.  0.
          5    1    3    3  502    0 -0.18546772226E+03  0.10458626928E+03 -0.10715062011E+03  0.23840153421E+03  0.41800000000E+01 0.  1.
         -5    1    3    3    0  502 -0.12716405670E+03 -0.29062901756E+02 -0.96526848476E+02  0.16232761457E+03  0.41800000000E+01 0.  1.
        -11    1    1    2    0    0  0.11832068984E+03 -0.73774050388E+02  0.86301387491E+02  0.16398269921E+03  0.00000000000E+00 0.  1.
         11    1    1    2    0    0  0.19431108911E+03 -0.17493171407E+01  0.14123276646E+03  0.24022188448E+03  0.00000000000E+00 0. -1.
</event>
<event>
 7    1  0.5109948E-006  0.7857957E+02  0.7561462E-02  0.1333131E+00
          1   -1    0    0  501    0  0.00000000000E+00  0.00000000000E+00  0.15487112899E+03  0.15487112899E+03  0.00000000000E+00 0. -1.
         -1   -1    0    0    0  501 -0.00000000000E+00 -0.00000000000E+00 -0.82427079431E+02  0.82427079431E+02  0.00000000000E+00 0.  1.
         23    2    1    2    0    0 -0.86991255839E+01  0.13119441726E+02  0.23253630362E+02  0.12820361303E+03  0.12509052934E+03 0.  0.
          5    1    3    3  502    0 -0.36116420435E+02  0.28690296493E+02 -0.37523407754E+02  0.59607109201E+02  0.41800000000E+01 0.  1.
         -5    1    3    3    0  502  0.27417294851E+02 -0.15570854767E+02  0.60777038116E+02  0.68596503827E+02  0.41800000000E+01 0.  1.
        -11    1    1    2    0    0  0.41996867090E+02 -0.17416296499E+02 -0.45886273583E+01  0.45695948728E+02  0.00000000000E+00 0.  1.
         11    1    1    2    0    0 -0.33297741507E+02  0.42968547730E+01  0.53779046556E+02  0.63398646664E+02  0.00000000000E+00 0. -1.
</event>
<event>
 7    1  0.5109948E-006  0.1253488E+03  0.7561462E-02  0.1234525E+00
         -2   -1    0    0    0  501 -0.00000000000E+00  0.00000000000E+00  0.25110556373E+02  0.25110556373E+02  0.00000000000E+00 0.  1.
          2   -1    0    0  501    0  0.00000000000E+00 -0.00000000000E+00 -0.70732686894E+03  0.70732686894E+03  0.00000000000E+00 0. -1.
         23    2    1    2    0    0  0.12304954088E+02 -0.73819204815E+02 -0.40748925456E+03  0.43277681992E+03  0.12509035290E+03 0.  0.
          5    1    3    3  502    0 -0.36407562214E+02  0.15975295680E+02 -0.75926238370E+02  0.85807847726E+02  0.41800000000E+01 0.  1.
         -5    1    3    3    0  502  0.48712516302E+02 -0.89794500495E+02 -0.33156301619E+03  0.34696897219E+03  0.41800000000E+01 0.  1.
        -11    1    1    2    0    0  0.31246680546E+02  0.13400699240E+02 -0.15478871146E+03  0.15847863888E+03  0.00000000000E+00 0. -1.
         11    1    1    2    0    0 -0.43551634634E+02  0.60418505575E+02 -0.11993834655E+03  0.14118196651E+03  0.00000000000E+00 0.  1.
</event>
<event>
 7    1  0.5109948E-006  0.1707553E+03  0.7561462E-02  0.1177063E+00
         -2   -1    0    0    0  501 -0.00000000000E+00  0.00000000000E+00  0.24276377152E+02  0.24276377152E+02  0.00000000000E+00 0.  1.
          2   -1    0    0  501    0  0.00000000000E+00 -0.00000000000E+00 -0.12141302996E+04  0.12141302996E+04  0.00000000000E+00 0. -1.
         23    2    1    2    0    0 -0.76872562194E+02  0.10549606321E+03 -0.65939412019E+03  0.68373023881E+03  0.12509046146E+03 0.  0.
          5    1    3    3  502    0 -0.98318254906E+02  0.31045594000E+02 -0.38079956184E+03  0.39453274497E+03  0.41800000000E+01 0.  1.
         -5    1    3    3    0  502  0.21445692712E+02  0.74450469205E+02 -0.27859455835E+03  0.28919749384E+03  0.41800000000E+01 0.  1.
        -11    1    1    2    0    0  0.31874572764E+02 -0.11091943921E+03 -0.41141719306E+03  0.42729757445E+03  0.00000000000E+00 0. -1.
         11    1    1    2    0    0  0.44997989431E+02  0.54233760094E+01 -0.11904260917E+03  0.12737886346E+03  0.00000000000E+00 0.  1.
</event>
<event>
 7    1  0.5109948E-006  0.8799730E+02  0.7561462E-02  0.1307775E+00
          1   -1    0    0  501    0  0.00000000000E+00  0.00000000000E+00  0.28666964828E+02  0.28666964828E+02  0.00000000000E+00 0. -1.
         -1   -1    0    0    0  501 -0.00000000000E+00 -0.00000000000E+00 -0.46291612635E+03  0.46291612635E+03  0.00000000000E+00 0.  1.
         23    2    1    2    0    0 -0.28463243014E+02 -0.31713013185E+02 -0.26192967138E+03  0.29337821518E+03  0.12509097883E+03 0.  0.
          5    1    3    3  502    0 -0.64804354489E+02 -0.32341695484E+01 -0.22470695114E+03  0.23392466843E+03  0.41800000000E+01 0. -1.
         -5    1    3    3    0  502  0.36341111475E+02 -0.28478843636E+02 -0.37222720241E+02  0.59453546742E+02  0.41800000000E+01 0. -1.
        -11    1    1    2    0    0 -0.13674964443E+02  0.11559437240E+02  0.17367949156E+01  0.17990044425E+02  0.00000000000E+00 0. -1.
         11    1    1    2    0    0  0.42138207457E+02  0.20153575945E+02 -0.17405628506E+03  0.18021483158E+03  0.00000000000E+00 0.  1.
</event>
<event>
 7    1  0.5109948E-006  0.8379252E+02  0.7561462E-02  0.1318621E+00
          1   -1    0    0  501    0  0.00000000000E+00  0.00000000000E+00  0.41307589616E+02  0.41307589616E+02  0.00000000000E+00 0. -1.
         -1   -1    0    0    0  501 -0.00000000000E+00 -0.00000000000E+00 -0.30326552079E+03  0.30326552079E+03  0.00000000000E+00 0.  1.
         23    2    1    2    0    0 -0.11618198033E+02 -0.27825600961E+01 -0.18310613748E+03  0.22207693552E+03  0.12509029755E+03 0.  0.
          5    1    3    3  502    0  0.35181169488E+01  0.43693658948E+02 -0.16336686854E+03  0.16919727869E+03  0.41800000000E+01 0.  1.
         -5    1    3    3    0  502 -0.15136314982E+02 -0.46476219044E+02 -0.19739268934E+02  0.52879656825E+02  0.41800000000E+01 0.  1.
        -11    1    1    2    0    0 -0.40621704388E+01  0.36806753364E+02 -0.21006762594E+01  0.37089771671E+02  0.00000000000E+00 0. -1.
         11    1    1    2    0    0  0.15680368472E+02 -0.34024193268E+02 -0.76751117437E+02  0.85406403218E+02  0.00000000000E+00 0.  1.
</event>
<event>
 7    1  0.5109948E-006  0.1156989E+03  0.7561462E-02  0.1250366E+00
         -2   -1    0    0    0  501 -0.00000000000E+00  0.00000000000E+00  0.11330829764E+03  0.11330829764E+03  0.00000000000E+00 0.  1.
          2   -1    0    0  501    0  0.00000000000E+00 -0.00000000000E+00 -0.19206913005E+03  0.19206913005E+03  0.00000000000E+00 0. -1.
         23    2    1    2    0    0 -0.37083775559E+02  0.41352849359E+02  0.43291863691E+02  0.14355177630E+03  0.12509061698E+03 0.  0.
          5    1    3    3  502    0  0.27566150404E+02 -0.23693669882E+02 -0.92965998516E+01  0.37751580223E+02  0.41800000000E+01 0. -1.
         -5    1    3    3    0  502 -0.64649925963E+02  0.65046519241E+02  0.52588463543E+02  0.10580019608E+03  0.41800000000E+01 0. -1.
        -11    1    1    2    0    0  0.35807441483E+02  0.20418136040E+02 -0.69071187874E+02  0.80435701895E+02  0.00000000000E+00 0.  1.
         11    1    1    2    0    0  0.12763340755E+01 -0.61770985399E+02 -0.52981508226E+02  0.81389949501E+02  0.00000000000E+00 0. -1.
</event>
<event>
 7    1  0.5109948E-006  0.1024935E+03  0.7561462E-02  0.1275138E+00
          2   -1    0    0  501    0  0.00000000000E+00  0.00000000000E+00  0.22898863310E+03  0.22898863310E+03  0.00000000000E+00 0. -1.
         -2   -1    0    0    0  501 -0.00000000000E+00 -0.00000000000E+00 -0.97732486992E+02  0.97732486992E+02  0.00000000000E+00 0.  1.
         23    2    1    2    0    0  0.46239641797E+02  0.76685806128E+02  0.14743529938E+02  0.15453677540E+03  0.12508167707E+03 0.  0.
          5    1    3    3  502    0 -0.76819059904E+01 -0.93671718180E+00 -0.42873771426E+02  0.43766674479E+02  0.41800000000E+01 0.  1.
         -5    1    3    3    0  502  0.53921547787E+02  0.77622523310E+02  0.57617301363E+02  0.11077010092E+03  0.41800000000E+01 0.  1.
        -11    1    1    2    0    0  0.50827538328E+01 -0.35276361762E+02  0.97110867342E+02  0.10344455830E+03  0.00000000000E+00 0. -1.
         11    1    1    2    0    0 -0.51322395630E+02 -0.41409444366E+02  0.19401748824E+02  0.68739786393E+02  0.00000000000E+00 0.  1.
</event>
<event>
 7    1  0.5109948E-006  0.8972526E+02  0.7561462E-02  0.1303518E+00
         -3   -1    0    0    0  501 -0.00000000000E+00  0.00000000000E+00  0.10513449214E+03  0.10513449214E+03  0.00000000000E+00 0. -1.
          3   -1    0    0  501    0  0.00000000000E+00 -0.00000000000E+00 -0.13447864039E+03  0.13447864039E+03  0.00000000000E+00 0.  1.
         23    2    1    2    0    0 -0.16615497534E+02 -0.24229326627E+02  0.20308333510E+02  0.13008974307E+03  0.12509107808E+03 0.  0.
          5    1    3    3  502    0  0.32298961995E+02 -0.17257612358E+02  0.57366323833E+02  0.68186623618E+02  0.41800000000E+01 0. -1.
         -5    1    3    3    0  502 -0.48914459530E+02 -0.69717142685E+01 -0.37057990322E+02  0.61903119450E+02  0.41800000000E+01 0. -1.
        -11    1    1    2    0    0  0.48291273902E+02  0.34899943964E+02 -0.47193222406E+02  0.76008246031E+02  0.00000000000E+00 0.  1.
         11    1    1    2    0    0 -0.31675776368E+02 -0.10670617338E+02 -0.24592593538E+01  0.33515143434E+02  0.00000000000E+00 0. -1.
</event>
<event>
 7    1  0.5109948E-006  0.1176478E+03  0.7561462E-02  0.1247029E+00
          2   -1    0    0  501    0  0.00000000000E+00  0.00000000000E+00  0.16760277260E+03  0.16760277260E+03  0.00000000000E+00 0. -1.
         -2   -1    0    0    0  501 -0.00000000000E+00 -0.00000000000E+00 -0.17571248950E+03  0.17571248950E+03  0.00000000000E+00 0.  1.
         23    2    1    2    0    0  0.15857619301E+01 -0.31180401232E+02 -0.11681448024E+03  0.16491349108E+03  0.11214323289E+03 0.  0.
          5    1    3    3  502    0 -0.49671767575E+02 -0.22335128883E+02 -0.92317696606E+02  0.10726682611E+03  0.41800000000E+01 0. -1.
         -5    1    3    3    0  502  0.51257529505E+02 -0.88452723492E+01 -0.24496783636E+02  0.57646664972E+02  0.41800000000E+01 0.  1.
        -11    1    1    2    0    0 -0.58887158445E+02 -0.74892051756E+01  0.88163977871E+02  0.10628580629E+03  0.00000000000E+00 0. -1.
         11    1    1    2    0    0  0.57301396515E+02  0.38669606408E+02  0.20540785463E+02  0.72115964735E+02  0.00000000000E+00 0.  1.
</event>
<event>
 7    1  0.5109948E-006  0.2298019E+03  0.7561462E-02  0.1126779E+00
         -2   -1    0    0    0  501 -0.00000000000E+00  0.00000000000E+00  0.52219986587E+03  0.52219986587E+03  0.00000000000E+00 0.  1.
          2   -1    0    0  501    0  0.00000000000E+00 -0.00000000000E+00 -0.11914561739E+03  0.11914561739E+03  0.00000000000E+00 0. -1.
         23    2    1    2    0    0  0.19370768496E+03 -0.10061960655E+03  0.26949776656E+03  0.36867962316E+03  0.12509454792E+03 0.  0.
          5    1    3    3  502    0 -0.78704170618E+01 -0.61786999286E+01  0.66521588130E+02  0.67399657899E+02  0.41800000000E+01 0. -1.
         -5    1    3    3    0  502  0.20157810203E+03 -0.94440906626E+02  0.20297617843E+03  0.30127996527E+03  0.41800000000E+01 0. -1.
        -11    1    1    2    0    0 -0.86430672161E+02  0.78123643614E+02  0.26568828835E+02  0.11949672568E+03  0.00000000000E+00 0.  1.
         11    1    1    2    0    0 -0.10727701280E+03  0.22495962940E+02  0.10698765308E+03  0.15316913441E+03  0.00000000000E+00 0. -1.
</event>
<event>
 7    1  0.5109948E-006  0.1753077E+03  0.7561462E-02  0.1172423E+00
         -1   -1    0    0    0  501 -0.00000000000E+00  0.00000000000E+00  0.14245036134E+03  0.14245036134E+03  0.00000000000E+00 0.  1.
          1   -1    0    0  501    0  0.00000000000E+00 -0.00000000000E+00 -0.22252572467E+03  0.22252572467E+03  0.00000000000E+00 0. -1.
         23    2    1    2    0    0 -0.73455580777E+02 -0.12041919069E+03 -0.30541207678E+02  0.19098795742E+03  0.12508849139E+03 0.  0.
          5    1    3    3  502    0  0.34227217795E+02 -0.42153070319E+02 -0.53083521505E+00  0.54462261809E+02  0.41800000000E+01 0.  1.
         -5    1    3    3    0  502 -0.10768279857E+03 -0.78266120375E+02 -0.30010372463E+02  0.13652569561E+03  0.41800000000E+01 0.  1.
        -11    1    1    2    0    0 -0.10896545379E+02  0.55414467520E+02 -0.35166759098E+02  0.66529684030E+02  0.00000000000E+00 0. -1.
         11    1    1    2    0    0  0.84352126156E+02  0.65004723175E+02 -0.14367396554E+02  0.10745844455E+03  0.00000000000E+00 0.  1.
</event>
<event>
 7    1  0.5109948E-006  0.9964465E+02  0.7561462E-02  0.1281045E+00
         -1   -1    0    0    0  501 -0.00000000000E+00  0.00000000000E+00  0.20482731233E+02  0.20482731233E+02  0.00000000000E+00 0.  1.
          1   -1    0    0  501    0  0.00000000000E+00 -0.00000000000E+00 -0.62580080058E+03  0.62580080058E+03  0.00000000000E+00 0. -1.
         23    2    1    2    0    0 -0.28010722889E+02  0.31147791487E+02 -0.27528189319E+03  0.30349785861E+03  0.12073128821E+03 0.  0.
          5    1    3    3  502    0  0.13657586367E+02 -0.31096128994E+02 -0.25451395496E+02  0.42646744735E+02  0.41800000000E+01 0. -1.
         -5    1    3    3    0  502 -0.41668309256E+02  0.62243920481E+02 -0.24983049769E+03  0.26085111388E+03  0.41800000000E+01 0.  1.
        -11    1    1    2    0    0 -0.28214364791E+02 -0.11900180924E+02 -0.77019907588E+02  0.82883839507E+02  0.00000000000E+00 0.  1.
         11    1    1    2    0    0  0.56225087679E+02 -0.19247610563E+02 -0.25301626857E+03  0.25990183369E+03  0.00000000000E+00 0. -1.
</event>
<event>
 7    1  0.5109948E-006  0.1094219E+03  0.7561462E-02  0.1261644E+00
          1   -1    0    0  501    0  0.00000000000E+00  0.00000000000E+00  0.87194116984E+03  0.87194116984E+03  0.00000000000E+00 0. -1.
         -1   -1    0    0    0  501 -0.00000000000E+00 -0.00000000000E+00 -0.14795099560E+02  0.14795099560E+02  0.00000000000E+00 0.  1.
         23    2    1    2    0    0 -0.71959241243E+01 -0.26630928073E+02  0.40835476431E+03  0.42789248029E+03  0.12480934860E+03 0.  0.
          5    1    3    3  502    0  0.52981754116E+02 -0.37799476773E+02  0.24020415000E+03  0.24890032702E+03  0.41800000000E+01 0. -1.
         -5    1    3    3    0  502 -0.60177678240E+02  0.11168548699E+02  0.16815061431E+03  0.17899215327E+03  0.41800000000E+01 0.  1.
        -11    1    1    2    0    0  0.13070356978E+02 -0.31368219023E+02  0.11190964903E+03  0.11695541433E+03  0.00000000000E+00 0.  1.
         11    1    1    2    0    0 -0.58744328537E+01  0.57999147096E+02  0.33688165694E+03  0.34188837478E+03  0.00000000000E+00 0. -1.
</event>
<event>
 7    1  0.5109948E-006  0.1222354E+03  0.7561462E-02  0.1239454E+00
          2   -1    0    0  501    0  0.00000000000E+00  0.00000000000E+00  0.50838470738E+03  0.50838470738E+03  0.00000000000E+00 0. -1.
         -2   -1    0    0    0  501 -0.00000000000E+00 -0.00000000000E+00 -0.41847053002E+02  0.41847053002E+02  0.00000000000E+00 0.  1.
         23    2    1    2    0    0  0.35112098165E+02 -0.52360094401E+02  0.11467832533E+03  0.18103467750E+03  0.12509195511E+03 0.  0.
          5    1    3    3  502    0  0.15528065435E+01  0.37905638204E+02  0.57328278964E+02  0.68871275469E+02  0.41800000000E+01 0.  1.
         -5    1    3    3    0  502  0.33559291622E+02 -0.90265732605E+02  0.57350046371E+02  0.11216340203E+03  0.41800000000E+01 0.  1.
        -11    1    1    2    0    0 -0.60851365326E+02  0.11971623715E+02  0.23138599169E+03  0.23955309555E+03  0.00000000000E+00 0. -1.
         11    1    1    2    0    0  0.25739267161E+02  0.40388470686E+02  0.12047333736E+03  0.12964398733E+03  0.00000000000E+00 0.  1.
</event>
<event>
 7    1  0.5109948E-006  0.1467798E+03  0.7561462E-02  0.1204487E+00
          2   -1    0    0  501    0  0.00000000000E+00  0.00000000000E+00  0.89120149409E+03  0.89120149409E+03  0.00000000000E+00 0. -1.
         -2   -1    0    0    0  501 -0.00000000000E+00 -0.00000000000E+00 -0.27774299080E+02  0.27774299080E+02  0.00000000000E+00 0.  1.
         23    2    1    2    0    0  0.80456208935E+02 -0.61241662040E+02  0.31092910319E+03  0.35006773525E+03  0.12508704701E+03 0.  0.
          5    1    3    3  502    0  0.82050809589E+02 -0.95532855703E+02  0.23549908622E+03  0.26708828855E+03  0.41800000000E+01 0. -1.
         -5    1    3    3    0  502 -0.15946006540E+01  0.34291193663E+02  0.75430016969E+02  0.82979446697E+02  0.41800000000E+01 0. -1.
        -11    1    1    2    0    0 -0.62142188863E+00  0.52680288626E+02  0.16606812510E+03  0.17422462842E+03  0.00000000000E+00 0.  1.
         11    1    1    2    0    0 -0.79834787047E+02  0.85613734138E+01  0.38642996673E+03  0.39468342950E+03  0.00000000000E+00 0. -1.
</event>
<event>
 7    1  0.5109948E-006  0.1172046E+03  0.7561462E-02  0.1247781E+00
         -1   -1    0    0    0  501 -0.00000000000E+00  0.00000000000E+00  0.44735977007E+03  0.44735977007E+03  0.00000000000E+00 0.  1.
          1   -1    0    0  501    0  0.00000000000E+00 -0.00000000000E+00 -0.42007727627E+02  0.42007727627E+02  0.00000000000E+00 0. -1.
         23    2    1    2    0    0  0.18968615861E+02  0.78898895181E+02  0.26615099171E+03  0.30507048760E+03  0.12508720144E+03 0.  0.
          5    1    3    3  502    0 -0.25403731337E+02 -0.21801271809E+02  0.10173635493E+03  0.10718396957E+03  0.41800000000E+01 0.  1.
         -5    1    3    3    0  502  0.44372347199E+02  0.10070016699E+03  0.16441463678E+03  0.19788651802E+03  0.41800000000E+01 0.  1.
        -11    1    1    2    0    0 -0.49799173526E+01 -0.76127741348E+02  0.14872353082E+03  0.16714939784E+03  0.00000000000E+00 0.  1.
         11    1    1    2    0    0 -0.13988698509E+02 -0.27711538329E+01 -0.95224800817E+01  0.17147612266E+02  0.00000000000E+00 0. -1.
</event>
<event>
 7    1  0.5109948E-006  0.1638694E+03  0.7561462E-02  0.1184396E+00
          1   -1    0    0  501    0  0.00000000000E+00  0.00000000000E+00  0.10499409837E+03  0.10499409837E+03  0.00000000000E+00 0. -1.
         -1   -1    0    0    0  501 -0.00000000000E+00 -0.00000000000E+00 -0.30861719870E+03  0.30861719870E+03  0.00000000000E+00 0.  1.
         23    2    1    2    0    0 -0.95200079274E+02 -0.10694649526E+03 -0.12148265052E+03  0.22562663635E+03  0.12509491080E+03 0.  0.
          5    1    3    3  502    0 -0.10044161099E+02 -0.97004374763E+02 -0.93957646599E+02  0.13548522299E+03  0.41800000000E+01 0.  1.
         -5    1    3    3    0  502 -0.85155918175E+02 -0.99421204991E+01 -0.27525003924E+02  0.90141413353E+02  0.41800000000E+01 0.  1.
        -11    1    1    2    0    0  0.10989296994E+02  0.22452991691E+02 -0.62202710152E+02  0.67037889545E+02  0.00000000000E+00 0.  1.
         11    1    1    2    0    0  0.84210782280E+02  0.84493503571E+02 -0.19937739654E+02  0.12094677119E+03  0.00000000000E+00 0. -1.
</event>
<event>
 7    1  0.5109948E-006  0.8464102E+02  0.7561462E-02  0.1316374E+00
          4   -1    0    0  501    0  0.00000000000E+00  0.00000000000E+00  0.93317021051E+02  0.93317021051E+02  0.00000000000E+00 0. -1.
         -4   -1    0    0    0  501 -0.00000000000E+00 -0.00000000000E+00 -0.15872756850E+03  0.15872756850E+03  0.00000000000E+00 0.  1.
         23    2    1    2    0    0 -0.19132962247E+02  0.23339708506E+02 -0.88297245687E+02  0.15605743559E+03  0.12508679934E+03 0.  0.
          5    1    3    3  502    0 -0.45778764483E+02  0.11856506365E+02  0.14118820513E+02  0.49528633268E+02  0.41800000000E+01 0.  1.
         -5    1    3    3    0  502  0.26645802236E+02  0.11483202141E+02 -0.10241606620E+03  0.10652880232E+03  0.41800000000E+01 0.  1.
        -11    1    1    2    0    0  0.53722443338E+02 -0.67921377451E+01  0.19255080987E+02  0.57471664298E+02  0.00000000000E+00 0. -1.
         11    1    1    2    0    0 -0.34589481091E+02 -0.16547570761E+02  0.36316172490E+01  0.38515489665E+02  0.00000000000E+00 0.  1.
</event>
<event>
 7    1  0.5109948E-006  0.8883592E+02  0.7561462E-02  0.1305695E+00
          2   -1    0    0  501    0  0.00000000000E+00  0.00000000000E+00  0.22750370858E+03  0.22750370858E+03  0.00000000000E+00 0. -1.
         -2   -1    0    0    0  501 -0.00000000000E+00 -0.00000000000E+00 -0.58728633680E+02  0.58728633680E+02  0.00000000000E+00 0.  1.
         23    2    1    2    0    0  0.18325096758E+02  0.83686248263E+01  0.48631883112E+02  0.13570446763E+03  0.12507917264E+03 0.  0.
          5    1    3    3  502    0  0.13734465567E+01 -0.37723732976E+02  0.71812582716E+02  0.81237219434E+02  0.41800000000E+01 0. -1.
         -5    1    3    3    0  502  0.16951650201E+02  0.46092357802E+02 -0.23180699603E+02  0.54467248199E+02  0.41800000000E+01 0. -1.
        -11    1    1    2    0    0  0.35197748942E+02  0.41360066687E+01  0.52987025080E+02  0.63746473695E+02  0.00000000000E+00 0. -1.
         11    1    1    2    0    0 -0.53522845701E+02 -0.12504631495E+02  0.67156166712E+02  0.86781400934E+02  0.00000000000E+00 0.  1.
</event>
<event>
 7    1  0.5109948E-006  0.1202348E+03  0.7561462E-02  0.1242710E+00
         -2   -1    0    0    0  501 -0.00000000000E+00  0.00000000000E+00  0.17169015810E+02  0.17169015810E+02  0.00000000000E+00 0.  1.
          2   -1    0    0  501    0  0.00000000000E+00 -0.00000000000E+00 -0.94863148992E+03  0.94863148992E+03  0.00000000000E+00 0. -1.
         23    2    1    2    0    0  0.53728458931E+02 -0.39704947067E+02 -0.55686697829E+03  0.57464052967E+03  0.12509067399E+03 0.  0.
          5    1    3    3  502    0  0.79474184280E+02 -0.58450295988E+02 -0.30140532860E+03  0.31716750713E+03  0.41800000000E+01 0.  1.
         -5    1    3    3    0  502 -0.25745725349E+02  0.18745348922E+02 -0.25546164969E+03  0.25747302255E+03  0.41800000000E+01 0.  1.
        -11    1    1    2    0    0  0.24006672099E+02  0.52279746471E+01 -0.12737157576E+03  0.12971958347E+03  0.00000000000E+00 0. -1.
         11    1    1    2    0    0 -0.77735131030E+02  0.34476972419E+02 -0.24722392006E+03  0.26144039258E+03  0.00000000000E+00 0.  1.
</event>
<event>
 7    1  0.5109948E-006  0.1391096E+03  0.7561462E-02  0.1214532E+00
         -2   -1    0    0    0  501 -0.00000000000E+00  0.00000000000E+00  0.45358335007E+02  0.45358335007E+02  0.00000000000E+00 0.  1.
          2   -1    0    0  501    0  0.00000000000E+00 -0.00000000000E+00 -0.51480488334E+03  0.51480488334E+03  0.00000000000E+00 0. -1.
         23    2    1    2    0    0 -0.91287979668E+02  0.21793489514E+02 -0.15700546704E+03  0.22160404683E+03  0.12509670449E+03 0.  0.
          5    1    3    3  502    0 -0.97299808241E+02  0.60991218088E+02 -0.10190295732E+03  0.15358667416E+03  0.41800000000E+01 0.  1.
         -5    1    3    3    0  502  0.60118285735E+01 -0.39197728574E+02 -0.55102509715E+02  0.68017372671E+02  0.41800000000E+01 0.  1.
        -11    1    1    2    0    0  0.82681962634E+02  0.16389915184E+02 -0.25862509411E+03  0.27201447676E+03  0.00000000000E+00 0. -1.
         11    1    1    2    0    0  0.86060170333E+01 -0.38183404698E+02 -0.53815987187E+02  0.66544694758E+02  0.00000000000E+00 0.  1.
</event>
<event>
 7    1  0.5109948E-006  0.8937536E+02  0.7561462E-02  0.1304371E+00
         -2   -1    0    0    0  501 -0.00000000000E+00  0.00000000000E+00  0.11007412647E+03  0.11007412647E+03  0.00000000000E+00 0.  1.
          2   -1    0    0  501    0  0.00000000000E+00 -0.00000000000E+00 -0.12843166009E+03  0.12843166009E+03  0.00000000000E+00 0. -1.
         23    2    1    2    0    0  0.41288220288E+02  0.30385676819E+02 -0.21778395943E+01  0.13518766305E+03  0.12507179844E+03 0.  0.
          5    1    3    3  502    0  0.45503879180E+02 -0.10961899951E+02  0.49822635148E+02  0.68487470709E+02  0.41800000000E+01 0.  1.
         -5    1    3    3    0  502 -0.42156588919E+01  0.41347576770E+02 -0.52000474743E+02  0.66700192340E+02  0.41800000000E+01 0.  1.
        -11    1    1    2    0    0 -0.59476021316E+01  0.24221940604E+02  0.17112419302E+02  0.30247500262E+02  0.00000000000E+00 0.  1.
         11    1    1    2    0    0 -0.35340618157E+02 -0.54607617423E+02 -0.33292113333E+02  0.73070623252E+02  0.00000000000E+00 0. -1.
</event>
<event>
 7    1  0.5109948E-006  0.1497456E+03  0.7561462E-02  0.1200786E+00
         -2   -1    0    0    0  501 -0.00000000000E+00  0.00000000000E+00  0.30200847334E+03  0.30200847334E+03  0.00000000000E+00 0.  1.
          2   -1    0    0  501    0  0.00000000000E+00 -0.00000000000E+00 -0.12000195087E+03  0.12000195087E+03  0.00000000000E+00 0. -1.
         23    2    1    2    0    0  0.42498809127E+02 -0.13801559208E+03  0.14890672721E+03  0.24222775095E+03  0.12508644006E+03 0.  0.
          5    1    3    3  502    0  0.41165978063E+02 -0.61993328003E+02 -0.49902071995E+00  0.74535440486E+02  0.41800000000E+01 0.  1.
         -5    1    3    3    0  502  0.13328310644E+01 -0.76022264077E+02  0.14940574793E+03  0.16769231046E+03  0.41800000000E+01 0.  1.
        -11    1    1    2    0    0 -0.40750236545E+02  0.71707938416E+02 -0.30452781896E+02  0.87920316967E+02  0.00000000000E+00 0. -1.
         11    1    1    2    0    0 -0.17485725822E+01  0.66307653664E+02  0.63552577155E+02  0.91862356291E+02  0.00000000000E+00 0.  1.
</event>
<event>
 6    1  0.5109948E-006  0.1515192E+03  0.7561462E-02  0.1198619E+00
          1   -1    0    0  501    0  0.00000000000E+00  0.00000000000E+00  0.67082730870E+03  0.67082730870E+03  0.00000000000E+00 0. -1.
         -1   -1    0    0    0  501 -0.00000000000E+00 -0.00000000000E+00 -0.41884728260E+02  0.41884728260E+02  0.00000000000E+00 0.  1.
          5    1    1    2  502    0  0.18287358727E+02 -0.47234165737E+02  0.35845268537E+02  0.62192037903E+02  0.41800000000E+01 0. -1.
         -5    1    1    2    0  502 -0.11530008098E+03  0.25438235339E+01  0.17552115284E+03  0.21006124632E+03  0.41800000000E+01 0.  1.
        -11    1    1    2    0    0  0.87307520145E+02  0.68582684827E+02  0.29502370613E+03  0.31522242133E+03  0.00000000000E+00 0. -1.
         11    1    1    2    0    0  0.97052021045E+01 -0.23892342623E+02  0.12255245293E+03  0.12523633140E+03  0.00000000000E+00 0.  1.
</event>
<event>
 7    1  0.5109948E-006  0.1019265E+03  0.7561462E-02  0.1276296E+00
         -1   -1    0    0    0  501 -0.00000000000E+00  0.00000000000E+00  0.49103148161E+03  0.49103148161E+03  0.00000000000E+00 0.  1.
          1   -1    0    0  501    0  0.00000000000E+00 -0.00000000000E+00 -0.47979231785E+02  0.47979231785E+02  0.00000000000E+00 0. -1.
         23    2    1    2    0    0  0.35713323723E+02 -0.19026040893E+02  0.41725676346E+03  0.43748017482E+03  0.12509302531E+03 0.  0.
          5    1    3    3  502    0 -0.46916624702E+02 -0.85015725026E+01  0.16420053249E+03  0.17103430556E+03  0.41800000000E+01 0.  1.
         -5    1    3    3    0  502  0.82629948425E+02 -0.10524468390E+02  0.25305623097E+03  0.26644586926E+03  0.41800000000E+01 0.  1.
        -11    1    1    2    0    0 -0.47968870761E+02  0.29628856918E+02  0.47996435666E+02  0.74044173039E+02  0.00000000000E+00 0.  1.
         11    1    1    2    0    0  0.12255547039E+02 -0.10602816025E+02 -0.22200949298E+02  0.27486365541E+02  0.00000000000E+00 0. -1.
</event>
<event>
 7    1  0.5109948E-006  0.1375549E+03  0.7561462E-02  0.1216657E+00
         -1   -1    0    0    0  501 -0.00000000000E+00  0.00000000000E+00  0.10313606715E+04  0.10313606715E+04  0.00000000000E+00 0.  1.
          1   -1    0    0  501    0  0.00000000000E+00 -0.00000000000E+00 -0.28951322531E+02  0.28951322531E+02  0.00000000000E+00 0. -1.
         23    2    1    2    0    0  0.77686972342E+02  0.69804087844E+02  0.78957698738E+03  0.80621795736E+03  0.12509076471E+03 0.  0.
          5    1    3    3  502    0  0.16360617386E+02  0.72847402086E+02  0.20147977957E+03  0.21490925473E+03  0.41800000000E+01 0.  1.
         -5    1    3    3    0  502  0.61326354956E+02 -0.30433142417E+01  0.58809720781E+03  0.59130870263E+03  0.41800000000E+01 0.  1.
        -11    1    1    2    0    0 -0.94888430755E+02 -0.37193131358E+02  0.15796966302E+03  0.18799350453E+03  0.00000000000E+00 0.  1.
         11    1    1    2    0    0  0.17201458413E+02 -0.32610956486E+02  0.54862698548E+02  0.66100532120E+02  0.00000000000E+00 0. -1.
</event>
<event>
 7    1  0.5109948E-006  0.2449902E+03  0.7561462E-02  0.1116512E+00
          3   -1    0    0  501    0  0.00000000000E+00  0.00000000000E+00  0.10068643031E+03  0.10068643031E+03  0.00000000000E+00 0. -1.
         -3   -1    0    0    0  501 -0.00000000000E+00 -0.00000000000E+00 -0.80507793980E+03  0.80507793980E+03  0.00000000000E+00 0.  1.
         23    2    1    2    0    0  0.15603311152E+03  0.17319609098E+03 -0.55304451853E+03  0.61306531271E+03  0.12509044871E+03 0.  0.
          5    1    3    3  502    0  0.71115367208E+02  0.11422163207E+02 -0.90592149597E+02  0.11581136056E+03  0.41800000000E+01 0.  1.
         -5    1    3    3    0  502  0.84917744312E+02  0.16177392777E+03 -0.46245236893E+03  0.49725395216E+03  0.41800000000E+01 0.  1.
        -11    1    1    2    0    0 -0.53288822425E+02 -0.38852059715E+02 -0.31438316646E+00  0.65949071080E+02  0.00000000000E+00 0. -1.
         11    1    1    2    0    0 -0.10274428910E+03 -0.13434403126E+03 -0.15103260780E+03  0.22674998632E+03  0.00000000000E+00 0.  1.
</event>
<event>
 7    1  0.5109948E-006  0.1256062E+03  0.7561462E-02  0.1234125E+00
          2   -1    0    0  501    0  0.00000000000E+00  0.00000000000E+00  0.10015137700E+04  0.10015137700E+04  0.00000000000E+00 0. -1.
         -2   -1    0    0    0  501 -0.00000000000E+00 -0.00000000000E+00 -0.22731476416E+02  0.22731476416E+02  0.00000000000E+00 0.  1.
         23    2    1    2    0    0 -0.92646001821E+02  0.43551188102E+02  0.57710467033E+03  0.59972834696E+03  0.12706022982E+03 0.  0.
          5    1    3    3  502    0 -0.70562371798E+02 -0.15354895788E+02  0.13506521258E+03  0.15321522505E+03  0.41800000000E+01 0. -1.
         -5    1    3    3    0  502 -0.22083630022E+02  0.58906083890E+02  0.44203945775E+03  0.44651312192E+03  0.41800000000E+01 0. -1.
        -11    1    1    2    0    0  0.24496619552E+02  0.12581876120E+02  0.23602104803E+02  0.36269096037E+02  0.00000000000E+00 0.  1.
         11    1    1    2    0    0  0.68149382268E+02 -0.56133064222E+02  0.37807551849E+03  0.38824780345E+03  0.00000000000E+00 0. -1.
</event>
<event>
 7    1  0.5109948E-006  0.1158251E+03  0.7561462E-02  0.1250148E+00
          2   -1    0    0  501    0  0.00000000000E+00  0.00000000000E+00  0.31999577724E+03  0.31999577724E+03  0.00000000000E+00 0. -1.
         -2   -1    0    0    0  501 -0.00000000000E+00 -0.00000000000E+00 -0.62466102352E+02  0.62466102352E+02  0.00000000000E+00 0.  1.
         23    2    1    2    0    0 -0.56540731843E+02  0.64845602234E+02  0.10375715211E+03  0.18388633220E+03  0.12508728980E+03 0.  0.
          5    1    3    3  502    0 -0.82087459690E+02  0.51857196664E+02  0.11695062502E+03  0.15206064901E+03  0.41800000000E+01 0.  1.
         -5    1    3    3    0  502  0.25546727847E+02  0.12988405570E+02 -0.13193472910E+02  0.31825683188E+02  0.41800000000E+01 0.  1.
        -11    1    1    2    0    0  0.45483428268E+02 -0.62947074507E+01  0.16264326539E+02  0.48712358870E+02  0.00000000000E+00 0.  1.
         11    1    1    2    0    0  0.11057303575E+02 -0.58550894783E+02  0.13750819623E+03  0.14986318852E+03  0.00000000000E+00 0. -1.
</event>
<event>
 6    1  0.5109948E-006  0.2242822E+03  0.7561462E-02  0.1130730E+00
          1   -1    0    0  501    0  0.00000000000E+00  0.00000000000E+00  0.15853952685E+04  0.15853952685E+04  0.00000000000E+00 0. -1.
         -1   -1    0    0    0  501 -0.00000000000E+00 -0.00000000000E+00 -0.34515888574E+02  0.34515888574E+02  0.00000000000E+00 0.  1.
          5    1    1    2  502    0  0.14143106682E+03 -0.24365188303E+02  0.49580406346E+03  0.51617395401E+03  0.41800000000E+01 0. -1.
         -5    1    1    2    0  502 -0.13891400695E+03  0.11976122855E+03  0.52457587883E+03  0.55573121042E+03  0.41800000000E+01 0.  1.
        -11    1    1    2    0    0  0.31752251014E+02 -0.17103424114E+02  0.61597582579E+02  0.71379231857E+02  0.00000000000E+00 0.  1.
         11    1    1    2    0    0 -0.34269310881E+02 -0.78292616135E+02  0.46890185504E+03  0.47662676076E+03  0.00000000000E+00 0. -1.
</event>
<event>
 7    1  0.5109948E-006  0.9835171E+02  0.7561462E-02  0.1283801E+00
         -1   -1    0    0    0  501 -0.00000000000E+00  0.00000000000E+00  0.59771381008E+02  0.59771381008E+02  0.00000000000E+00 0.  1.
          1   -1    0    0  501    0  0.00000000000E+00 -0.00000000000E+00 -0.32590414697E+03  0.32590414697E+03  0.00000000000E+00 0. -1.
         23    2    1    2    0    0 -0.63076295689E+02  0.33879937087E+01 -0.61281484313E+02  0.15295080943E+03  0.12509369372E+03 0.  0.
          5    1    3    3  502    0 -0.68780475600E+02 -0.11436308123E+02  0.17881041478E+02  0.72102337075E+02  0.41800000000E+01 0.  1.
         -5    1    3    3    0  502  0.57041799113E+01  0.14824301831E+02 -0.79162525791E+02  0.80848472359E+02  0.41800000000E+01 0.  1.
        -11    1    1    2    0    0  0.71182661744E+02  0.29132330931E+02 -0.14122462625E+03  0.16081063117E+03  0.00000000000E+00 0. -1.
         11    1    1    2    0    0 -0.81063660548E+01 -0.32520324640E+02 -0.63626655399E+02  0.71914087372E+02  0.00000000000E+00 0.  1.
</event>
<event>
 7    1  0.5109948E-006  0.1292345E+03  0.7561462E-02  0.1228596E+00
          2   -1    0    0  501    0  0.00000000000E+00  0.00000000000E+00  0.49303074012E+03  0.49303074012E+03  0.00000000000E+00 0. -1.
         -2   -1    0    0    0  501 -0.00000000000E+00 -0.00000000000E+00 -0.47378249313E+02  0.47378249313E+02  0.00000000000E+00 0.  1.
         23    2    1    2    0    0  0.34331727228E+02 -0.96404880547E+02  0.16968239042E+03  0.23433422124E+03  0.12509134718E+03 0.  0.
          5    1    3    3  502    0  0.81400342991E+01 -0.11014900521E+03  0.71333206511E+02  0.13154832670E+03  0.41800000000E+01 0. -1.
         -5    1    3    3    0  502  0.26191692929E+02  0.13744124663E+02  0.98349183908E+02  0.10278589454E+03  0.41800000000E+01 0. -1.
        -11    1    1    2    0    0 -0.19308637908E+02 -0.11692055884E+01  0.88067746539E+01  0.21254407057E+02  0.00000000000E+00 0.  1.
         11    1    1    2    0    0 -0.15023089321E+02  0.97574086136E+02  0.26716332573E+03  0.28482036113E+03  0.00000000000E+00 0. -1.
</event>
<event>
 7    1  0.5109948E-006  0.1114523E+03  0.7561462E-02  0.1257904E+00
          4   -1    0    0  501    0  0.00000000000E+00  0.00000000000E+00  0.10439099879E+03  0.10439099879E+03  0.00000000000E+00 0. -1.
         -4   -1    0    0    0  501 -0.00000000000E+00 -0.00000000000E+00 -0.16594982161E+03  0.16594982161E+03  0.00000000000E+00 0.  1.
         23    2    1    2    0    0 -0.31828483231E+02 -0.42562672575E+01 -0.10460301547E+03  0.16284884286E+03  0.12061006019E+03 0.  0.
          5    1    3    3  502    0 -0.70398381408E+02  0.26102410154E+02 -0.57165632137E+02  0.94459778839E+02  0.41800000000E+01 0. -1.
         -5    1    3    3    0  502  0.38569898176E+02 -0.30358677412E+02 -0.47437383334E+02  0.68389064017E+02  0.41800000000E+01 0.  1.
        -11    1    1    2    0    0  0.40792238179E+01 -0.43242257233E+02  0.17246585484E+02  0.46733045999E+02  0.00000000000E+00 0.  1.
         11    1    1    2    0    0  0.27749259414E+02  0.47498524490E+02  0.25797607173E+02  0.60758931546E+02  0.00000000000E+00 0. -1.
</event>
<event>
 7    1  0.5109948E-006  0.2277831E+03  0.7561462E-02  0.1128210E+00
         -1   -1    0    0    0  501 -0.00000000000E+00  0.00000000000E+00  0.35877012160E+03  0.35877012160E+03  0.00000000000E+00 0.  1.
          1   -1    0    0  501    0  0.00000000000E+00 -0.00000000000E+00 -0.18590104429E+03  0.18590104429E+03  0.00000000000E+00 0. -1.
         23    2    1    2    0    0  0.20955270672E+03  0.27754429260E+02  0.19370634177E+03  0.31281523946E+03  0.12509429227E+03 0.  0.
          5    1    3    3  502    0  0.18334941601E+03  0.67742923086E+02  0.13810629780E+03  0.23936777952E+03  0.41800000000E+01 0. -1.
         -5    1    3    3    0  502  0.26203290714E+02 -0.39988493826E+02  0.55600043965E+02  0.73447459939E+02  0.41800000000E+01 0. -1.
        -11    1    1    2    0    0 -0.13668038433E+03 -0.26251603649E+02 -0.57111415621E+02  0.15044064594E+03  0.00000000000E+00 0.  1.
         11    1    1    2    0    0 -0.72872322389E+02 -0.15028256113E+01  0.36274151174E+02  0.81415280497E+02  0.00000000000E+00 0. -1.
</event>
<event>
 7    1  0.5109948E-006  0.2010196E+03  0.7561462E-02  0.1148882E+00
          1   -1    0    0  501    0  0.00000000000E+00  0.00000000000E+00  0.16167909784E+03  0.16167909784E+03  0.00000000000E+00 0. -1.
         -1   -1    0    0    0  501 -0.00000000000E+00 -0.00000000000E+00 -0.27424682278E+03  0.27424682278E+03  0.00000000000E+00 0.  1.
         23    2    1    2    0    0  0.12717646427E+03  0.11277612531E+03 -0.11868614875E+03  0.24212702762E+03  0.12508712202E+03 0.  0.
          5    1    3    3  502    0  0.50453338131E+02  0.12215204392E+03 -0.88139232202E+02  0.15891084864E+03  0.41800000000E+01 0.  1.
         -5    1    3    3    0  502  0.76723126134E+02 -0.93759186097E+01 -0.30546916546E+02  0.83216178980E+02  0.41800000000E+01 0.  1.
        -11    1    1    2    0    0 -0.69278091725E+02 -0.11523248578E+03  0.14545693481E+02  0.13523888853E+03  0.00000000000E+00 0.  1.
         11    1    1    2    0    0 -0.57898372540E+02  0.24563604684E+01 -0.84272696709E+01  0.58560004471E+02  0.00000000000E+00 0. -1.
</event>
<event>
 7    1  0.5109948E-006  0.1412941E+03  0.7561462E-02  0.1211598E+00
         -1   -1    0    0    0  501 -0.00000000000E+00  0.00000000000E+00  0.28267188984E+02  0.28267188984E+02  0.00000000000E+00 0.  1.
          1   -1    0    0  501    0  0.00000000000E+00 -0.00000000000E+00 -0.80815522464E+03  0.80815522464E+03  0.00000000000E+00 0. -1.
         23    2    1    2    0    0 -0.95033803999E+02  0.11585450853E+02 -0.30500455437E+03  0.34327940803E+03  0.12508927698E+03 0.  0.
          5    1    3    3  502    0 -0.15242182807E+02 -0.47794385873E+02 -0.57032267175E+02  0.76070883765E+02  0.41800000000E+01 0.  1.
         -5    1    3    3    0  502 -0.79791621192E+02  0.59379836727E+02 -0.24797228720E+03  0.26720852426E+03  0.41800000000E+01 0.  1.
        -11    1    1    2    0    0  0.18061894046E+02 -0.45223828260E+02 -0.18912271439E+03  0.19529164795E+03  0.00000000000E+00 0.  1.
         11    1    1    2    0    0  0.76971909953E+02  0.33638377407E+02 -0.28576076689E+03  0.29785135764E+03  0.00000000000E+00 0. -1.
</event>
<event>
 7    1  0.5109948E-006  0.1548737E+03  0.7561462E-02  0.1194609E+00
          1   -1    0    0  501    0  0.00000000000E+00  0.00000000000E+00  0.80546159629E+03  0.80546159629E+03  0.00000000000E+00 0. -1.
         -1   -1    0    0    0  501 -0.00000000000E+00 -0.00000000000E+00 -0.39019036342E+02  0.39019036342E+02  0.00000000000E+00 0.  1.
         23    2    1    2    0    0 -0.27245186735E+02 -0.12921982664E+03  0.51478598247E+03  0.54598202130E+03  0.12510673856E+03 0.  0.
          5    1    3    3  502    0  0.81559157929E+01 -0.12011087871E+03  0.48159221194E+03  0.49642892054E+03  0.41800000000E+01 0.  1.
         -5    1    3    3    0  502 -0.35401102527E+02 -0.91089479317E+01  0.33193770534E+02  0.49553100759E+02  0.41800000000E+01 0.  1.
        -11    1    1    2    0    0 -0.26682650030E+02  0.36164839920E+02  0.36271696007E+02  0.57753747846E+02  0.00000000000E+00 0.  1.
         11    1    1    2    0    0  0.53927836765E+02  0.93054986719E+02  0.21538488147E+03  0.24074486349E+03  0.00000000000E+00 0. -1.
</event>
<event>
 6    1  0.5109948E-006  0.1584305E+03  0.7561462E-02  0.1190480E+00
          2   -1    0    0  501    0  0.00000000000E+00  0.00000000000E+00  0.91889347533E+03  0.91889347533E+03  0.00000000000E+00 0. -1.
         -2   -1    0    0    0  501 -0.00000000000E+00 -0.00000000000E+00 -0.34688993888E+02  0.34688993888E+02  0.00000000000E+00 0.  1.
          5    1    1    2  502    0 -0.41597518319E+02  0.28818742524E+02  0.82758928121E+02  0.97094727121E+02  0.41800000000E+01 0. -1.
         -5    1    1    2    0  502  0.13286697549E+03  0.69511138306E+01  0.20035796559E+03  0.24054674792E+03  0.41800000000E+01 0.  1.
        -11    1    1    2    0    0 -0.10930511107E+03 -0.25596028818E+02  0.53633360720E+03  0.54795666089E+03  0.00000000000E+00 0. -1.
         11    1    1    2    0    0  0.18035653900E+02 -0.10173827537E+02  0.64753980526E+02  0.67984333285E+02  0.00000000000E+00 0.  1.
</event>
<event>
 7    1  0.5109948E-006  0.7195554E+02  0.7561462E-02  0.1353567E+00
          4   -1    0    0  501    0  0.00000000000E+00  0.00000000000E+00  0.60566410641E+02  0.60566410641E+02  0.00000000000E+00 0. -1.
         -4   -1    0    0    0  501 -0.00000000000E+00 -0.00000000000E+00 -0.22381974314E+03  0.22381974314E+03  0.00000000000E+00 0.  1.
         23    2    1    2    0    0 -0.37246847034E+02  0.22968616383E+01 -0.12148137613E+03  0.17828196366E+03  0.12503651720E+03 0.  0.
          5    1    3    3  502    0 -0.25828659028E+02 -0.28522610433E+02  0.12178964193E+02  0.40576575779E+02  0.41800000000E+01 0.  1.
         -5    1    3    3    0  502 -0.11418188006E+02  0.30819472071E+02 -0.13366034033E+03  0.13770538788E+03  0.41800000000E+01 0.  1.
        -11    1    1    2    0    0 -0.82998878445E+01  0.19785944106E+02 -0.50380937654E+02  0.54759570864E+02  0.00000000000E+00 0. -1.
         11    1    1    2    0    0  0.45546734879E+02 -0.22082805744E+02  0.86089812873E+01  0.51344619255E+02  0.00000000000E+00 0.  1.
</event>
<event>
 7    1  0.5109948E-006  0.1133476E+03  0.7561462E-02  0.1254493E+00
         -2   -1    0    0    0  501 -0.00000000000E+00  0.00000000000E+00  0.12475481510E+03  0.12475481510E+03  0.00000000000E+00 0.  1.
          2   -1    0    0  501    0  0.00000000000E+00 -0.00000000000E+00 -0.20237997485E+03  0.20237997485E+03  0.00000000000E+00 0. -1.
         23    2    1    2    0    0 -0.35384355057E+02  0.74287800904E+02  0.38955901721E+02  0.15471433367E+03  0.12509289675E+03 0.  0.
          5    1    3    3  502    0  0.31114880680E+02 -0.13522173686E+02  0.27540354765E+02  0.43896793978E+02  0.41800000000E+01 0. -1.
         -5    1    3    3    0  502 -0.66499235737E+02  0.87809974591E+02  0.11415546956E+02  0.11081753969E+03  0.41800000000E+01 0. -1.
        -11    1    1    2    0    0  0.26947338096E+02 -0.56488491591E+02 -0.92139347076E+01  0.63261404548E+02  0.00000000000E+00 0.  1.
         11    1    1    2    0    0  0.84370169609E+01 -0.17799309314E+02 -0.10736712675E+03  0.10915905173E+03  0.00000000000E+00 0. -1.
</event>
<event>
 7    1  0.5109948E-006  0.1115843E+03  0.7561462E-02  0.1257664E+00
          1   -1    0    0  501    0  0.00000000000E+00  0.00000000000E+00  0.85559625323E+02  0.85559625323E+02  0.00000000000E+00 0. -1.
         -1   -1    0    0    0  501 -0.00000000000E+00 -0.00000000000E+00 -0.14698972445E+03  0.14698972445E+03  0.00000000000E+00 0.  1.
         23    2    1    2    0    0 -0.42855033074E+02  0.17287973327E+02 -0.33309932451E+02  0.12814627781E+03  0.11478888899E+03 0.  0.
          5    1    3    3  502    0 -0.36768770852E+02 -0.46457224480E+02 -0.19422709682E+02  0.62489441250E+02  0.41800000000E+01 0. -1.
         -5    1    3    3    0  502 -0.60862622223E+01  0.63745197807E+02 -0.13887222769E+02  0.65656836563E+02  0.41800000000E+01 0.  1.
        -11    1    1    2    0    0 -0.27351075088E+02 -0.22061102878E+00 -0.14618364073E+01  0.27391001138E+02  0.00000000000E+00 0.  1.
         11    1    1    2    0    0  0.70206108162E+02 -0.17067362298E+02 -0.26658330265E+02  0.77012070817E+02  0.00000000000E+00 0. -1.
</event>
<event>
 7    1  0.5109948E-006  0.8308422E+02  0.7561462E-02  0.1320520E+00
          1   -1    0    0  501    0  0.00000000000E+00  0.00000000000E+00  0.28779278845E+03  0.28779278845E+03  0.00000000000E+00 0. -1.
         -1   -1    0    0    0  501 -0.00000000000E+00 -0.00000000000E+00 -0.52517960727E+02  0.52517960727E+02  0.00000000000E+00 0.  1.
         23    2    1    2    0    0  0.32773184900E+02  0.35496821247E+02  0.87370679644E+02  0.16005201417E+03  0.12509558590E+03 0.  0.
          5    1    3    3  502    0 -0.19841468283E+02  0.21365286240E+02 -0.22685467976E+02  0.37178786654E+02  0.41800000000E+01 0.  1.
         -5    1    3    3    0  502  0.52614653183E+02  0.14131535007E+02  0.11005614762E+03  0.12287322752E+03  0.41800000000E+01 0.  1.
        -11    1    1    2    0    0  0.20544835327E+02 -0.12142235465E+02  0.10569834200E+03  0.10835895737E+03  0.00000000000E+00 0. -1.
         11    1    1    2    0    0 -0.53318020227E+02 -0.23354585782E+02  0.42205806086E+02  0.71899777645E+02  0.00000000000E+00 0.  1.
</event>
<event>
 7    1  0.5109948E-006  0.1098076E+03  0.7561462E-02  0.1260927E+00
          1   -1    0    0  501    0  0.00000000000E+00  0.00000000000E+00  0.21181386161E+03  0.21181386161E+03  0.00000000000E+00 0. -1.
         -1   -1    0    0    0  501 -0.00000000000E+00 -0.00000000000E+00 -0.66386043316E+02  0.66386043316E+02  0.00000000000E+00 0.  1.
         23    2    1    2    0    0  0.35620956777E+02  0.11084493299E+02  0.44774368281E+02  0.13799695181E+03  0.12508675430E+03 0.  0.
          5    1    3    3  502    0 -0.43294175516E+02 -0.13455173586E+02  0.28351001306E+02  0.53634680990E+02  0.41800000000E+01 0. -1.
         -5    1    3    3    0  502  0.78915132293E+02  0.24539666886E+02  0.16423366975E+02  0.84362270823E+02  0.41800000000E+01 0. -1.
        -11    1    1    2    0    0 -0.10820561368E+02 -0.46700650432E+02  0.27837639234E+02  0.55434370721E+02  0.00000000000E+00 0. -1.
         11    1    1    2    0    0 -0.24800395410E+02  0.35616157133E+02  0.72815810776E+02  0.84768582389E+02  0.00000000000E+00 0.  1.
</event>
<event>
 7    1  0.5109948E-006  0.1249217E+03  0.7561462E-02  0.1235192E+00
         -1   -1    0    0    0  501 -0.00000000000E+00  0.00000000000E+00  0.17412542958E+02  0.17412542958E+02  0.00000000000E+00 0.  1.
          1   -1    0    0  501    0  0.00000000000E+00 -0.00000000000E+00 -0.12139670467E+04  0.12139670467E+04  0.00000000000E+00 0. -1.
         23    2    1    2    0    0 -0.46287077387E+02  0.93343771696E+02 -0.64175872369E+03  0.65960697009E+03  0.11122743509E+03 0.  0.
          5    1    3    3  502    0 -0.27309484372E+02  0.10363307041E+03 -0.61798792590E+03  0.62722577289E+03  0.41800000000E+01 0. -1.
         -5    1    3    3    0  502 -0.18977593015E+02 -0.10289298717E+02 -0.23770797790E+02  0.32381197203E+02  0.41800000000E+01 0.  1.
        -11    1    1    2    0    0  0.57557327194E+02 -0.92947062246E+02 -0.54757457008E+03  0.55838151124E+03  0.00000000000E+00 0.  1.
         11    1    1    2    0    0 -0.11270249807E+02 -0.39670944972E+00 -0.72212099991E+01  0.13391108354E+02  0.00000000000E+00 0. -1.
</event>
<event>
 7    1  0.5109948E-006  0.1287195E+03  0.7561462E-02  0.1229368E+00
          1   -1    0    0  501    0  0.00000000000E+00  0.00000000000E+00  0.18175025772E+03  0.18175025772E+03  0.00000000000E+00 0. -1.
         -1   -1    0    0    0  501 -0.00000000000E+00 -0.00000000000E+00 -0.12579083873E+03  0.12579083873E+03  0.00000000000E+00 0.  1.
         23    2    1    2    0    0  0.91849111165E+02 -0.47439973747E+02 -0.46124010548E+00  0.16227706722E+03  0.12508726343E+03 0.  0.
          5    1    3    3  502    0  0.24274558444E+02 -0.66277741445E+02 -0.40410709204E+02  0.81440106932E+02  0.41800000000E+01 0.  1.
         -5    1    3    3    0  502  0.67574552721E+02  0.18837767698E+02  0.39949469098E+02  0.80836960287E+02  0.41800000000E+01 0.  1.
        -11    1    1    2    0    0  0.32843124785E+01  0.15893146313E+02  0.40693188773E+02  0.43809980834E+02  0.00000000000E+00 0. -1.
         11    1    1    2    0    0 -0.95133423643E+02  0.31546827434E+02  0.15727470323E+02  0.10145404841E+03  0.00000000000E+00 0.  1.
</event>
<event>
 7    1  0.5109948E-006  0.1158565E+03  0.7561462E-02  0.1250093E+00
         -1   -1    0    0    0  501 -0.00000000000E+00  0.00000000000E+00  0.10987507840E+03  0.10987507840E+03  0.00000000000E+00 0.  1.
          1   -1    0    0  501    0  0.00000000000E+00 -0.00000000000E+00 -0.13722678918E+03  0.13722678918E+03  0.00000000000E+00 0. -1.
         23    2    1    2    0    0  0.93603964805E+01  0.53520232451E+02  0.45685768421E+01  0.13645751565E+03  0.12509096441E+03 0.  0.
          5    1    3    3  502    0  0.19855385712E+02 -0.37896536464E+02 -0.72380624487E+01  0.43591808470E+02  0.41800000000E+01 0.  1.
         -5    1    3    3    0  502 -0.10494989231E+02  0.91416768914E+02  0.11806639291E+02  0.92865707175E+02  0.41800000000E+01 0.  1.
        -11    1    1    2    0    0  0.35054390012E+02 -0.31098635845E+02  0.71249071829E+01  0.47399364055E+02  0.00000000000E+00 0.  1.
         11    1    1    2    0    0 -0.44414786492E+02 -0.22421596606E+02 -0.39045194809E+02  0.63244987874E+02  0.00000000000E+00 0. -1.
</event>
<event>
 7    1  0.5109948E-006  0.1320771E+03  0.7561462E-02  0.1224406E+00
         -2   -1    0    0    0  501 -0.00000000000E+00  0.00000000000E+00  0.24180599109E+03  0.24180599109E+03  0.00000000000E+00 0.  1.
          2   -1    0    0  501    0  0.00000000000E+00 -0.00000000000E+00 -0.11263359879E+03  0.11263359879E+03  0.00000000000E+00 0. -1.
         23    2    1    2    0    0  0.82894870966E+02 -0.10814009337E+02  0.16968240179E+03  0.22681633664E+03  0.12516002021E+03 0.  0.
          5    1    3    3  502    0  0.11247554015E+03 -0.14837137496E+02  0.15784547010E+03  0.19443135707E+03  0.41800000000E+01 0.  1.
         -5    1    3    3    0  502 -0.29580669188E+02  0.40231281595E+01  0.11836931693E+02  0.32384979569E+02  0.41800000000E+01 0.  1.
        -11    1    1    2    0    0 -0.45113308269E+02  0.49110775530E+02 -0.28390399538E+02  0.72478228746E+02  0.00000000000E+00 0.  1.
         11    1    1    2    0    0 -0.37781562697E+02 -0.38296766194E+02 -0.12119609948E+02  0.55145024490E+02  0.00000000000E+00 0. -1.
</event>
<event>
 7    1  0.5109948E-006  0.8359348E+02  0.7561462E-02  0.1319152E+00
          1   -1    0    0  501    0  0.00000000000E+00  0.00000000000E+00  0.89724015054E+02  0.89724015054E+02  0.00000000000E+00 0. -1.
         -1   -1    0    0    0  501 -0.00000000000E+00 -0.00000000000E+00 -0.15861298946E+03  0.15861298946E+03  0.00000000000E+00 0.  1.
         23    2    1    2    0    0  0.32821543599E+02  0.34723977228E+02 -0.54079978994E+02  0.14441167831E+03  0.12508829036E+03 0.  0.
          5    1    3    3  502    0  0.38493146772E+02  0.51283727571E+02  0.20689008663E+02  0.67507411011E+02  0.41800000000E+01 0. -1.
         -5    1    3    3    0  502 -0.56716031723E+01 -0.16559750343E+02 -0.74768987656E+02  0.76904267301E+02  0.41800000000E+01 0. -1.
        -11    1    1    2    0    0  0.16300685168E+02 -0.31785664149E+02  0.22459424821E+02  0.42195574953E+02  0.00000000000E+00 0. -1.
         11    1    1    2    0    0 -0.49122228767E+02 -0.29383130792E+01 -0.37268420237E+02  0.61729751253E+02  0.00000000000E+00 0.  1.
</event>
<event>
 6    1  0.5109948E-006  0.1253478E+03  0.7561462E-02  0.1234527E+00
         -2   -1    0    0    0  501 -0.00000000000E+00  0.00000000000E+00  0.20212538836E+02  0.20212538836E+02  0.00000000000E+00 0.  1.
          2   -1    0    0  501    0  0.00000000000E+00 -0.00000000000E+00 -0.78264917499E+03  0.78264917499E+03  0.00000000000E+00 0. -1.
          5    1    1    2  502    0 -0.22718256172E+02  0.38648876259E+02 -0.12485101756E+03  0.13272190394E+03  0.41800000000E+01 0. -1.
         -5    1    1    2    0  502  0.39729966867E+02 -0.91289520909E+02 -0.29965211341E+03  0.31578649174E+03  0.41800000000E+01 0.  1.
        -11    1    1    2    0    0 -0.36143781205E+02 -0.12410770109E+02 -0.10436744106E+03  0.11114388372E+03  0.00000000000E+00 0.  1.
         11    1    1    2    0    0  0.19132070510E+02  0.65051414759E+02 -0.23356606413E+03  0.24320943443E+03  0.00000000000E+00 0. -1.
</event>
<event>
 7    1  0.5109948E-006  0.9353633E+02  0.7561462E-02  0.1294507E+00
         -1   -1    0    0    0  501 -0.00000000000E+00  0.00000000000E+00  0.36460517754E+02  0.36460517754E+02  0.00000000000E+00 0.  1.
          1   -1    0    0  501    0  0.00000000000E+00 -0.00000000000E+00 -0.35205169451E+03  0.35205169451E+03  0.00000000000E+00 0. -1.
         23    2    1    2    0    0 -0.30648499312E+01 -0.12858800416E+02 -0.12276915483E+03  0.17577002112E+03  0.12509233747E+03 0.  0.
          5    1    3    3  502    0 -0.57093677455E+02  0.24097228798E+01 -0.24080949267E+02  0.62151904937E+02  0.41800000000E+01 0. -1.
         -5    1    3    3    0  502  0.54028827524E+02 -0.15268523295E+02 -0.98688205566E+02  0.11361811618E+03  0.41800000000E+01 0. -1.
        -11    1    1    2    0    0 -0.34175307522E+02  0.12013999999E+02 -0.34248226103E+02  0.49852069480E+02  0.00000000000E+00 0.  1.
         11    1    1    2    0    0  0.37240157453E+02  0.84480041644E+00 -0.15857379582E+03  0.16289012167E+03  0.00000000000E+00 0. -1.
</event>
<event>
 7    1  0.5109948E-006  0.1307115E+03  0.7561462E-02  0.1226404E+00
         -1   -1    0    0    0  501 -0.00000000000E+00  0.00000000000E+00  0.27343795927E+03  0.27343795927E+03  0.00000000000E+00 0.  1.
          1   -1    0    0  501    0  0.00000000000E+00 -0.00000000000E+00 -0.70194586900E+02  0.70194586900E+02  0.00000000000E+00 0. -1.
         23    2    1    2    0    0  0.71158918873E+02 -0.40160554291E+02  0.14269782330E+03  0.20660844663E+03  0.12509164476E+03 0.  0.
          5    1    3    3  502    0  0.93944496697E+02  0.19792035511E+00  0.59498526042E+02  0.11127962362E+03  0.41800000000E+01 0. -1.
         -5    1    3    3    0  502 -0.22785577824E+02 -0.40358474646E+02  0.83199297259E+02  0.95328823013E+02  0.41800000000E+01 0. -1.
        -11    1    1    2    0    0 -0.75080188629E+02 -0.52573408163E+01  0.25304942697E+02  0.79404121316E+02  0.00000000000E+00 0.  1.
         11    1    1    2    0    0  0.39212697564E+01  0.45417895108E+02  0.35240606369E+02  0.57619978217E+02  0.00000000000E+00 0. -1.
</event>
<event>
 7    1  0.5109948E-006  0.1345780E+03  0.7561462E-02  0.1220817E+00
         -4   -1    0    0    0  501 -0.00000000000E+00  0.00000000000E+00  0.68813968281E+03  0.68813968281E+03  0.00000000000E+00 0.  1.
          4   -1    0    0  501    0  0.00000000000E+00 -0.00000000000E+00 -0.34735503873E+02  0.34735503873E+02  0.00000000000E+00 0. -1.
         23    2    1    2    0    0  0.77470643820E+01 -0.98787904231E+02  0.46573813805E+03  0.49231949057E+03  0.12508957003E+03 0.  0.
          5    1    3    3  502    0  0.45257934548E+02 -0.87590817065E+02  0.19310088976E+03  0.21685446249E+03  0.41800000000E+01 0. -1.
         -5    1    3    3    0  502 -0.37510870166E+02 -0.11197087166E+02  0.27263724829E+03  0.27546502808E+03  0.41800000000E+01 0. -1.
        -11    1    1    2    0    0  0.15766456982E+02 -0.10743786740E+02  0.13131085217E+02  0.23161077658E+02  0.00000000000E+00 0. -1.
         11    1    1    2    0    0 -0.23513521364E+02  0.10953169097E+03  0.17453495567E+03  0.20739461846E+03  0.00000000000E+00 0.  1.
</event>
<event>
 7    1  0.5109948E-006  0.1055310E+03  0.7561462E-02  0.1269077E+00
         -3   -1    0    0    0  501 -0.00000000000E+00  0.00000000000E+00  0.63206534396E+03  0.63206534396E+03  0.00000000000E+00 0.  1.
          3   -1    0    0  501    0  0.00000000000E+00 -0.00000000000E+00 -0.29290609600E+02  0.29290609600E+02  0.00000000000E+00 0. -1.
         23    2    1    2    0    0 -0.10122503118E+01 -0.77775998211E+02  0.38295365783E+03  0.41061555627E+03  0.12610115168E+03 0.  0.
          5    1    3    3  502    0 -0.21688905058E+02 -0.68574981635E+02  0.83523407535E+02  0.11030217004E+03  0.41800000000E+01 0. -1.
         -5    1    3    3    0  502  0.20676654746E+02 -0.92010165759E+01  0.29943025030E+03  0.30031338623E+03  0.41800000000E+01 0.  1.
        -11    1    1    2    0    0  0.27078978956E+02 -0.64494852843E+01  0.27290937975E+02  0.38982845680E+02  0.00000000000E+00 0.  1.
         11    1    1    2    0    0 -0.26066728644E+02  0.84225483495E+02  0.19253013855E+03  0.21175755161E+03  0.00000000000E+00 0. -1.
</event>
<event>
 7    1  0.5109948E-006  0.1691940E+03  0.7561462E-02  0.1178691E+00
          2   -1    0    0  501    0  0.00000000000E+00  0.00000000000E+00  0.64291809884E+02  0.64291809884E+02  0.00000000000E+00 0. -1.
         -2   -1    0    0    0  501 -0.00000000000E+00 -0.00000000000E+00 -0.52753241894E+03  0.52753241894E+03  0.00000000000E+00 0.  1.
         23    2    1    2    0    0  0.12267319219E+03  0.42937046960E+02 -0.35818879629E+03  0.40105046751E+03  0.12509980661E+03 0.  0.
          5    1    3    3  502    0  0.58074814752E+02 -0.43297383495E+02 -0.14222657087E+03  0.15966595563E+03  0.41800000000E+01 0.  1.
         -5    1    3    3    0  502  0.64598377433E+02  0.86234430455E+02 -0.21596222543E+03  0.24138451188E+03  0.41800000000E+01 0.  1.
        -11    1    1    2    0    0 -0.19568923853E+02 -0.50957140029E+02 -0.47867509745E+02  0.72600767144E+02  0.00000000000E+00 0.  1.
         11    1    1    2    0    0 -0.10310426833E+03  0.80200930683E+01 -0.57184303021E+02  0.11817299418E+03  0.00000000000E+00 0. -1.
</event>
<event>
 7    1  0.5109948E-006  0.9913416E+02  0.7561462E-02  0.1282127E+00
         -1   -1    0    0    0  501 -0.00000000000E+00  0.00000000000E+00  0.12099371671E+02  0.12099371671E+02  0.00000000000E+00 0.  1.
          1   -1    0    0  501    0  0.00000000000E+00 -0.00000000000E+00 -0.10787679793E+04  0.10787679793E+04  0.00000000000E+00 0. -1.
         23    2    1    2    0    0  0.26286998530E+02 -0.39382298266E+02 -0.56620676939E+03  0.58179015234E+03  0.12509078283E+03 0.  0.
          5    1    3    3  502    0  0.59866554636E+02 -0.11367347617E+02 -0.49028238979E+03  0.49407237840E+03  0.41800000000E+01 0.  1.
         -5    1    3    3    0  502 -0.33579556106E+02 -0.28014950649E+02 -0.75924379600E+02  0.87717773945E+02  0.41800000000E+01 0.  1.
        -11    1    1    2    0    0 -0.12758783782E+02  0.63951003663E+02 -0.34830815177E+03  0.35436010783E+03  0.00000000000E+00 0. -1.
         11    1    1    2    0    0 -0.13528214748E+02 -0.24568705396E+02 -0.15215368646E+03  0.15471709079E+03  0.00000000000E+00 0.  1.
</event>
<event>
 7    1  0.5109948E-006  0.1733846E+03  0.7561462E-02  0.1174364E+00
         -1   -1    0    0    0  501 -0.00000000000E+00  0.00000000000E+00  0.94717442778E+03  0.94717442778E+03  0.00000000000E+00 0.  1.
          1   -1    0    0  501    0  0.00000000000E+00 -0.00000000000E+00 -0.47916861671E+02  0.47916861671E+02  0.00000000000E+00 0. -1.
         23    2    1    2    0    0 -0.90464655544E+02 -0.14228497157E+03  0.63242024682E+03  0.66635715242E+03  0.12509044311E+03 0.  0.
          5    1    3    3  502    0 -0.78652320541E+02 -0.12455058096E+03  0.31039760993E+03  0.34360323543E+03  0.41800000000E+01 0.  1.
         -5    1    3    3    0  502 -0.11812335004E+02 -0.17734390619E+02  0.32202263689E+03  0.32275391700E+03  0.41800000000E+01 0.  1.
        -11    1    1    2    0    0  0.68073050243E+02  0.54815369053E+02  0.19381943917E+03  0.21261382799E+03  0.00000000000E+00 0.  1.
         11    1    1    2    0    0  0.22391605301E+02  0.87469602521E+02  0.73017880115E+02  0.11612030903E+03  0.00000000000E+00 0. -1.
</event>
<event>
 7    1  0.5109948E-006  0.1043477E+03  0.7561462E-02  0.1271410E+00
         -2   -1    0    0    0  501 -0.00000000000E+00  0.00000000000E+00  0.26161201112E+03  0.26161201112E+03  0.00000000000E+00 0. -1.
          2   -1    0    0  501    0  0.00000000000E+00 -0.00000000000E+00 -0.55871532381E+02  0.55871532381E+02  0.00000000000E+00 0.  1.
         23    2    1    2    0    0 -0.33343706165E+01 -0.47716606295E+02  0.15388410046E+03  0.20399749767E+03  0.12508665051E+03 0.  0.
          5    1    3    3  502    0 -0.22070931538E+02 -0.82595860435E+02  0.67947836234E+02  0.10928670106E+03  0.41800000000E+01 0. -1.
         -5    1    3    3    0  502  0.18736560922E+02  0.34879254140E+02  0.85936264228E+02  0.94710796607E+02  0.41800000000E+01 0. -1.
        -11    1    1    2    0    0  0.31101026071E+02  0.38060643590E+01 -0.98279089821E+01  0.32838205547E+02  0.00000000000E+00 0.  1.
         11    1    1    2    0    0 -0.27766655455E+02  0.43910541936E+02  0.61684287262E+02  0.80647840289E+02  0.00000000000E+00 0. -1.
</event>
<event>
 7    1  0.5109948E-006  0.1022477E+03  0.7561462E-02  0.1275639E+00
          2   -1    0    0  501    0  0.00000000000E+00  0.00000000000E+00  0.60292073033E+03  0.60292073033E+03  0.00000000000E+00 0. -1.
         -2   -1    0    0    0  501 -0.00000000000E+00 -0.00000000000E+00 -0.23510861511E+02  0.23510861511E+02  0.00000000000E+00 0.  1.
         23    2    1    2    0    0 -0.30096356521E+02 -0.27311440432E+02  0.25826354302E+03  0.28982626005E+03  0.12508995925E+03 0.  0.
          5    1    3    3  502    0  0.33034056321E+02 -0.24403278618E+02  0.25326158620E+02  0.48431968727E+02  0.41800000000E+01 0. -1.
         -5    1    3    3    0  502 -0.63130412842E+02 -0.29081618149E+01  0.23293738440E+03  0.24139429132E+03  0.41800000000E+01 0. -1.
        -11    1    1    2    0    0  0.11187841419E+02  0.60583516775E+02  0.17484455365E+03  0.18538108922E+03  0.00000000000E+00 0.  1.
         11    1    1    2    0    0  0.18908515102E+02 -0.33272076343E+02  0.14630177214E+03  0.15122424257E+03  0.00000000000E+00 0. -1.
</event>
<event>
 7    1  0.5109948E-006  0.8958963E+02  0.7561462E-02  0.1303849E+00
         -2   -1    0    0    0  501 -0.00000000000E+00  0.00000000000E+00  0.65946760594E+03  0.65946760594E+03  0.00000000000E+00 0.  1.
          2   -1    0    0  501    0  0.00000000000E+00 -0.00000000000E+00 -0.24171437344E+02  0.24171437344E+02  0.00000000000E+00 0. -1.
         23    2    1    2    0    0 -0.28742531163E+02  0.53572607526E+02  0.41307044726E+03  0.43388733668E+03  0.11804604676E+03 0.  0.
          5    1    3    3  502    0 -0.14654827696E+02 -0.62433124797E+01  0.22271404235E+00  0.16470122254E+02  0.41800000000E+01 0. -1.
         -5    1    3    3    0  502 -0.14087703468E+02  0.59815920006E+02  0.41284773322E+03  0.41741721442E+03  0.41800000000E+01 0.  1.
        -11    1    1    2    0    0  0.34886854458E+02  0.10746282091E+02  0.30953152422E+02  0.47860974056E+02  0.00000000000E+00 0.  1.
         11    1    1    2    0    0 -0.61443232941E+01 -0.64318889617E+02  0.19127256891E+03  0.20189073255E+03  0.00000000000E+00 0. -1.
</event>
<event>
 7    1  0.5109948E-006  0.1503143E+03  0.7561462E-02  0.1200087E+00
          1   -1    0    0  501    0  0.00000000000E+00  0.00000000000E+00  0.72378121706E+03  0.72378121706E+03  0.00000000000E+00 0. -1.
         -1   -1    0    0    0  501 -0.00000000000E+00 -0.00000000000E+00 -0.46847634137E+02  0.46847634137E+02  0.00000000000E+00 0.  1.
         23    2    1    2    0    0  0.97979443097E+02 -0.10609500454E+03  0.28294436108E+03  0.34141123000E+03  0.12509194716E+03 0.  0.
          5    1    3    3  502    0  0.18768448654E+02 -0.19161362543E+02  0.18869898751E+03  0.19064152949E+03  0.41800000000E+01 0. -1.
         -5    1    3    3    0  502  0.79210994444E+02 -0.86933642000E+02  0.94245373567E+02  0.15076970051E+03  0.41800000000E+01 0. -1.
        -11    1    1    2    0    0 -0.11943716494E+02  0.53816986077E+02  0.23227579190E+03  0.23872780286E+03  0.00000000000E+00 0. -1.
         11    1    1    2    0    0 -0.86035726603E+02  0.52278018466E+02  0.16171342994E+03  0.19048981834E+03  0.00000000000E+00 0.  1.
</event>
<event>
 7    1  0.5109948E-006  0.1104307E+03  0.7561462E-02  0.1259774E+00
          1   -1    0    0  501    0  0.00000000000E+00  0.00000000000E+00  0.44699635443E+03  0.44699635443E+03  0.00000000000E+00 0. -1.
         -1   -1    0    0    0  501 -0.00000000000E+00 -0.00000000000E+00 -0.42232558507E+02  0.42232558507E+02  0.00000000000E+00 0.  1.
         23    2    1    2    0    0  0.97299230110E+01  0.63179595139E+02  0.12527112724E+03  0.18821960112E+03  0.12508968895E+03 0.  0.
          5    1    3    3  502    0 -0.46815970544E+02  0.19228197672E+02  0.10000506458E+03  0.11216034962E+03  0.41800000000E+01 0.  1.
         -5    1    3    3    0  502  0.56545893555E+02  0.43951397467E+02  0.25266062653E+02  0.76059251503E+02  0.41800000000E+01 0.  1.
        -11    1    1    2    0    0  0.27179108504E+02 -0.24722547622E+01  0.25800002683E+02  0.37556039742E+02  0.00000000000E+00 0.  1.
         11    1    1    2    0    0 -0.36909031515E+02 -0.60707340377E+02  0.25369266601E+03  0.26345327208E+03  0.00000000000E+00 0. -1.
</event>
<event>
 7    1  0.5109948E-006  0.1649544E+03  0.7561462E-02  0.1183214E+00
          2   -1    0    0  501    0  0.00000000000E+00  0.00000000000E+00  0.45248806148E+03  0.45248806148E+03  0.00000000000E+00 0. -1.
         -2   -1    0    0    0  501 -0.00000000000E+00 -0.00000000000E+00 -0.10541058198E+03  0.10541058198E+03  0.00000000000E+00 0.  1.
         23    2    1    2    0    0  0.42309764004E+02 -0.15145576452E+03  0.45625157671E+02  0.20605525016E+03  0.12509255122E+03 0.  0.
          5    1    3    3  502    0  0.13774596169E+02 -0.23312617117E+02 -0.40566338698E+02  0.48952199663E+02  0.41800000000E+01 0. -1.
         -5    1    3    3    0  502  0.28535167834E+02 -0.12814314740E+03  0.86191496369E+02  0.15710305050E+03  0.41800000000E+01 0. -1.
        -11    1    1    2    0    0 -0.59420698835E+02  0.93948085974E+02  0.24682094998E+03  0.27069843674E+03  0.00000000000E+00 0.  1.
         11    1    1    2    0    0  0.17110934831E+02  0.57507678546E+02  0.54631371854E+02  0.81144956548E+02  0.00000000000E+00 0. -1.
</event>
<event>
 7    1  0.5109948E-006  0.9773406E+02  0.7561462E-02  0.1285134E+00
         -1   -1    0    0    0  501 -0.00000000000E+00  0.00000000000E+00  0.28430531001E+03  0.28430531001E+03  0.00000000000E+00 0.  1.
          1   -1    0    0  501    0  0.00000000000E+00 -0.00000000000E+00 -0.74455551625E+02  0.74455551625E+02  0.00000000000E+00 0. -1.
         23    2    1    2    0    0  0.12489733670E+02  0.31024139204E+02  0.22889532723E+03  0.26298147647E+03  0.12509074898E+03 0.  0.
          5    1    3    3  502    0 -0.20576011950E+02  0.57531173915E+02  0.49922800780E+02  0.79012446345E+02  0.41800000000E+01 0.  1.
         -5    1    3    3    0  502  0.33065745620E+02 -0.26507034710E+02  0.17897252644E+03  0.18396903012E+03  0.41800000000E+01 0.  1.
        -11    1    1    2    0    0 -0.34835516647E+02 -0.50937161692E+02 -0.29153287758E+01  0.61778692146E+02  0.00000000000E+00 0. -1.
         11    1    1    2    0    0  0.22345782977E+02  0.19913022488E+02 -0.16130240062E+02  0.34000693022E+02  0.00000000000E+00 0.  1.
</event>
<event>
 7    1  0.5109948E-006  0.1472307E+03  0.7561462E-02  0.1203918E+00
         -2   -1    0    0    0  501 -0.00000000000E+00  0.00000000000E+00  0.32735724950E+03  0.32735724950E+03  0.00000000000E+00 0.  1.
          2   -1    0    0  501    0  0.00000000000E+00 -0.00000000000E+00 -0.80658614695E+02  0.80658614695E+02  0.00000000000E+00 0. -1.
         23    2    1    2    0    0 -0.53228502184E+02  0.82893126601E+02  0.21559206468E+03  0.26801310920E+03  0.12508614818E+03 0.  0.
          5    1    3    3  502    0 -0.16259033185E+02 -0.32720716984E+02  0.63469739251E+02  0.73354493254E+02  0.41800000000E+01 0.  1.
         -5    1    3    3    0  502 -0.36969468999E+02  0.11561384358E+03  0.15212232543E+03  0.19465861594E+03  0.41800000000E+01 0.  1.
        -11    1    1    2    0    0 -0.21141312475E+02 -0.51196435459E+02  0.83293693254E+01  0.56012574393E+02  0.00000000000E+00 0.  1.
         11    1    1    2    0    0  0.74369814659E+02 -0.31696691142E+02  0.22777200797E+02  0.83990180604E+02  0.00000000000E+00 0. -1.
</event>
<event>
 7    1  0.5109948E-006  0.1084342E+03  0.7561462E-02  0.1263497E+00
         -1   -1    0    0    0  501 -0.00000000000E+00  0.00000000000E+00  0.22598778501E+03  0.22598778501E+03  0.00000000000E+00 0.  1.
          1   -1    0    0  501    0  0.00000000000E+00 -0.00000000000E+00 -0.98196142197E+02  0.98196142197E+02  0.00000000000E+00 0. -1.
         23    2    1    2    0    0  0.44389552276E+02 -0.85523427151E+02  0.10799668959E+03  0.19129849918E+03  0.12508853618E+03 0.  0.
          5    1    3    3  502    0  0.25702738963E+02 -0.32189338745E+02  0.12536824139E+03  0.13202822679E+03  0.41800000000E+01 0. -1.
         -5    1    3    3    0  502  0.18686813313E+02 -0.53334088406E+02 -0.17371551798E+02  0.59270272395E+02  0.41800000000E+01 0. -1.
        -11    1    1    2    0    0 -0.35011667905E+00  0.73015248930E+02  0.39531975189E+02  0.83030875103E+02  0.00000000000E+00 0.  1.
         11    1    1    2    0    0 -0.44039435597E+02  0.12508178221E+02 -0.19737021975E+02  0.49854552917E+02  0.00000000000E+00 0. -1.
</event>
<event>
 7    1  0.5109948E-006  0.1079274E+03  0.7561462E-02  0.1264457E+00
         -2   -1    0    0    0  501 -0.00000000000E+00  0.00000000000E+00  0.49321635555E+03  0.49321635555E+03  0.00000000000E+00 0.  1.
          2   -1    0    0  501    0  0.00000000000E+00 -0.00000000000E+00 -0.25752433633E+02  0.25752433633E+02  0.00000000000E+00 0. -1.
         23    2    1    2    0    0 -0.25538191795E+02  0.98286907907E+01  0.23269421568E+03  0.26559835560E+03  0.12508831313E+03 0.  0.
          5    1    3    3  502    0 -0.75778978343E+02  0.13557279797E+02  0.13014485814E+03  0.15126602359E+03  0.41800000000E+01 0. -1.
         -5    1    3    3    0  502  0.50240786548E+02 -0.37285890068E+01  0.10254935755E+03  0.11433233201E+03  0.41800000000E+01 0. -1.
        -11    1    1    2    0    0  0.56513813813E+02 -0.89577297502E+01  0.19336859473E+03  0.20165680128E+03  0.00000000000E+00 0. -1.
         11    1    1    2    0    0 -0.30975622018E+02 -0.87096104044E+00  0.41401111510E+02  0.51713632311E+02  0.00000000000E+00 0.  1.
</event>
<event>
 7    1  0.5109948E-006  0.2476134E+03  0.7561462E-02  0.1114822E+00
          1   -1    0    0  501    0  0.00000000000E+00  0.00000000000E+00  0.90940567953E+03  0.90940567953E+03  0.00000000000E+00 0. -1.
         -1   -1    0    0    0  501 -0.00000000000E+00 -0.00000000000E+00 -0.73120968926E+02  0.73120968926E+02  0.00000000000E+00 0.  1.
         23    2    1    2    0    0  0.17824338980E+03 -0.15049474503E+03  0.44729630441E+03  0.51975154917E+03  0.12509322380E+03 0.  0.
          5    1    3    3  502    0  0.14080099544E+03 -0.16685782376E+03  0.33218022383E+03  0.39752688861E+03  0.41800000000E+01 0.  1.
         -5    1    3    3    0  502  0.37442394362E+02  0.16363078730E+02  0.11511608058E+03  0.12222466056E+03  0.41800000000E+01 0.  1.
        -11    1    1    2    0    0 -0.12651477706E+03  0.12598197467E+03  0.35179958371E+03  0.39451285639E+03  0.00000000000E+00 0. -1.
         11    1    1    2    0    0 -0.51728612745E+02  0.24512770360E+02  0.37188822483E+02  0.68262242894E+02  0.00000000000E+00 0.  1.
</event>
<event>
 6    1  0.5109948E-006  0.1804954E+03  0.7561462E-02  0.1167324E+00
          2   -1    0    0  501    0  0.00000000000E+00  0.00000000000E+00  0.15347504934E+03  0.15347504934E+03  0.00000000000E+00 0. -1.
         -2   -1    0    0    0  501 -0.00000000000E+00 -0.00000000000E+00 -0.30746523962E+03  0.30746523962E+03  0.00000000000E+00 0.  1.
          5    1    1    2  502    0 -0.66303103344E+02  0.15060230006E+03  0.36147810721E+02  0.16852682551E+03  0.41800000000E+01 0. -1.
         -5    1    1    2    0  502 -0.92102894548E+01 -0.61659011807E+02 -0.12751560077E+03  0.14200128172E+03  0.41800000000E+01 0.  1.
        -11    1    1    2    0    0  0.64697901463E+02 -0.25495249637E+02 -0.17201523936E+02  0.71636014919E+02  0.00000000000E+00 0. -1.
         11    1    1    2    0    0  0.10815491336E+02 -0.63448038612E+02 -0.45420876292E+02  0.78776166826E+02  0.00000000000E+00 0.  1.
</event>
<event>
 7    1  0.5109948E-006  0.1321730E+03  0.7561462E-02  0.1224267E+00
          1   -1    0    0  501    0  0.00000000000E+00  0.00000000000E+00  0.32030074134E+02  0.32030074134E+02  0.00000000000E+00 0. -1.
         -1   -1    0    0    0  501 -0.00000000000E+00 -0.00000000000E+00 -0.89784070141E+03  0.89784070141E+03  0.00000000000E+00 0.  1.
         23    2    1    2    0    0 -0.90032069722E+02 -0.47785439871E+02 -0.68353143737E+03  0.70209587863E+03  0.12383123629E+03 0.  0.
          5    1    3    3  502    0 -0.79996523215E+02 -0.67933164403E+02 -0.29950946385E+03  0.31739210748E+03  0.41800000000E+01 0. -1.
         -5    1    3    3    0  502 -0.10035546507E+02  0.20147724532E+02 -0.38402197351E+03  0.38470377115E+03  0.41800000000E+01 0.  1.
        -11    1    1    2    0    0  0.74999904698E+02  0.74533892740E+02 -0.14584982388E+03  0.18014565773E+03  0.00000000000E+00 0.  1.
         11    1    1    2    0    0  0.15032165024E+02 -0.26748452869E+02 -0.36429366028E+02  0.47629239185E+02  0.00000000000E+00 0. -1.
</event>
<event>
 7    1  0.5109948E-006  0.1770623E+03  0.7561462E-02  0.1170677E+00
          2   -1    0    0  501    0  0.00000000000E+00  0.00000000000E+00  0.10333069476E+04  0.10333069476E+04  0.00000000000E+00 0. -1.
         -2   -1    0    0    0  501 -0.00000000000E+00 -0.00000000000E+00 -0.32409537732E+02  0.32409537732E+02  0.00000000000E+00 0.  1.
         23    2    1    2    0    0 -0.10275955187E+03  0.93909955644E+02  0.39351702418E+03  0.43575356833E+03  0.12508764415E+03 0.  0.
          5    1    3    3  502    0 -0.13157958498E+03  0.84927245510E+02  0.33128012769E+03  0.36645575397E+03  0.41800000000E+01 0. -1.
         -5    1    3    3    0  502  0.28820033110E+02  0.89827101332E+01  0.62236896496E+02  0.69297814361E+02  0.41800000000E+01 0. -1.
        -11    1    1    2    0    0  0.12041696657E+03 -0.82242210188E+02  0.52036770129E+03  0.54041333396E+03  0.00000000000E+00 0.  1.
         11    1    1    2    0    0 -0.17657414698E+02 -0.11667745456E+02  0.87012684390E+02  0.89549583040E+02  0.00000000000E+00 0. -1.
</event>
<event>
 7    1  0.5109948E-006  0.1062563E+03  0.7561462E-02  0.1267664E+00
         -1   -1    0    0    0  501 -0.00000000000E+00  0.00000000000E+00  0.32504852808E+03  0.32504852808E+03  0.00000000000E+00 0.  1.
          1   -1    0    0  501    0  0.00000000000E+00 -0.00000000000E+00 -0.73894224031E+02  0.73894224031E+02  0.00000000000E+00 0. -1.
         23    2    1    2    0    0  0.36920347186E+02 -0.15481362792E+02  0.26623136145E+03  0.29686410426E+03  0.12508546657E+03 0.  0.
          5    1    3    3  502    0  0.46447208373E+02  0.46823297966E+02  0.16235498394E+03  0.17528941100E+03  0.41800000000E+01 0. -1.
         -5    1    3    3    0  502 -0.95268611875E+01 -0.62304660758E+02  0.10387637751E+03  0.12157469326E+03  0.41800000000E+01 0. -1.
        -11    1    1    2    0    0 -0.35266306882E+02  0.43045047577E+02  0.18466826697E+02  0.58631153922E+02  0.00000000000E+00 0.  1.
         11    1    1    2    0    0 -0.16540403044E+01 -0.27563684785E+02 -0.33543884100E+02  0.43447493929E+02  0.00000000000E+00 0. -1.
</event>
<event>
 7    1  0.5109948E-006  0.9759009E+02  0.7561462E-02  0.1285447E+00
          2   -1    0    0  501    0  0.00000000000E+00  0.00000000000E+00  0.46319608595E+02  0.46319608595E+02  0.00000000000E+00 0. -1.
         -2   -1    0    0    0  501 -0.00000000000E+00 -0.00000000000E+00 -0.30272804249E+03  0.30272804249E+03  0.00000000000E+00 0.  1.
         23    2    1    2    0    0  0.11731140764E+02 -0.46326047855E+02 -0.15996433906E+03  0.20861314008E+03  0.12508848896E+03 0.  0.
          5    1    3    3  502    0 -0.56316160958E+02 -0.24611846200E+02 -0.63045158887E+02  0.88144298837E+02  0.41800000000E+01 0.  1.
         -5    1    3    3    0  502  0.68047301722E+02 -0.21714201655E+02 -0.96919180176E+02  0.12046884125E+03  0.41800000000E+01 0.  1.
        -11    1    1    2    0    0 -0.18508827286E+02  0.37098471658E+01  0.12913324535E+02  0.22871239670E+02  0.00000000000E+00 0. -1.
         11    1    1    2    0    0  0.67776865218E+01  0.42616200690E+02 -0.10935741937E+03  0.11756327133E+03  0.00000000000E+00 0.  1.
</event>
<event>
 7    1  0.5109948E-006  0.1097881E+03  0.7561462E-02  0.1260963E+00
         -2   -1    0    0    0  501 -0.00000000000E+00  0.00000000000E+00  0.14294445308E+03  0.14294445308E+03  0.00000000000E+00 0.  1.
          2   -1    0    0  501    0  0.00000000000E+00 -0.00000000000E+00 -0.12402444765E+03  0.12402444765E+03  0.00000000000E+00 0. -1.
         23    2    1    2    0    0  0.84610621740E+01  0.73693952182E+02  0.40327685412E+02  0.15090188347E+03  0.12507065228E+03 0.  0.
          5    1    3    3  502    0 -0.52145493872E+02  0.33350929744E+01  0.16189022534E+02  0.54861937870E+02  0.41800000000E+01 0.  1.
         -5    1    3    3    0  502  0.60606556046E+02  0.70358859208E+02  0.24138662878E+02  0.96039945597E+02  0.41800000000E+01 0.  1.
        -11    1    1    2    0    0 -0.61989417103E+01 -0.46306278909E+02 -0.55326042073E+02  0.72413184408E+02  0.00000000000E+00 0. -1.
         11    1    1    2    0    0 -0.22621204637E+01 -0.27387673273E+02  0.33918362091E+02  0.43653832859E+02  0.00000000000E+00 0.  1.
</event>
<event>
 7    1  0.5109948E-006  0.1153626E+03  0.7561462E-02  0.1250949E+00
         -1   -1    0    0    0  501 -0.00000000000E+00  0.00000000000E+00  0.21863915990E+03  0.21863915990E+03  0.00000000000E+00 0.  1.
          1   -1    0    0  501    0  0.00000000000E+00 -0.00000000000E+00 -0.84255839841E+02  0.84255839841E+02  0.00000000000E+00 0. -1.
         23    2    1    2    0    0 -0.22290286016E+02 -0.53684600892E+02  0.14161461453E+03  0.19768662976E+03  0.12508561594E+03 0.  0.
          5    1    3    3  502    0 -0.41809071570E+02  0.25069266155E+02  0.23374455277E+02  0.54224571281E+02  0.41800000000E+01 0. -1.
         -5    1    3    3    0  502  0.19518785554E+02 -0.78753867047E+02  0.11824015925E+03  0.14346205848E+03  0.41800000000E+01 0. -1.
        -11    1    1    2    0    0 -0.30092270098E+02  0.82268988510E+01  0.11693629585E+02  0.33316175609E+02  0.00000000000E+00 0.  1.
         11    1    1    2    0    0  0.52382556114E+02  0.45457702041E+02 -0.18924924057E+02  0.71892194364E+02  0.00000000000E+00 0. -1.
</event>
<event>
 7    1  0.5109948E-006  0.7304914E+02  0.7561462E-02  0.1350021E+00
          1   -1    0    0  501    0  0.00000000000E+00  0.00000000000E+00  0.89767509524E+02  0.89767509524E+02  0.00000000000E+00 0. -1.
         -1   -1    0    0    0  501 -0.00000000000E+00 -0.00000000000E+00 -0.14496421389E+03  0.14496421389E+03  0.00000000000E+00 0.  1.
         23    2    1    2    0    0 -0.15691155459E+02 -0.40966865262E+01 -0.66608809577E+02  0.14263900098E+03  0.12508459493E+03 0.  0.
          5    1    3    3  502    0  0.54130200562E+01 -0.31188242800E+02 -0.93513032867E+02  0.98813799598E+02  0.41800000000E+01 0. -1.
         -5    1    3    3    0  502 -0.21104175515E+02  0.27091556274E+02  0.26904223290E+02  0.43825201384E+02  0.41800000000E+01 0. -1.
        -11    1    1    2    0    0  0.22549950208E+02  0.38432655238E+02 -0.16291159266E+02  0.47444400231E+02  0.00000000000E+00 0.  1.
         11    1    1    2    0    0 -0.68587947495E+01 -0.34335968712E+02  0.27703264476E+02  0.44648322202E+02  0.00000000000E+00 0. -1.
</event>
<event>
 7    1  0.5109948E-006  0.2117405E+03  0.7561462E-02  0.1140195E+00
         -2   -1    0    0    0  501 -0.00000000000E+00  0.00000000000E+00  0.91953891803E+02  0.91953891803E+02  0.00000000000E+00 0.  1.
          2   -1    0    0  501    0  0.00000000000E+00 -0.00000000000E+00 -0.61510950194E+03  0.61510950194E+03  0.00000000000E+00 0. -1.
         23    2    1    2    0    0 -0.68882058126E+02 -0.17706164778E+03 -0.13218490807E+03  0.26304161745E+03  0.12498990977E+03 0.  0.
          5    1    3    3  502    0 -0.41028744894E+02  0.52267944346E+01 -0.13512568209E+02  0.43712002782E+02  0.41800000000E+01 0. -1.
         -5    1    3    3    0  502 -0.27853313232E+02 -0.18228844221E+03 -0.11867233986E+03  0.21932961466E+03  0.41800000000E+01 0. -1.
        -11    1    1    2    0    0  0.40733324634E+02  0.15871506733E+03 -0.24863087729E+03  0.29777002783E+03  0.00000000000E+00 0.  1.
         11    1    1    2    0    0  0.28148733492E+02  0.18346580449E+02 -0.14233982477E+03  0.14625174846E+03  0.00000000000E+00 0. -1.
</event>
<event>
 7    1  0.5109948E-006  0.1259754E+03  0.7561462E-02  0.1233553E+00
          1   -1    0    0  501    0  0.00000000000E+00  0.00000000000E+00  0.45917892901E+03  0.45917892901E+03  0.00000000000E+00 0. -1.
         -1   -1    0    0    0  501 -0.00000000000E+00 -0.00000000000E+00 -0.40053442598E+02  0.40053442598E+02  0.00000000000E+00 0.  1.
         23    2    1    2    0    0 -0.78470767741E+02 -0.16467994285E+01  0.17736398240E+03  0.23079402543E+03  0.12509007388E+03 0.  0.
          5    1    3    3  502    0 -0.10531807649E+03  0.12412597980E+02  0.93203358945E+02  0.14124556043E+03  0.41800000000E+01 0. -1.
         -5    1    3    3    0  502  0.26847308748E+02 -0.14059397408E+02  0.84160623459E+02  0.89548464998E+02  0.41800000000E+01 0. -1.
        -11    1    1    2    0    0  0.77763433323E+02  0.32561823113E+02  0.19417604594E+03  0.21168788511E+03  0.00000000000E+00 0. -1.
         11    1    1    2    0    0  0.70733441758E+00 -0.30915023685E+02  0.47585458072E+02  0.56750461068E+02  0.00000000000E+00 0.  1.
</event>
<event>
 7    1  0.5109948E-006  0.9385027E+02  0.7561462E-02  0.1293787E+00
          1   -1    0    0  501    0  0.00000000000E+00  0.00000000000E+00  0.10648545159E+04  0.10648545159E+04  0.00000000000E+00 0. -1.
         -1   -1    0    0    0  501 -0.00000000000E+00 -0.00000000000E+00 -0.14056977438E+02  0.14056977438E+02  0.00000000000E+00 0.  1.
         23    2    1    2    0    0 -0.28768313401E+02  0.48385253300E+02  0.58565390093E+03  0.60150368256E+03  0.12508972729E+03 0.  0.
          5    1    3    3  502    0 -0.30404890442E+02 -0.56979578407E+01  0.49402029249E+03  0.49500550085E+03  0.41800000000E+01 0.  1.
         -5    1    3    3    0  502  0.16365770414E+01  0.54083211140E+02  0.91633608441E+02  0.10649818171E+03  0.41800000000E+01 0.  1.
        -11    1    1    2    0    0  0.54427297571E+02 -0.53200330575E+02  0.40092940228E+03  0.40808944057E+03  0.00000000000E+00 0. -1.
         11    1    1    2    0    0 -0.25658984170E+02  0.48150772755E+01  0.64214235221E+02  0.69318370169E+02  0.00000000000E+00 0.  1.
</event>
<event>
 7    1  0.5109948E-006  0.9790832E+02  0.7561462E-02  0.1284757E+00
          1   -1    0    0  501    0  0.00000000000E+00  0.00000000000E+00  0.15880882276E+03  0.15880882276E+03  0.00000000000E+00 0. -1.
         -1   -1    0    0    0  501 -0.00000000000E+00 -0.00000000000E+00 -0.86354304402E+02  0.86354304402E+02  0.00000000000E+00 0.  1.
         23    2    1    2    0    0 -0.31752954505E+02 -0.30344679593E+01  0.89368886788E+01  0.12940033596E+03  0.12508845211E+03 0.  0.
          5    1    3    3  502    0 -0.30257480094E+02  0.53725255513E+02 -0.20750669497E+02  0.65191877301E+02  0.41800000000E+01 0.  1.
         -5    1    3    3    0  502 -0.14954744115E+01 -0.56759723472E+02  0.29687558176E+02  0.64208458654E+02  0.41800000000E+01 0.  1.
        -11    1    1    2    0    0 -0.10567583866E+00  0.33204822594E+02  0.63756181910E+02  0.71884783804E+02  0.00000000000E+00 0.  1.
         11    1    1    2    0    0  0.31858630344E+02 -0.30170354635E+02 -0.23855223392E+00  0.43878007399E+02  0.00000000000E+00 0. -1.
</event>
<event>
 7    1  0.5109948E-006  0.1107832E+03  0.7561462E-02  0.1259126E+00
         -2   -1    0    0    0  501 -0.00000000000E+00  0.00000000000E+00  0.52109211002E+02  0.52109211002E+02  0.00000000000E+00 0.  1.
          2   -1    0    0  501    0  0.00000000000E+00 -0.00000000000E+00 -0.33965356214E+03  0.33965356214E+03  0.00000000000E+00 0. -1.
         23    2    1    2    0    0  0.25352116928E+02 -0.72397203943E+02 -0.18308166571E+03  0.23462954243E+03  0.12509212961E+03 0.  0.
          5    1    3    3  502    0 -0.20664489528E+02 -0.83462806187E+02 -0.16026706854E+03  0.18192324426E+03  0.41800000000E+01 0. -1.
         -5    1    3    3    0  502  0.46016606455E+02  0.11065602244E+02 -0.22814597172E+02  0.52706298170E+02  0.41800000000E+01 0. -1.
        -11    1    1    2    0    0  0.15098689693E+01  0.56975132284E+02 -0.10185388137E+02  0.57898078850E+02  0.00000000000E+00 0.  1.
         11    1    1    2    0    0 -0.26861985897E+02  0.15422071659E+02 -0.94277297292E+02  0.99235151863E+02  0.00000000000E+00 0. -1.
</event>
<event>
 7    1  0.5109948E-006  0.1102802E+03  0.7561462E-02  0.1260052E+00
         -1   -1    0    0    0  501 -0.00000000000E+00  0.00000000000E+00  0.73495097941E+02  0.73495097941E+02  0.00000000000E+00 0.  1.
          1   -1    0    0  501    0  0.00000000000E+00 -0.00000000000E+00 -0.20295394682E+03  0.20295394682E+03  0.00000000000E+00 0. -1.
         23    2    1    2    0    0 -0.52997691439E+02  0.57328155877E+01 -0.53875996707E+02  0.14625941061E+03  0.12509025421E+03 0.  0.
          5    1    3    3  502    0 -0.75651487982E+02  0.46610788950E+02 -0.37884095603E+02  0.96687074525E+02  0.41800000000E+01 0.  1.
         -5    1    3    3    0  502  0.22653796544E+02 -0.40877973362E+02 -0.15991901104E+02  0.49572336086E+02  0.41800000000E+01 0.  1.
        -11    1    1    2    0    0  0.53620919958E+02  0.21260339895E+02 -0.90509202822E+01  0.58387706476E+02  0.00000000000E+00 0.  1.
         11    1    1    2    0    0 -0.62322851947E+00 -0.26993155482E+02 -0.66531931888E+02  0.71801927672E+02  0.00000000000E+00 0. -1.
</event>
<event>
 7    1  0.5109948E-006  0.8607380E+02  0.7561462E-02  0.1312648E+00
          1   -1    0    0  501    0  0.00000000000E+00  0.00000000000E+00  0.13958026754E+03  0.13958026754E+03  0.00000000000E+00 0. -1.
         -1   -1    0    0    0  501 -0.00000000000E+00 -0.00000000000E+00 -0.15027379765E+03  0.15027379765E+03  0.00000000000E+00 0.  1.
         23    2    1    2    0    0 -0.27768226285E+02  0.46026683519E+02 -0.82813005353E+02  0.15935761172E+03  0.12508926641E+03 0.  0.
          5    1    3    3  502    0 -0.15721011719E+02  0.48666547929E+00 -0.10561102388E+03  0.10685760533E+03  0.41800000000E+01 0. -1.
         -5    1    3    3    0  502 -0.12047214566E+02  0.45540018039E+02  0.22798018525E+02  0.52500006386E+02  0.41800000000E+01 0. -1.
        -11    1    1    2    0    0  0.49880024441E+02  0.77107914512E+01  0.29834027834E+02  0.58630558242E+02  0.00000000000E+00 0.  1.
         11    1    1    2    0    0 -0.22111798156E+02 -0.53737474970E+02  0.42285447412E+02  0.71865895226E+02  0.00000000000E+00 0. -1.
</event>
<event>
 7    1  0.5109948E-006  0.1122632E+03  0.7561462E-02  0.1256435E+00
          2   -1    0    0  501    0  0.00000000000E+00  0.00000000000E+00  0.10563225630E+03  0.10563225630E+03  0.00000000000E+00 0. -1.
         -2   -1    0    0    0  501 -0.00000000000E+00 -0.00000000000E+00 -0.14180011662E+03  0.14180011662E+03  0.00000000000E+00 0.  1.
         23    2    1    2    0    0 -0.15373721905E+02 -0.36620667080E+02 -0.61610336210E+02  0.14498702836E+03  0.12509188736E+03 0.  0.
          5    1    3    3  502    0 -0.66449469458E+02  0.26924223279E+01 -0.32596829002E+02  0.74180905833E+02  0.41800000000E+01 0. -1.
         -5    1    3    3    0  502  0.51075747554E+02 -0.39313089408E+02 -0.29013507208E+02  0.70806122528E+02  0.41800000000E+01 0. -1.
        -11    1    1    2    0    0  0.88017824913E+01 -0.27485357730E+02 -0.78536552428E+01  0.29909800489E+02  0.00000000000E+00 0.  1.
         11    1    1    2    0    0  0.65719394134E+01  0.64106024810E+02  0.33296131137E+02  0.72535544068E+02  0.00000000000E+00 0. -1.
</event>
<event>
 6    1  0.5109948E-006  0.6880842E+02  0.7561462E-02  0.1364193E+00
         -4   -1    0    0    0  501 -0.00000000000E+00  0.00000000000E+00  0.20287221867E+03  0.20287221867E+03  0.00000000000E+00 0.  1.
          4   -1    0    0  501    0  0.00000000000E+00 -0.00000000000E+00 -0.94895818056E+02  0.94895818056E+02  0.00000000000E+00 0. -1.
          5    1    1    2  502    0  0.30141909262E+02 -0.43170252446E+01 -0.48614463448E+02  0.57515301071E+02  0.41800000000E+01 0. -1.
         -5    1    1    2    0  502 -0.33529144301E+02 -0.10487677424E+02  0.14484262888E+03  0.14910081970E+03  0.41800000000E+01 0.  1.
        -11    1    1    2    0    0 -0.32091600070E+02 -0.21849936266E+01  0.33299706780E+02  0.46298115122E+02  0.00000000000E+00 0. -1.
         11    1    1    2    0    0  0.35478835109E+02  0.16989696295E+02 -0.21551471598E+02  0.44853800830E+02  0.00000000000E+00 0.  1.
</event>
<event>
 7    1  0.5109948E-006  0.1194468E+03  0.7561462E-02  0.1244013E+00
         -1   -1    0    0    0  501 -0.00000000000E+00  0.00000000000E+00  0.35130409332E+03  0.35130409332E+03  0.00000000000E+00 0.  1.
          1   -1    0    0  501    0  0.00000000000E+00 -0.00000000000E+00 -0.41224273991E+02  0.41224273991E+02  0.00000000000E+00 0. -1.
         23    2    1    2    0    0  0.48503723049E+02  0.16075474596E+02  0.19484548205E+03  0.23711530347E+03  0.12509145946E+03 0.  0.
          5    1    3    3  502    0  0.26480846786E+02 -0.54681491285E+02  0.88602720104E+02  0.10751379049E+03  0.41800000000E+01 0.  1.
         -5    1    3    3    0  502  0.22022876262E+02  0.70756965881E+02  0.10624276195E+03  0.12960151298E+03  0.41800000000E+01 0.  1.
        -11    1    1    2    0    0  0.21615805924E+02  0.15771786218E+02  0.36703067141E+02  0.45421442555E+02  0.00000000000E+00 0.  1.
         11    1    1    2    0    0 -0.70119528972E+02 -0.31847260813E+02  0.78531270135E+02  0.10999162129E+03  0.00000000000E+00 0. -1.
</event>
<event>
 7    1  0.5109948E-006  0.1002538E+03  0.7561462E-02  0.1279763E+00
         -1   -1    0    0    0  501 -0.00000000000E+00  0.00000000000E+00  0.18179406621E+02  0.18179406621E+02  0.00000000000E+00 0.  1.
          1   -1    0    0  501    0  0.00000000000E+00 -0.00000000000E+00 -0.69686426592E+03  0.69686426592E+03  0.00000000000E+00 0. -1.
         23    2    1    2    0    0 -0.29924363348E+01  0.26592822947E+02 -0.31217584462E+03  0.33736821926E+03  0.12508966580E+03 0.  0.
          5    1    3    3  502    0  0.46175042494E+02  0.36539606784E+02 -0.77870765467E+02  0.97716968473E+02  0.41800000000E+01 0.  1.
         -5    1    3    3    0  502 -0.49167478829E+02 -0.99467838362E+01 -0.23430507916E+03  0.23965125078E+03  0.41800000000E+01 0.  1.
        -11    1    1    2    0    0 -0.39494726842E+02 -0.28347654854E+02 -0.19946039093E+03  0.20529946550E+03  0.00000000000E+00 0.  1.
         11    1    1    2    0    0  0.42487163176E+02  0.17548319070E+01 -0.16704862374E+03  0.17237598778E+03  0.00000000000E+00 0. -1.
</event>
<event>
 7    1  0.5109948E-006  0.1124507E+03  0.7561462E-02  0.1256098E+00
          1   -1    0    0  501    0  0.00000000000E+00  0.00000000000E+00  0.12369746316E+03  0.12369746316E+03  0.00000000000E+00 0. -1.
         -1   -1    0    0    0  501 -0.00000000000E+00 -0.00000000000E+00 -0.15817352316E+03  0.15817352316E+03  0.00000000000E+00 0.  1.
         23    2    1    2    0    0 -0.37256393256E+02 -0.68783943732E+02 -0.60139550779E+02  0.15933059186E+03  0.12510076810E+03 0.  0.
          5    1    3    3  502    0  0.93042114627E+01 -0.64397106672E+02  0.18470433553E+02  0.67765662501E+02  0.41800000000E+01 0. -1.
         -5    1    3    3    0  502 -0.46560604718E+02 -0.43868370608E+01 -0.78609984332E+02  0.91564929355E+02  0.41800000000E+01 0. -1.
        -11    1    1    2    0    0  0.48155997660E+02  0.82319131297E+02  0.36437054446E+02  0.10209357680E+03  0.00000000000E+00 0. -1.
         11    1    1    2    0    0 -0.10899604404E+02 -0.13535187564E+02 -0.10773563662E+02  0.20446817663E+02  0.00000000000E+00 0.  1.
</event>
<event>
 7    1  0.5109948E-006  0.1220872E+03  0.7561462E-02  0.1239693E+00
         -2   -1    0    0    0  501 -0.00000000000E+00  0.00000000000E+00  0.29667256090E+02  0.29667256090E+02  0.00000000000E+00 0.  1.
          2   -1    0    0  501    0  0.00000000000E+00 -0.00000000000E+00 -0.58019543076E+03  0.58019543076E+03  0.00000000000E+00 0. -1.
         23    2    1    2    0    0  0.75302854265E+02 -0.33580875516E+02 -0.29197647528E+03  0.32816998558E+03  0.12508829784E+03 0.  0.
          5    1    3    3  502    0  0.10927148649E+03 -0.32895830687E+02 -0.20429831312E+03  0.23404629153E+03  0.41800000000E+01 0. -1.
         -5    1    3    3    0  502 -0.33968632221E+02 -0.68504482877E+00 -0.87678162162E+02  0.94123694050E+02  0.41800000000E+01 0. -1.
        -11    1    1    2    0    0 -0.50496659974E+02 -0.40720390013E+01 -0.20743235740E+03  0.21352910122E+03  0.00000000000E+00 0.  1.
         11    1    1    2    0    0 -0.24806194291E+02  0.37652914517E+02 -0.51119341987E+02  0.68163600052E+02  0.00000000000E+00 0. -1.
</event>
<event>
 7    1  0.5109948E-006  0.9366398E+02  0.7561462E-02  0.1294214E+00
         -2   -1    0    0    0  501 -0.00000000000E+00  0.00000000000E+00  0.36216312129E+02  0.36216312129E+02  0.00000000000E+00 0.  1.
          2   -1    0    0  501    0  0.00000000000E+00 -0.00000000000E+00 -0.40462398345E+03  0.40462398345E+03  0.00000000000E+00 0. -1.
         23    2    1    2    0    0  0.35566241224E+02 -0.38465069978E+02 -0.19359192326E+03  0.23636853056E+03  0.12509088841E+03 0.  0.
          5    1    3    3  502    0 -0.40152723097E+02 -0.42967978951E+02 -0.72879387993E+02  0.93740951465E+02  0.41800000000E+01 0. -1.
         -5    1    3    3    0  502  0.75718964321E+02  0.45029089728E+01 -0.12071253527E+03  0.14262757909E+03  0.41800000000E+01 0. -1.
        -11    1    1    2    0    0 -0.96915571895E+01  0.96781461004E+01  0.91542647869E+01  0.16474020653E+02  0.00000000000E+00 0.  1.
         11    1    1    2    0    0 -0.25874684035E+02  0.28786923878E+02 -0.18397001285E+03  0.18799774437E+03  0.00000000000E+00 0. -1.
</event>
<event>
 7    1  0.5109948E-006  0.1143190E+03  0.7561462E-02  0.1252774E+00
         -2   -1    0    0    0  501 -0.00000000000E+00  0.00000000000E+00  0.28271884672E+02  0.28271884672E+02  0.00000000000E+00 0.  1.
          2   -1    0    0  501    0  0.00000000000E+00 -0.00000000000E+00 -0.57969441748E+03  0.57969441748E+03  0.00000000000E+00 0. -1.
         23    2    1    2    0    0  0.46448257541E+02 -0.42956237068E+02 -0.25205462802E+03  0.28841287878E+03  0.12509106365E+03 0.  0.
          5    1    3    3  502    0  0.35184911176E+02  0.31830319385E+02 -0.17085147629E+03  0.17736641891E+03  0.41800000000E+01 0. -1.
         -5    1    3    3    0  502  0.11263346364E+02 -0.74786556452E+02 -0.81203151735E+02  0.11104645987E+03  0.41800000000E+01 0. -1.
        -11    1    1    2    0    0 -0.37378939054E+02 -0.19494311106E+02 -0.70482196037E+02  0.82127664088E+02  0.00000000000E+00 0.  1.
         11    1    1    2    0    0 -0.90693184867E+01  0.62450548174E+02 -0.22888570875E+03  0.23742575929E+03  0.00000000000E+00 0. -1.
</event>
<event>
 7    1  0.5109948E-006  0.1096871E+03  0.7561462E-02  0.1261150E+00
         -1   -1    0    0    0  501 -0.00000000000E+00  0.00000000000E+00  0.11837206445E+03  0.11837206445E+03  0.00000000000E+00 0.  1.
          1   -1    0    0  501    0  0.00000000000E+00 -0.00000000000E+00 -0.11065449498E+03  0.11065449498E+03  0.00000000000E+00 0. -1.
         23    2    1    2    0    0 -0.23933624062E+02 -0.33118076135E+02  0.32249195333E+02  0.12776692270E+03  0.11668226347E+03 0.  0.
          5    1    3    3  502    0 -0.65885994078E+02 -0.42450250405E+02  0.31517269122E+02  0.84580131402E+02  0.41800000000E+01 0. -1.
         -5    1    3    3    0  502  0.41952370016E+02  0.93321742698E+01  0.73192621108E+00  0.43186791297E+02  0.41800000000E+01 0.  1.
        -11    1    1    2    0    0 -0.33633168858E+02  0.63851458676E+01 -0.35834560240E+01  0.34420942640E+02  0.00000000000E+00 0. -1.
         11    1    1    2    0    0  0.57566792920E+02  0.26732930267E+02 -0.20948169842E+02  0.66838694089E+02  0.00000000000E+00 0.  1.
</event>
<event>
 7    1  0.5109948E-006  0.2906861E+03  0.7561462E-02  0.1089991E+00
          1   -1    0    0  501    0  0.00000000000E+00  0.00000000000E+00  0.13365577308E+04  0.13365577308E+04  0.00000000000E+00 0. -1.
         -1   -1    0    0    0  501 -0.00000000000E+00 -0.00000000000E+00 -0.91386095748E+02  0.91386095748E+02  0.00000000000E+00 0.  1.
         23    2    1    2    0    0 -0.44935204684E+02  0.27788189571E+03  0.26666419045E+03  0.40497604916E+03  0.11686868416E+03 0.  0.
          5    1    3    3  502    0 -0.20519504865E+02  0.50291560239E+02  0.12345231338E+03  0.13493790124E+03  0.41800000000E+01 0. -1.
         -5    1    3    3    0  502 -0.24415699819E+02  0.22759033548E+03  0.14321187707E+03  0.27003814792E+03  0.41800000000E+01 0.  1.
        -11    1    1    2    0    0  0.89845060082E+01 -0.25540249774E+03  0.82125224196E+03  0.86009673998E+03  0.00000000000E+00 0.  1.
         11    1    1    2    0    0  0.35950698676E+02 -0.22479397974E+02  0.15725520263E+03  0.16287103740E+03  0.00000000000E+00 0. -1.
</event>
<event>
 7    1  0.5109948E-006  0.7826959E+02  0.7561462E-02  0.1334035E+00
          1   -1    0    0  501    0  0.00000000000E+00  0.00000000000E+00  0.47044697787E+03  0.47044697787E+03  0.00000000000E+00 0. -1.
         -1   -1    0    0    0  501 -0.00000000000E+00 -0.00000000000E+00 -0.34578695656E+02  0.34578695656E+02  0.00000000000E+00 0.  1.
         23    2    1    2    0    0 -0.66273560021E+02 -0.96012409627E+01  0.23475601832E+03  0.27430206736E+03  0.12508743915E+03 0.  0.
          5    1    3    3  502    0 -0.46512338692E+02  0.19724403438E+02  0.16724533687E+02  0.53381946093E+02  0.41800000000E+01 0. -1.
         -5    1    3    3    0  502 -0.19761221329E+02 -0.29325644401E+02  0.21803148464E+03  0.22092012127E+03  0.41800000000E+01 0. -1.
        -11    1    1    2    0    0  0.11893519628E+02 -0.64589634623E+01 -0.68506470654E+01  0.15169224877E+02  0.00000000000E+00 0.  1.
         11    1    1    2    0    0  0.54380040392E+02  0.16060204425E+02  0.20796291096E+03  0.21555438129E+03  0.00000000000E+00 0. -1.
</event>
<event>
 7    1  0.5109948E-006  0.1169033E+03  0.7561462E-02  0.1248295E+00
          1   -1    0    0  501    0  0.00000000000E+00  0.00000000000E+00  0.56816997950E+03  0.56816997950E+03  0.00000000000E+00 0. -1.
         -1   -1    0    0    0  501 -0.00000000000E+00 -0.00000000000E+00 -0.31055791929E+02  0.31055791929E+02  0.00000000000E+00 0.  1.
         23    2    1    2    0    0 -0.77175822441E+02  0.12280840216E+02  0.30970839184E+03  0.34303594885E+03  0.12508975827E+03 0.  0.
          5    1    3    3  502    0  0.22206027924E+02  0.16415340863E+02  0.16525843473E+03  0.16760189063E+03  0.41800000000E+01 0. -1.
         -5    1    3    3    0  502 -0.99381850365E+02 -0.41345006474E+01  0.14444995710E+03  0.17543405822E+03  0.41800000000E+01 0. -1.
        -11    1    1    2    0    0  0.84813591226E+01 -0.33395431097E+02  0.13387263818E+03  0.13823556534E+03  0.00000000000E+00 0. -1.
         11    1    1    2    0    0  0.68694463319E+02  0.21114590881E+02  0.93533157547E+02  0.11795425723E+03  0.00000000000E+00 0.  1.
</event>
<event>
 7    1  0.5109948E-006  0.9292686E+02  0.7561462E-02  0.1295915E+00
          2   -1    0    0  501    0  0.00000000000E+00  0.00000000000E+00  0.16523821486E+03  0.16523821486E+03  0.00000000000E+00 0. -1.
         -2   -1    0    0    0  501 -0.00000000000E+00 -0.00000000000E+00 -0.19700447596E+03  0.19700447596E+03  0.00000000000E+00 0.  1.
         23    2    1    2    0    0 -0.27638597682E+02  0.32448537229E+02 -0.15673078155E+03  0.20500991326E+03  0.12509087496E+03 0.  0.
          5    1    3    3  502    0 -0.55982639133E+02 -0.15634201369E+02 -0.28031227171E+02  0.64666113487E+02  0.41800000000E+01 0.  1.
         -5    1    3    3    0  502  0.28344041451E+02  0.48082738597E+02 -0.12869955438E+03  0.14034379977E+03  0.41800000000E+01 0.  1.
        -11    1    1    2    0    0  0.44045412604E+02 -0.12512451985E+02  0.21480410328E+02  0.50576356669E+02  0.00000000000E+00 0.  1.
         11    1    1    2    0    0 -0.16406814922E+02 -0.19936085243E+02  0.10348411012E+03  0.10665642089E+03  0.00000000000E+00 0. -1.
</event>
<event>
 7    1  0.5109948E-006  0.5584360E+02  0.7561462E-02  0.1416151E+00
         -2   -1    0    0    0  501 -0.00000000000E+00  0.00000000000E+00  0.53880258640E+02  0.53880258640E+02  0.00000000000E+00 0.  1.
          2   -1    0    0  501    0  0.00000000000E+00 -0.00000000000E+00 -0.22907481215E+03  0.22907481215E+03  0.00000000000E+00 0. -1.
         23    2    1    2    0    0  0.36879297381E+01  0.16966476170E+01 -0.67767839679E+02  0.14232577377E+03  0.12509063252E+03 0.  0.
          5    1    3    3  502    0 -0.60145074265E+01 -0.19710713977E+02  0.32801057297E+02  0.38962396036E+02  0.41800000000E+01 0. -1.
         -5    1    3    3    0  502  0.97024371647E+01  0.21407361594E+02 -0.10056889698E+03  0.10336337773E+03  0.41800000000E+01 0. -1.
        -11    1    1    2    0    0 -0.31888419529E+02 -0.15424562762E+02 -0.10304099666E+03  0.10895978812E+03  0.00000000000E+00 0. -1.
         11    1    1    2    0    0  0.28200489790E+02  0.13727915145E+02 -0.43857171760E+01  0.31669508897E+02  0.00000000000E+00 0.  1.
</event>
<event>
 7    1  0.5109948E-006  0.1915292E+03  0.7561462E-02  0.1157089E+00
          1   -1    0    0  501    0  0.00000000000E+00  0.00000000000E+00  0.27856970654E+03  0.27856970654E+03  0.00000000000E+00 0. -1.
         -1   -1    0    0    0  501 -0.00000000000E+00 -0.00000000000E+00 -0.14975396113E+03  0.14975396113E+03  0.00000000000E+00 0.  1.
         23    2    1    2    0    0  0.10478624174E+03 -0.13138055564E+03  0.25157895826E+02  0.21100063337E+03  0.12508933089E+03 0.  0.
          5    1    3    3  502    0  0.96701068253E+01 -0.87893806368E+02 -0.28997588482E+02  0.93151300053E+02  0.41800000000E+01 0. -1.
         -5    1    3    3    0  502  0.95116134910E+02 -0.43486749270E+02  0.54155484308E+02  0.11784933332E+03  0.41800000000E+01 0. -1.
        -11    1    1    2    0    0 -0.11965932667E+03  0.10325574945E+03  0.94783294142E+02  0.18429318246E+03  0.00000000000E+00 0. -1.
         11    1    1    2    0    0  0.14873084930E+02  0.28124806183E+02  0.88745554446E+01  0.33029851839E+02  0.00000000000E+00 0.  1.
</event>
<event>
 7    1  0.5109948E-006  0.7152350E+02  0.7561462E-02  0.1354988E+00
          1   -1    0    0  501    0  0.00000000000E+00  0.00000000000E+00  0.22261153936E+03  0.22261153936E+03  0.00000000000E+00 0. -1.
         -1   -1    0    0    0  501 -0.00000000000E+00 -0.00000000000E+00 -0.77983789884E+02  0.77983789884E+02  0.00000000000E+00 0.  1.
         23    2    1    2    0    0  0.19282936847E+02  0.13378491291E+01 -0.23087874940E+01  0.12656736120E+03  0.12506136465E+03 0.  0.
          5    1    3    3  502    0  0.91130580713E+01 -0.27103104995E+02  0.54729331482E+02  0.61890211280E+02  0.41800000000E+01 0.  1.
         -5    1    3    3    0  502  0.10169878776E+02  0.28440954124E+02 -0.57038118976E+02  0.64677149923E+02  0.41800000000E+01 0.  1.
        -11    1    1    2    0    0  0.29410977129E+02  0.14042481084E+02  0.22732587301E+02  0.39736222468E+02  0.00000000000E+00 0.  1.
         11    1    1    2    0    0 -0.48693913976E+02 -0.15380330213E+02  0.12420394967E+03  0.13429174558E+03  0.00000000000E+00 0. -1.
</event>
<event>
 7    1  0.5109948E-006  0.1553084E+03  0.7561462E-02  0.1194098E+00
          2   -1    0    0  501    0  0.00000000000E+00  0.00000000000E+00  0.47896879040E+03  0.47896879040E+03  0.00000000000E+00 0. -1.
         -2   -1    0    0    0  501 -0.00000000000E+00 -0.00000000000E+00 -0.60775045846E+02  0.60775045846E+02  0.00000000000E+00 0.  1.
         23    2    1    2    0    0 -0.62595990210E+02  0.11257490673E+03  0.17665770500E+03  0.25188626446E+03  0.12508947945E+03 0.  0.
          5    1    3    3  502    0 -0.78649898056E+01  0.11980020678E+03  0.14429897766E+03  0.18775946038E+03  0.41800000000E+01 0. -1.
         -5    1    3    3    0  502 -0.54731000404E+02 -0.72253000458E+01  0.32358727344E+02  0.64126804078E+02  0.41800000000E+01 0. -1.
        -11    1    1    2    0    0  0.61969758258E+02 -0.73908776070E+02  0.91605050877E+02  0.13301971081E+03  0.00000000000E+00 0.  1.
         11    1    1    2    0    0  0.62623195178E+00 -0.38666130662E+02  0.14993098867E+03  0.15483786097E+03  0.00000000000E+00 0. -1.
</event>
<event>
 7    1  0.5109948E-006  0.1987538E+03  0.7561462E-02  0.1150795E+00
         -2   -1    0    0    0  501 -0.00000000000E+00  0.00000000000E+00  0.28979836887E+02  0.28979836887E+02  0.00000000000E+00 0.  1.
          2   -1    0    0  501    0  0.00000000000E+00 -0.00000000000E+00 -0.15920701305E+04  0.15920701305E+04  0.00000000000E+00 0. -1.
         23    2    1    2    0    0  0.15222436301E+03 -0.10616317143E+03 -0.80768185054E+03  0.83811726670E+03  0.12509078854E+03 0.  0.
          5    1    3    3  502    0  0.30538887461E+02 -0.56841467254E+02 -0.10539410090E+03  0.12364855418E+03  0.41800000000E+01 0.  1.
         -5    1    3    3    0  502  0.12168547555E+03 -0.49321704174E+02 -0.70228774965E+03  0.71446871252E+03  0.41800000000E+01 0.  1.
        -11    1    1    2    0    0 -0.78161176240E+02  0.10033605076E+03 -0.54963559724E+03  0.56415935896E+03  0.00000000000E+00 0. -1.
         11    1    1    2    0    0 -0.74063186767E+02  0.58271206705E+01 -0.20577284583E+03  0.21877334173E+03  0.00000000000E+00 0.  1.
</event>
<event>
 6    1  0.5109948E-006  0.1430059E+03  0.7561462E-02  0.1209341E+00
         -1   -1    0    0    0  501 -0.00000000000E+00  0.00000000000E+00  0.57738137705E+02  0.57738137705E+02  0.00000000000E+00 0.  1.
          1   -1    0    0  501    0  0.00000000000E+00 -0.00000000000E+00 -0.58816249574E+03  0.58816249574E+03  0.00000000000E+00 0. -1.
          5    1    1    2  502    0 -0.43074438665E+02  0.10970985353E+03 -0.17809831331E+03  0.21360744564E+03  0.41800000000E+01 0. -1.
         -5    1    1    2    0  502 -0.17734465766E+02 -0.12442712307E+02  0.21513718056E+02  0.30816307861E+02  0.41800000000E+01 0.  1.
        -11    1    1    2    0    0 -0.16665383704E+02  0.52857224706E+01 -0.54778711863E+02  0.57501140418E+02  0.00000000000E+00 0.  1.
         11    1    1    2    0    0  0.77474288135E+02 -0.10255286369E+03 -0.31906105091E+03  0.34397573953E+03  0.00000000000E+00 0. -1.
</event>
<event>
 7    1  0.5109948E-006  0.1268561E+03  0.7561462E-02  0.1232197E+00
          2   -1    0    0  501    0  0.00000000000E+00  0.00000000000E+00  0.40308233679E+03  0.40308233679E+03  0.00000000000E+00 0.  1.
         -2   -1    0    0    0  501 -0.00000000000E+00 -0.00000000000E+00 -0.55875255889E+02  0.55875255889E+02  0.00000000000E+00 0. -1.
         23    2    1    2    0    0  0.10329178274E+03 -0.41843124263E+01  0.16735284967E+03  0.23311226154E+03  0.12509056453E+03 0.  0.
          5    1    3    3  502    0 -0.14188597214E+02 -0.86250021108E+01  0.91615126211E+02  0.93201452257E+02  0.41800000000E+01 0.  1.
         -5    1    3    3    0  502  0.11748037995E+03  0.44406896846E+01  0.75737723460E+02  0.13991080928E+03  0.41800000000E+01 0.  1.
        -11    1    1    2    0    0 -0.92124395243E+02 -0.18228282990E+02  0.17735053258E+03  0.20067980942E+03  0.00000000000E+00 0.  1.
         11    1    1    2    0    0 -0.11167387497E+02  0.22412595417E+02  0.25036986484E+01  0.25165521726E+02  0.00000000000E+00 0. -1.
</event>
<event>
 7    1  0.5109948E-006  0.2384884E+03  0.7561462E-02  0.1120804E+00
         -1   -1    0    0    0  501 -0.00000000000E+00  0.00000000000E+00  0.73189200678E+02  0.73189200678E+02  0.00000000000E+00 0.  1.
          1   -1    0    0  501    0  0.00000000000E+00 -0.00000000000E+00 -0.90528194429E+03  0.90528194429E+03  0.00000000000E+00 0. -1.
         23    2    1    2    0    0  0.21991479788E+03  0.70462369943E+02 -0.48736970871E+03  0.55362941153E+03  0.12509527741E+03 0.  0.
          5    1    3    3  502    0  0.99098877043E+01 -0.15571248310E+02 -0.12225263852E+03  0.12370872918E+03  0.41800000000E+01 0.  1.
         -5    1    3    3    0  502  0.21000491018E+03  0.86033618253E+02 -0.36511707019E+03  0.42992068235E+03  0.41800000000E+01 0.  1.
        -11    1    1    2    0    0 -0.11904610732E+02 -0.57837642079E+01  0.38649621622E+01  0.13788024428E+02  0.00000000000E+00 0.  1.
         11    1    1    2    0    0 -0.20801018715E+03 -0.64678605735E+02 -0.34858799706E+03  0.41105370901E+03  0.00000000000E+00 0. -1.
</event>
<event>
 7    1  0.5109948E-006  0.1190185E+03  0.7561462E-02  0.1244725E+00
          2   -1    0    0  501    0  0.00000000000E+00  0.00000000000E+00  0.23719352332E+03  0.23719352332E+03  0.00000000000E+00 0. -1.
         -2   -1    0    0    0  501 -0.00000000000E+00 -0.00000000000E+00 -0.85367262957E+02  0.85367262957E+02  0.00000000000E+00 0.  1.
         23    2    1    2    0    0  0.76273720283E+02  0.33224594512E+02  0.38197234187E+02  0.15501337964E+03  0.12509422481E+03 0.  0.
          5    1    3    3  502    0  0.89644446941E+02  0.79535110763E+01 -0.17952998671E+02  0.91864943080E+02  0.41800000000E+01 0. -1.
         -5    1    3    3    0  502 -0.13370726658E+02  0.25271083435E+02  0.56150232858E+02  0.63148436555E+02  0.41800000000E+01 0. -1.
        -11    1    1    2    0    0  0.85661206126E+01  0.18007129391E+02  0.37872821639E+02  0.42801702655E+02  0.00000000000E+00 0. -1.
         11    1    1    2    0    0 -0.84839840896E+02 -0.51231723902E+02  0.75756204534E+02  0.12474570398E+03  0.00000000000E+00 0.  1.
</event>
<event>
 7    1  0.5109948E-006  0.1142815E+03  0.7561462E-02  0.1252840E+00
          2   -1    0    0  501    0  0.00000000000E+00  0.00000000000E+00  0.91563308731E+02  0.91563308731E+02  0.00000000000E+00 0. -1.
         -2   -1    0    0    0  501 -0.00000000000E+00 -0.00000000000E+00 -0.16345656078E+03  0.16345656078E+03  0.00000000000E+00 0.  1.
         23    2    1    2    0    0 -0.11425678283E+02 -0.44213262987E+02 -0.66923677492E+02  0.14903425205E+03  0.12508825256E+03 0.  0.
          5    1    3    3  502    0  0.41752014527E+02  0.17373264374E+02 -0.30706740231E+01  0.45518814473E+02  0.41800000000E+01 0.  1.
         -5    1    3    3    0  502 -0.53177692811E+02 -0.61586527361E+02 -0.63853003469E+02  0.10351543758E+03  0.41800000000E+01 0.  1.
        -11    1    1    2    0    0  0.49781500981E+02  0.11108149458E+02  0.12279728049E+02  0.52463135107E+02  0.00000000000E+00 0. -1.
         11    1    1    2    0    0 -0.38355822698E+02  0.33105113528E+02 -0.17249302602E+02  0.53522482349E+02  0.00000000000E+00 0.  1.
</event>
<event>
 7    1  0.5109948E-006  0.1064015E+03  0.7561462E-02  0.1267383E+00
          1   -1    0    0  501    0  0.00000000000E+00  0.00000000000E+00  0.53835789591E+03  0.53835789591E+03  0.00000000000E+00 0. -1.
         -1   -1    0    0    0  501 -0.00000000000E+00 -0.00000000000E+00 -0.30250824095E+02  0.30250824095E+02  0.00000000000E+00 0.  1.
         23    2    1    2    0    0 -0.16639449678E+02 -0.63887904210E+02  0.26327956819E+03  0.29887039969E+03  0.12509536039E+03 0.  0.
          5    1    3    3  502    0  0.14962240505E+02  0.28367853102E+02  0.23481660995E+02  0.39968294105E+02  0.41800000000E+01 0. -1.
         -5    1    3    3    0  502 -0.31601690183E+02 -0.92255757312E+02  0.23979790719E+03  0.25890210558E+03  0.41800000000E+01 0. -1.
        -11    1    1    2    0    0  0.17925459007E+02 -0.99826793578E+00  0.16262468359E+01  0.18026738425E+02  0.00000000000E+00 0.  1.
         11    1    1    2    0    0 -0.12860093293E+01  0.64886172146E+02  0.24320125679E+03  0.25171158190E+03  0.00000000000E+00 0. -1.
</event>
<event>
 7    1  0.6774621E-006  0.2630360E+03  0.7561462E-02  0.1105333E+00
          1   -1    0    0  501    0  0.00000000000E+00  0.00000000000E+00  0.39363075073E+03  0.39363075073E+03  0.00000000000E+00 0. -1.
         -1   -1    0    0    0  501 -0.00000000000E+00 -0.00000000000E+00 -0.18990743677E+03  0.18990743677E+03  0.00000000000E+00 0.  1.
         23    2    1    2    0    0 -0.24610374592E+03  0.44739977577E+02  0.11926915812E+03  0.30404226117E+03  0.12509134723E+03 0.  0.
          5    1    3    3  502    0 -0.57146937592E+01 -0.24663115552E+02  0.27219226225E+02  0.37407027011E+02  0.41800000000E+01 0.  1.
         -5    1    3    3    0  502 -0.24038905216E+03  0.69403093129E+02  0.92049931897E+02  0.26663523416E+03  0.41800000000E+01 0.  1.
        -11    1    1    2    0    0  0.16844727076E+03 -0.32543433670E+02  0.11007588535E+02  0.17191487750E+03  0.00000000000E+00 0. -1.
         11    1    1    2    0    0  0.77656475163E+02 -0.12196543907E+02  0.73446567301E+02  0.10758104882E+03  0.00000000000E+00 0.  1.
</event>
<event>
 7    1  0.5109948E-006  0.1047290E+03  0.7561462E-02  0.1270654E+00
         -1   -1    0    0    0  501 -0.00000000000E+00  0.00000000000E+00  0.98108172713E+03  0.98108172713E+03  0.00000000000E+00 0.  1.
          1   -1    0    0  501    0  0.00000000000E+00 -0.00000000000E+00 -0.20570003934E+02  0.20570003934E+02  0.00000000000E+00 0. -1.
         23    2    1    2    0    0 -0.47091516206E+02  0.54780819139E+02  0.71975874357E+03  0.73408130428E+03  0.12491662540E+03 0.  0.
          5    1    3    3  502    0 -0.47283195605E+01 -0.13885564137E+02  0.70412263186E+01  0.16799320384E+02  0.41800000000E+01 0.  1.
         -5    1    3    3    0  502 -0.42363196646E+02  0.68666383277E+02  0.71271751725E+03  0.71728198389E+03  0.41800000000E+01 0.  1.
        -11    1    1    2    0    0  0.72636706563E+02 -0.32736873981E+02  0.19559175025E+03  0.21119641764E+03  0.00000000000E+00 0.  1.
         11    1    1    2    0    0 -0.25545190357E+02 -0.22043945158E+02  0.45161229381E+02  0.56374009151E+02  0.00000000000E+00 0. -1.
</event>
<event>
 7    1  0.5109948E-006  0.1790233E+03  0.7561462E-02  0.1168752E+00
         -2   -1    0    0    0  501 -0.00000000000E+00  0.00000000000E+00  0.27203373623E+03  0.27203373623E+03  0.00000000000E+00 0. -1.
          2   -1    0    0  501    0  0.00000000000E+00 -0.00000000000E+00 -0.13797310679E+03  0.13797310679E+03  0.00000000000E+00 0.  1.
         23    2    1    2    0    0 -0.13456008661E+03 -0.84532651626E+02  0.94957525668E+02  0.22336876160E+03  0.12499794350E+03 0.  0.
          5    1    3    3  502    0 -0.15440408787E+03 -0.56375430911E+02  0.62653425008E+02  0.17595947154E+03  0.41800000000E+01 0.  1.
         -5    1    3    3    0  502  0.19844001260E+02 -0.28157220715E+02  0.32304100660E+02  0.47409290058E+02  0.41800000000E+01 0.  1.
        -11    1    1    2    0    0  0.94482726619E+02  0.58380919454E+02  0.68486009794E+02  0.13048237783E+03  0.00000000000E+00 0.  1.
         11    1    1    2    0    0  0.40077359990E+02  0.26151732172E+02 -0.29382906019E+02  0.56155703588E+02  0.00000000000E+00 0. -1.
</event>
<event>
 7    1  0.5109948E-006  0.1034354E+03  0.7561462E-02  0.1273233E+00
         -1   -1    0    0    0  501 -0.00000000000E+00  0.00000000000E+00  0.20666182421E+03  0.20666182421E+03  0.00000000000E+00 0.  1.
          1   -1    0    0  501    0  0.00000000000E+00 -0.00000000000E+00 -0.87900533946E+02  0.87900533946E+02  0.00000000000E+00 0. -1.
         23    2    1    2    0    0 -0.18177590406E+02  0.74810627847E+02  0.90580094360E+02  0.17257154917E+03  0.12509648779E+03 0.  0.
          5    1    3    3  502    0 -0.38888064609E+02  0.48247884056E+02 -0.13101059898E+02  0.63476373993E+02  0.41800000000E+01 0. -1.
         -5    1    3    3    0  502  0.20710474203E+02  0.26562743791E+02  0.10368115426E+03  0.10909517518E+03  0.41800000000E+01 0. -1.
        -11    1    1    2    0    0 -0.19213856778E+02  0.73339137712E+01 -0.11314641549E+02  0.23472956713E+02  0.00000000000E+00 0. -1.
         11    1    1    2    0    0  0.37391447184E+02 -0.82144541618E+02  0.39495837456E+02  0.98517852273E+02  0.00000000000E+00 0.  1.
</event>
<event>
 6    1  0.5109948E-006  0.1206384E+03  0.7561462E-02  0.1242048E+00
         -2   -1    0    0    0  501 -0.00000000000E+00  0.00000000000E+00  0.32285250686E+03  0.32285250686E+03  0.00000000000E+00 0.  1.
          2   -1    0    0  501    0  0.00000000000E+00 -0.00000000000E+00 -0.46828107219E+03  0.46828107219E+03  0.00000000000E+00 0. -1.
          5    1    1    2  502    0  0.46814463276E+02 -0.37285607096E+02 -0.48086898771E+02  0.76887142629E+02  0.41800000000E+01 0. -1.
         -5    1    1    2    0  502 -0.72458508152E+02  0.42853408113E+02  0.29388865634E+03  0.30573626660E+03  0.41800000000E+01 0.  1.
        -11    1    1    2    0    0  0.44737462283E+02 -0.38438750625E+02 -0.33795274861E+03  0.34306127495E+03  0.00000000000E+00 0.  1.
         11    1    1    2    0    0 -0.19093417406E+02  0.32870949607E+02 -0.53277574291E+02  0.65448894862E+02  0.00000000000E+00 0. -1.
</event>
<event>
 7    1  0.5109948E-006  0.3283361E+03  0.7561462E-02  0.1071875E+00
          2   -1    0    0  501    0  0.00000000000E+00  0.00000000000E+00  0.63301337048E+03  0.63301337048E+03  0.00000000000E+00 0. -1.
         -2   -1    0    0    0  501 -0.00000000000E+00 -0.00000000000E+00 -0.20235714344E+03  0.20235714344E+03  0.00000000000E+00 0.  1.
         23    2    1    2    0    0 -0.29254610992E+03 -0.12583203254E+03  0.77843537686E+02  0.35089041540E+03  0.12509012919E+03 0.  0.
          5    1    3    3  502    0 -0.60341584948E+02 -0.74624464445E+02 -0.11703796054E+02  0.96769668852E+02  0.41800000000E+01 0. -1.
         -5    1    3    3    0  502 -0.23220452497E+03 -0.51207568095E+02  0.89547333740E+02  0.25412074655E+03  0.41800000000E+01 0. -1.
        -11    1    1    2    0    0  0.86082318306E+02  0.11674820458E+02  0.15012429399E+03  0.17344673708E+03  0.00000000000E+00 0.  1.
         11    1    1    2    0    0  0.20646379161E+03  0.11415721208E+03  0.20268839537E+03  0.31103336145E+03  0.00000000000E+00 0. -1.
</event>
<event>
 7    1  0.5109948E-006  0.1008671E+03  0.7561462E-02  0.1278483E+00
         -2   -1    0    0    0  501 -0.00000000000E+00  0.00000000000E+00  0.15276188175E+02  0.15276188175E+02  0.00000000000E+00 0.  1.
          2   -1    0    0  501    0  0.00000000000E+00 -0.00000000000E+00 -0.76406273081E+03  0.76406273081E+03  0.00000000000E+00 0. -1.
         23    2    1    2    0    0 -0.19158065070E+02 -0.15857991443E+02 -0.37655102640E+03  0.39756457240E+03  0.12509359052E+03 0.  0.
          5    1    3    3  502    0 -0.66554829881E+02  0.14329985864E+01 -0.13277775466E+03  0.14859005148E+03  0.41800000000E+01 0.  1.
         -5    1    3    3    0  502  0.47396764812E+02 -0.17290990029E+02 -0.24377327175E+03  0.24897452092E+03  0.41800000000E+01 0.  1.
        -11    1    1    2    0    0 -0.10115558602E+02  0.43189509454E+02 -0.21402623117E+03  0.21857466889E+03  0.00000000000E+00 0. -1.
         11    1    1    2    0    0  0.29273623672E+02 -0.27331518011E+02 -0.15820928506E+03  0.16319967769E+03  0.00000000000E+00 0.  1.
</event>
<event>
 7    1  0.5109948E-006  0.9621581E+02  0.7561462E-02  0.1288461E+00
         -2   -1    0    0    0  501 -0.00000000000E+00  0.00000000000E+00  0.29694371247E+03  0.29694371247E+03  0.00000000000E+00 0. -1.
          2   -1    0    0  501    0  0.00000000000E+00 -0.00000000000E+00 -0.48499073397E+02  0.48499073397E+02  0.00000000000E+00 0.  1.
         23    2    1    2    0    0  0.38534333314E+02 -0.32250996447E+02  0.16662015790E+03  0.21432606895E+03  0.12509342588E+03 0.  0.
          5    1    3    3  502    0  0.60038284095E+02 -0.51977157695E+02  0.49764352229E+02  0.93809293953E+02  0.41800000000E+01 0. -1.
         -5    1    3    3    0  502 -0.21503950780E+02  0.19726161249E+02  0.11685580567E+03  0.12051677500E+03  0.41800000000E+01 0. -1.
        -11    1    1    2    0    0  0.39501951094E+01  0.40043327567E+02  0.19180432774E+01  0.40283383846E+02  0.00000000000E+00 0.  1.
         11    1    1    2    0    0 -0.42484528424E+02 -0.77923311206E+01  0.79906437897E+02  0.90833333072E+02  0.00000000000E+00 0. -1.
</event>
<event>
 7    1  0.5109948E-006  0.1403041E+03  0.7561462E-02  0.1212920E+00
         -2   -1    0    0    0  501 -0.00000000000E+00  0.00000000000E+00  0.11154531809E+03  0.11154531809E+03  0.00000000000E+00 0.  1.
          2   -1    0    0  501    0  0.00000000000E+00 -0.00000000000E+00 -0.27458245494E+03  0.27458245494E+03  0.00000000000E+00 0. -1.
         23    2    1    2    0    0  0.94714524179E+02  0.84488331995E+02 -0.26010244887E+02  0.18009206880E+03  0.12508997191E+03 0.  0.
          5    1    3    3  502    0  0.32142654035E+01 -0.91086431573E+01  0.34325446694E+02  0.35902751608E+02  0.41800000000E+01 0.  1.
         -5    1    3    3    0  502  0.91500258775E+02  0.93596975152E+02 -0.60335691582E+02  0.14418931719E+03  0.41800000000E+01 0.  1.
        -11    1    1    2    0    0 -0.67726385874E+02 -0.22251213764E+02 -0.25914586246E+02  0.75852130081E+02  0.00000000000E+00 0.  1.
         11    1    1    2    0    0 -0.26988138305E+02 -0.62237118231E+02 -0.11111230572E+03  0.13018357415E+03  0.00000000000E+00 0. -1.
</event>
<event>
 7    1  0.5109948E-006  0.1566797E+03  0.7561462E-02  0.1192497E+00
         -1   -1    0    0    0  501 -0.00000000000E+00  0.00000000000E+00  0.31890955719E+03  0.31890955719E+03  0.00000000000E+00 0.  1.
          1   -1    0    0  501    0  0.00000000000E+00 -0.00000000000E+00 -0.10215086562E+03  0.10215086562E+03  0.00000000000E+00 0. -1.
         23    2    1    2    0    0 -0.61947425403E+02  0.12508985487E+03  0.15382212429E+03  0.24247424482E+03  0.12509020016E+03 0.  0.
          5    1    3    3  502    0 -0.60612238849E+02  0.58961888009E+02  0.11451081260E+02  0.85433877343E+02  0.41800000000E+01 0. -1.
         -5    1    3    3    0  502 -0.13351865540E+01  0.66127966865E+02  0.14237104303E+03  0.15704036748E+03  0.41800000000E+01 0. -1.
        -11    1    1    2    0    0  0.47744623696E+02 -0.13063010123E+02  0.39328499340E+02  0.63221216263E+02  0.00000000000E+00 0.  1.
         11    1    1    2    0    0  0.14202801706E+02 -0.11202684475E+03  0.23608067941E+02  0.11536496172E+03  0.00000000000E+00 0. -1.
</event>
<event>
 7    1  0.5109948E-006  0.9214156E+02  0.7561462E-02  0.1297747E+00
          2   -1    0    0  501    0  0.00000000000E+00  0.00000000000E+00  0.20422795016E+02  0.20422795016E+02  0.00000000000E+00 0. -1.
         -2   -1    0    0    0  501 -0.00000000000E+00 -0.00000000000E+00 -0.76980923043E+03  0.76980923043E+03  0.00000000000E+00 0.  1.
         23    2    1    2    0    0 -0.16922246493E+02  0.10702773856E+02 -0.49929315581E+03  0.51511408085E+03  0.12509176251E+03 0.  0.
          5    1    3    3  502    0  0.13265548286E+02 -0.28131393379E+02 -0.30609590029E+02  0.43837991132E+02  0.41800000000E+01 0. -1.
         -5    1    3    3    0  502 -0.30187794778E+02  0.38834167235E+02 -0.46868356579E+03  0.47127608971E+03  0.41800000000E+01 0. -1.
        -11    1    1    2    0    0 -0.34325350690E+02 -0.33030246239E+02 -0.57992116343E+02  0.75048733664E+02  0.00000000000E+00 0.  1.
         11    1    1    2    0    0  0.51247597183E+02  0.22327472384E+02 -0.19210116326E+03  0.20006921094E+03  0.00000000000E+00 0. -1.
</event>
<event>
 6    1  0.5109948E-006  0.1309426E+03  0.7561462E-02  0.1226064E+00
         -1   -1    0    0    0  501 -0.00000000000E+00  0.00000000000E+00  0.45704914697E+03  0.45704914697E+03  0.00000000000E+00 0.  1.
          1   -1    0    0  501    0  0.00000000000E+00 -0.00000000000E+00 -0.85128839017E+02  0.85128839017E+02  0.00000000000E+00 0. -1.
          5    1    1    2  502    0 -0.81685244536E+02 -0.27848976188E+02  0.12877361533E+03  0.15507469508E+03  0.41800000000E+01 0. -1.
         -5    1    1    2    0  502  0.39654059949E+02  0.75171297559E+02  0.25644343621E+03  0.27019229600E+03  0.41800000000E+01 0.  1.
        -11    1    1    2    0    0  0.24906155151E+02  0.12710837162E+02  0.29944280340E+02  0.40970011848E+02  0.00000000000E+00 0.  1.
         11    1    1    2    0    0  0.17125029436E+02 -0.60033158532E+02 -0.43241023924E+02  0.75940983050E+02  0.00000000000E+00 0. -1.
</event>
<event>
 7    1  0.5109948E-006  0.1217055E+03  0.7561462E-02  0.1240310E+00
          3   -1    0    0  501    0  0.00000000000E+00  0.00000000000E+00  0.38041261699E+02  0.38041261699E+02  0.00000000000E+00 0.  1.
         -3   -1    0    0    0  501 -0.00000000000E+00 -0.00000000000E+00 -0.52915044039E+03  0.52915044039E+03  0.00000000000E+00 0. -1.
         23    2    1    2    0    0 -0.19380295759E+02 -0.86340635244E+02 -0.31559945657E+03  0.35082929064E+03  0.12509145866E+03 0.  0.
          5    1    3    3  502    0 -0.26585623515E+02 -0.11680413472E+03 -0.22587358841E+03  0.25570755093E+03  0.41800000000E+01 0. -1.
         -5    1    3    3    0  502  0.72053277558E+01  0.30463499473E+02 -0.89725868161E+02  0.95121739710E+02  0.41800000000E+01 0. -1.
        -11    1    1    2    0    0  0.24994222378E+02  0.59380517239E+02 -0.35278732727E+02  0.73453018745E+02  0.00000000000E+00 0.  1.
         11    1    1    2    0    0 -0.56139266189E+01  0.26960118005E+02 -0.14023098940E+03  0.14290939270E+03  0.00000000000E+00 0. -1.
</event>
<event>
 7    1  0.5109948E-006  0.2832024E+03  0.7561462E-02  0.1093953E+00
          1   -1    0    0  501    0  0.00000000000E+00  0.00000000000E+00  0.77770054545E+03  0.77770054545E+03  0.00000000000E+00 0. -1.
         -1   -1    0    0    0  501 -0.00000000000E+00 -0.00000000000E+00 -0.10412367480E+03  0.10412367480E+03  0.00000000000E+00 0.  1.
         23    2    1    2    0    0 -0.26170077003E+03 -0.11706863021E+02  0.37274623240E+03  0.47245229883E+03  0.12508827774E+03 0.  0.
          5    1    3    3  502    0 -0.26925664630E+03 -0.27918346928E+02  0.33714409965E+03  0.43239124875E+03  0.41800000000E+01 0. -1.
         -5    1    3    3    0  502  0.75558762744E+01  0.16211483907E+02  0.35602132748E+02  0.40061050073E+02  0.41800000000E+01 0. -1.
        -11    1    1    2    0    0  0.12296788856E+03  0.50985105385E+02  0.13431503309E+03  0.18910608320E+03  0.00000000000E+00 0. -1.
         11    1    1    2    0    0  0.13873288146E+03 -0.39278242364E+02  0.16651560517E+03  0.22026583822E+03  0.00000000000E+00 0.  1.
</event>
<event>
 7    1  0.5109948E-006  0.2289612E+03  0.7561462E-02  0.1127373E+00
          1   -1    0    0  501    0  0.00000000000E+00  0.00000000000E+00  0.25330434370E+03  0.25330434370E+03  0.00000000000E+00 0. -1.
         -1   -1    0    0    0  501 -0.00000000000E+00 -0.00000000000E+00 -0.27804568887E+03  0.27804568887E+03  0.00000000000E+00 0.  1.
         23    2    1    2    0    0 -0.11865721441E+03 -0.14655425040E+03 -0.27263903702E+02  0.22792190780E+03  0.12508953900E+03 0.  0.
          5    1    3    3  502    0 -0.13621170938E+03 -0.14677096097E+03 -0.41981956049E+02  0.20463455669E+03  0.41800000000E+01 0.  1.
         -5    1    3    3    0  502  0.17554494965E+02  0.21671057449E+00  0.14718052347E+02  0.23287351112E+02  0.41800000000E+01 0.  1.
        -11    1    1    2    0    0  0.21055652295E+02  0.14021454902E+03  0.93507807034E+02  0.16984454724E+03  0.00000000000E+00 0. -1.
         11    1    1    2    0    0  0.97601562119E+02  0.63397013797E+01 -0.90985248500E+02  0.13358357753E+03  0.00000000000E+00 0.  1.
</event>
<event>
 7    1  0.5109948E-006  0.1598751E+03  0.7561462E-02  0.1188838E+00
          1   -1    0    0  501    0  0.00000000000E+00  0.00000000000E+00  0.10262919122E+03  0.10262919122E+03  0.00000000000E+00 0. -1.
         -1   -1    0    0    0  501 -0.00000000000E+00 -0.00000000000E+00 -0.27173521735E+03  0.27173521735E+03  0.00000000000E+00 0.  1.
         23    2    1    2    0    0  0.42398736164E+02 -0.11893595382E+03 -0.11954154541E+03  0.21420075924E+03  0.12509344605E+03 0.  0.
          5    1    3    3  502    0 -0.49064595026E+00 -0.13246956858E+03 -0.91036936211E+02  0.16079062002E+03  0.41800000000E+01 0.  1.
         -5    1    3    3    0  502  0.42889382114E+02  0.13533614758E+02 -0.28504609195E+02  0.53410139224E+02  0.41800000000E+01 0.  1.
        -11    1    1    2    0    0 -0.48195484219E+02  0.39267742740E+02  0.65990894195E+01  0.62516464233E+02  0.00000000000E+00 0. -1.
         11    1    1    2    0    0  0.57967480556E+01  0.79668211079E+02 -0.56163570145E+02  0.97647185089E+02  0.00000000000E+00 0.  1.
</event>
<event>
 7    1  0.5109948E-006  0.8660446E+02  0.7561462E-02  0.1311289E+00
          1   -1    0    0  501    0  0.00000000000E+00  0.00000000000E+00  0.11538525029E+03  0.11538525029E+03  0.00000000000E+00 0. -1.
         -1   -1    0    0    0  501 -0.00000000000E+00 -0.00000000000E+00 -0.13659290310E+03  0.13659290310E+03  0.00000000000E+00 0.  1.
         23    2    1    2    0    0  0.32548580466E+02  0.52117017606E+02 -0.76498095789E+01  0.13956988281E+03  0.12508252870E+03 0.  0.
          5    1    3    3  502    0  0.45797902833E+02  0.21217917889E+02 -0.59184309380E+02  0.77896744606E+02  0.41800000000E+01 0. -1.
         -5    1    3    3    0  502 -0.13249322367E+02  0.30899099717E+02  0.51534499801E+02  0.61673138206E+02  0.41800000000E+01 0. -1.
        -11    1    1    2    0    0  0.68296606348E+01  0.11785841287E+02 -0.32289261788E+02  0.35044924683E+02  0.00000000000E+00 0.  1.
         11    1    1    2    0    0 -0.39378241101E+02 -0.63902858893E+02  0.18731418564E+02  0.77363345897E+02  0.00000000000E+00 0. -1.
</event>
<event>
 7    1  0.5109948E-006  0.8235193E+02  0.7561462E-02  0.1322506E+00
         -2   -1    0    0    0  501 -0.00000000000E+00  0.00000000000E+00  0.83109655203E+02  0.83109655203E+02  0.00000000000E+00 0.  1.
          2   -1    0    0  501    0  0.00000000000E+00 -0.00000000000E+00 -0.19730917479E+03  0.19730917479E+03  0.00000000000E+00 0. -1.
         23    2    1    2    0    0 -0.88789491513E+01 -0.63911802419E+02 -0.39105498615E+02  0.14608443209E+03  0.12509143476E+03 0.  0.
          5    1    3    3  502    0  0.54378841467E+01 -0.74439305268E+01 -0.76217324177E+02  0.76886511108E+02  0.41800000000E+01 0.  1.
         -5    1    3    3    0  502 -0.14316833298E+02 -0.56467871892E+02  0.37111825562E+02  0.69197920982E+02  0.41800000000E+01 0.  1.
        -11    1    1    2    0    0 -0.15514492163E+02 -0.99237217740E+01 -0.48944274688E+02  0.52294567076E+02  0.00000000000E+00 0.  1.
         11    1    1    2    0    0  0.24393441314E+02  0.73835524193E+02 -0.26149746289E+02  0.82039830832E+02  0.00000000000E+00 0. -1.
</event>
<event>
 7    1  0.5109948E-006  0.9896859E+02  0.7561462E-02  0.1282480E+00
         -2   -1    0    0    0  501 -0.00000000000E+00  0.00000000000E+00  0.21774896376E+02  0.21774896376E+02  0.00000000000E+00 0.  1.
          2   -1    0    0  501    0  0.00000000000E+00 -0.00000000000E+00 -0.65332976520E+03  0.65332976520E+03  0.00000000000E+00 0. -1.
         23    2    1    2    0    0  0.36631080010E+02 -0.19769332266E+02 -0.27858490603E+03  0.30820496593E+03  0.12509232043E+03 0.  0.
          5    1    3    3  502    0 -0.43679351191E+01 -0.50261268806E+02 -0.23655948479E+03  0.24191555601E+03  0.41800000000E+01 0.  1.
         -5    1    3    3    0  502  0.40999015129E+02  0.30491936540E+02 -0.42025421244E+02  0.66289409910E+02  0.41800000000E+01 0.  1.
        -11    1    1    2    0    0  0.28627799084E+02  0.39477685988E+01 -0.15978155088E+03  0.16237388878E+03  0.00000000000E+00 0. -1.
         11    1    1    2    0    0 -0.65258879094E+02  0.15821563667E+02 -0.19318841192E+03  0.20452580687E+03  0.00000000000E+00 0.  1.
</event>
<event>
 7    1  0.5109948E-006  0.1147933E+03  0.7561462E-02  0.1251942E+00
         -2   -1    0    0    0  501 -0.00000000000E+00  0.00000000000E+00  0.28076015383E+03  0.28076015383E+03  0.00000000000E+00 0.  1.
          2   -1    0    0  501    0  0.00000000000E+00 -0.00000000000E+00 -0.67766679590E+02  0.67766679590E+02  0.00000000000E+00 0. -1.
         23    2    1    2    0    0  0.73956766218E+02 -0.35033627031E+02  0.14425847655E+03  0.20773636419E+03  0.12508769187E+03 0.  0.
          5    1    3    3  502    0  0.86169333199E+02 -0.17924716626E+02  0.15895926742E+03  0.18174699598E+03  0.41800000000E+01 0. -1.
         -5    1    3    3    0  502 -0.12212566981E+02 -0.17108910405E+02 -0.14700790869E+02  0.25989368205E+02  0.41800000000E+01 0. -1.
        -11    1    1    2    0    0 -0.91039067723E+02  0.12694956317E+02  0.64639367891E+02  0.11237224590E+03  0.00000000000E+00 0.  1.
         11    1    1    2    0    0  0.17082301504E+02  0.22338670714E+02  0.40956298020E+01  0.28418223333E+02  0.00000000000E+00 0. -1.
</event>
<event>
 7    1  0.5109948E-006  0.1277898E+03  0.7561462E-02  0.1230773E+00
         -2   -1    0    0    0  501 -0.00000000000E+00  0.00000000000E+00  0.36492503525E+03  0.36492503525E+03  0.00000000000E+00 0. -1.
          2   -1    0    0  501    0  0.00000000000E+00 -0.00000000000E+00 -0.55352433577E+02  0.55352433577E+02  0.00000000000E+00 0.  1.
         23    2    1    2    0    0 -0.21513211911E+02 -0.78852338653E+02  0.25615673000E+03  0.29655330556E+03  0.12508830128E+03 0.  0.
          5    1    3    3  502    0 -0.48190261804E+02 -0.10240920674E+03  0.18584335273E+03  0.21763540868E+03  0.41800000000E+01 0. -1.
         -5    1    3    3    0  502  0.26677049894E+02  0.23556868084E+02  0.70313377273E+02  0.78917896883E+02  0.41800000000E+01 0. -1.
        -11    1    1    2    0    0  0.45519272763E+02  0.38894977597E+02  0.11358715970E+02  0.60941315244E+02  0.00000000000E+00 0.  1.
         11    1    1    2    0    0 -0.24006060852E+02  0.39957361056E+02  0.42057155708E+02  0.62782848028E+02  0.00000000000E+00 0. -1.
</event>
<event>
 7    1  0.5109948E-006  0.1247092E+03  0.7561462E-02  0.1235524E+00
         -1   -1    0    0    0  501 -0.00000000000E+00  0.00000000000E+00  0.51082415151E+03  0.51082415151E+03  0.00000000000E+00 0.  1.
          1   -1    0    0  501    0  0.00000000000E+00 -0.00000000000E+00 -0.65824730240E+02  0.65824730240E+02  0.00000000000E+00 0. -1.
         23    2    1    2    0    0 -0.71468077229E+02  0.43973118869E+02  0.42565270971E+03  0.45151837913E+03  0.12508915288E+03 0.  0.
          5    1    3    3  502    0  0.26636202001E+02  0.10675181381E+02  0.21267069299E+03  0.21463863308E+03  0.41800000000E+01 0. -1.
         -5    1    3    3    0  502 -0.98104279230E+02  0.33297937489E+02  0.21298201672E+03  0.23687974606E+03  0.41800000000E+01 0. -1.
        -11    1    1    2    0    0  0.38441005940E+02 -0.66461521100E+02  0.32056496693E+02  0.83201344369E+02  0.00000000000E+00 0.  1.
         11    1    1    2    0    0  0.33027071289E+02  0.22488402230E+02 -0.12709785135E+02  0.41929158243E+02  0.00000000000E+00 0. -1.
</event>
<event>
 7    1  0.5109948E-006  0.1160236E+03  0.7561462E-02  0.1249805E+00
          2   -1    0    0  501    0  0.00000000000E+00  0.00000000000E+00  0.52119010013E+03  0.52119010013E+03  0.00000000000E+00 0. -1.
         -2   -1    0    0    0  501 -0.00000000000E+00 -0.00000000000E+00 -0.33222793068E+02  0.33222793068E+02  0.00000000000E+00 0.  1.
         23    2    1    2    0    0 -0.56636395093E+02  0.40603370378E+02  0.22222625000E+03  0.26436332036E+03  0.12508854475E+03 0.  0.
          5    1    3    3  502    0  0.21915535090E+02 -0.27811012961E+02  0.34395154836E+02  0.49540308805E+02  0.41800000000E+01 0.  1.
         -5    1    3    3    0  502 -0.78551930183E+02  0.68414383339E+02  0.18783109517E+03  0.21482301156E+03  0.41800000000E+01 0.  1.
        -11    1    1    2    0    0 -0.76350324289E+01  0.83765691444E+01 -0.96072096036E+00  0.11374691890E+02  0.00000000000E+00 0.  1.
         11    1    1    2    0    0  0.64271427522E+02 -0.48979939522E+02  0.26670177802E+03  0.27867488094E+03  0.00000000000E+00 0. -1.
</event>
<event>
 7    1  0.5109948E-006  0.1005655E+03  0.7561462E-02  0.1279111E+00
          1   -1    0    0  501    0  0.00000000000E+00  0.00000000000E+00  0.34872797532E+02  0.34872797532E+02  0.00000000000E+00 0. -1.
         -1   -1    0    0    0  501 -0.00000000000E+00 -0.00000000000E+00 -0.47181423935E+03  0.47181423935E+03  0.00000000000E+00 0.  1.
         23    2    1    2    0    0 -0.37799066628E+02 -0.10609808182E+02 -0.35391247542E+03  0.37741828350E+03  0.12509669459E+03 0.  0.
          5    1    3    3  502    0 -0.49863730361E+02  0.47976388750E+02 -0.22074252347E+03  0.23137169134E+03  0.41800000000E+01 0. -1.
         -5    1    3    3    0  502  0.12064663733E+02 -0.58586196933E+02 -0.13316995194E+03  0.14604659216E+03  0.41800000000E+01 0. -1.
        -11    1    1    2    0    0  0.26590469556E+02  0.35614048069E+02 -0.28501695077E+01  0.44536916791E+02  0.00000000000E+00 0. -1.
         11    1    1    2    0    0  0.11208597073E+02 -0.25004239887E+02 -0.80178796892E+02  0.84731836589E+02  0.00000000000E+00 0.  1.
</event>
<event>
 7    1  0.5109948E-006  0.3132290E+03  0.7561462E-02  0.1078808E+00
          1   -1    0    0  501    0  0.00000000000E+00  0.00000000000E+00  0.37442897174E+03  0.37442897174E+03  0.00000000000E+00 0. -1.
         -1   -1    0    0    0  501 -0.00000000000E+00 -0.00000000000E+00 -0.27969373563E+03  0.27969373563E+03  0.00000000000E+00 0.  1.
         23    2    1    2    0    0  0.26540971850E+03  0.15187663825E+03  0.74897588236E+02  0.33877188214E+03  0.12509159638E+03 0.  0.
          5    1    3    3  502    0  0.61337204467E+02  0.70600419367E+02  0.73570252210E+02  0.11906605846E+03  0.41800000000E+01 0. -1.
         -5    1    3    3    0  502  0.20407251403E+03  0.81276218886E+02  0.13273360265E+01  0.21970582368E+03  0.41800000000E+01 0. -1.
        -11    1    1    2    0    0 -0.15085496426E+03 -0.12390966346E+03 -0.29876516105E+01  0.19524280013E+03  0.00000000000E+00 0.  1.
         11    1    1    2    0    0 -0.11455475424E+03 -0.27966974790E+02  0.22825299479E+02  0.12010802510E+03  0.00000000000E+00 0. -1.
</event>
<event>
 7    1  0.1385294E-005  0.2469450E+03  0.7561462E-02  0.1115251E+00
         -2   -1    0    0    0  501 -0.00000000000E+00  0.00000000000E+00  0.17673458523E+03  0.17673458523E+03  0.00000000000E+00 0.  1.
          2   -1    0    0  501    0  0.00000000000E+00 -0.00000000000E+00 -0.35227893067E+03  0.35227893067E+03  0.00000000000E+00 0. -1.
         23    2    1    2    0    0  0.21484362169E+02 -0.22125353704E+03 -0.57596176340E+02  0.26149456247E+03  0.12508949276E+03 0.  0.
          5    1    3    3  502    0 -0.48277590245E+02 -0.52334756923E+02 -0.61534669576E+01  0.71589035876E+02  0.41800000000E+01 0. -1.
         -5    1    3    3    0  502  0.69761952414E+02 -0.16891878012E+03 -0.51442709383E+02  0.18990552659E+03  0.41800000000E+01 0. -1.
        -11    1    1    2    0    0  0.31901073265E+02  0.13164338550E+03 -0.73802468664E+02  0.15425454224E+03  0.00000000000E+00 0.  1.
         11    1    1    2    0    0 -0.53385435434E+02  0.89610151544E+02 -0.44145700431E+02  0.11326441119E+03  0.00000000000E+00 0. -1.
</event>
<event>
 7    1  0.5109948E-006  0.8518345E+02  0.7561462E-02  0.1314953E+00
          4   -1    0    0  501    0  0.00000000000E+00  0.00000000000E+00  0.23779164022E+03  0.23779164022E+03  0.00000000000E+00 0. -1.
         -4   -1    0    0    0  501 -0.00000000000E+00 -0.00000000000E+00 -0.53331035839E+02  0.53331035839E+02  0.00000000000E+00 0.  1.
         23    2    1    2    0    0 -0.14767660091E+02  0.22174227778E+02  0.13460913285E+03  0.18567881092E+03  0.12508885648E+03 0.  0.
          5    1    3    3  502    0 -0.43388308563E+02  0.28161428980E+02  0.14528197738E+03  0.15427228122E+03  0.41800000000E+01 0. -1.
         -5    1    3    3    0  502  0.28620648472E+02 -0.59872012016E+01 -0.10672844529E+02  0.31406529696E+02  0.41800000000E+01 0. -1.
        -11    1    1    2    0    0  0.42510586293E+02 -0.37979576534E+02  0.16664442434E+02  0.59391092112E+02  0.00000000000E+00 0.  1.
         11    1    1    2    0    0 -0.27742926201E+02  0.15805348756E+02  0.33187029103E+02  0.46052773035E+02  0.00000000000E+00 0. -1.
</event>
<event>
 7    1  0.5109948E-006  0.1095029E+03  0.7561462E-02  0.1261493E+00
         -2   -1    0    0    0  501 -0.00000000000E+00  0.00000000000E+00  0.92081908638E+02  0.92081908638E+02  0.00000000000E+00 0.  1.
          2   -1    0    0  501    0  0.00000000000E+00 -0.00000000000E+00 -0.36221223008E+03  0.36221223008E+03  0.00000000000E+00 0. -1.
         23    2    1    2    0    0 -0.32545400828E+02 -0.75806858713E+02  0.74263264011E+01  0.15003540887E+03  0.12509832392E+03 0.  0.
          5    1    3    3  502    0 -0.16237104943E+01  0.14209756236E+02 -0.40668841629E+02  0.43312592713E+02  0.41800000000E+01 0.  1.
         -5    1    3    3    0  502 -0.30921690334E+02 -0.90016614949E+02  0.48095168030E+02  0.10672281615E+03  0.41800000000E+01 0.  1.
        -11    1    1    2    0    0 -0.64616100051E+01 -0.11510405068E+02 -0.30188083058E+01  0.13540865270E+02  0.00000000000E+00 0.  1.
         11    1    1    2    0    0  0.39007010833E+02  0.87317263781E+02 -0.27453783954E+03  0.29071786458E+03  0.00000000000E+00 0. -1.
</event>
<event>
 7    1  0.5109948E-006  0.1329348E+03  0.7561462E-02  0.1223165E+00
          1   -1    0    0  501    0  0.00000000000E+00  0.00000000000E+00  0.30208537799E+03  0.30208537799E+03  0.00000000000E+00 0. -1.
         -1   -1    0    0    0  501 -0.00000000000E+00 -0.00000000000E+00 -0.86320229628E+02  0.86320229628E+02  0.00000000000E+00 0.  1.
         23    2    1    2    0    0 -0.44035037050E+02  0.90785537105E+02  0.37864478485E+02  0.16511093704E+03  0.12508718784E+03 0.  0.
          5    1    3    3  502    0  0.30360550884E+02 -0.11612759490E+02 -0.53472453933E+00  0.32777699176E+02  0.41800000000E+01 0.  1.
         -5    1    3    3    0  502 -0.74395587934E+02  0.10239829659E+03  0.38399203024E+02  0.13233323786E+03  0.41800000000E+01 0.  1.
        -11    1    1    2    0    0  0.19427634257E+02 -0.96901801558E+01 -0.44965934946E+01  0.22170970148E+02  0.00000000000E+00 0.  1.
         11    1    1    2    0    0  0.24607402793E+02 -0.81095356949E+02  0.18239726337E+03  0.20112370044E+03  0.00000000000E+00 0. -1.
</event>
<event>
 7    1  0.5109948E-006  0.1271832E+03  0.7561462E-02  0.1231696E+00
         -2   -1    0    0    0  501 -0.00000000000E+00  0.00000000000E+00  0.61621312676E+02  0.61621312676E+02  0.00000000000E+00 0.  1.
          2   -1    0    0  501    0  0.00000000000E+00 -0.00000000000E+00 -0.38558734259E+03  0.38558734259E+03  0.00000000000E+00 0. -1.
         23    2    1    2    0    0  0.76208302220E+02 -0.40169699452E+02 -0.78293334347E+02  0.17087596967E+03  0.12508973070E+03 0.  0.
          5    1    3    3  502    0 -0.12583098798E+02 -0.36992840709E+02 -0.71603497881E+02  0.81678258722E+02  0.41800000000E+01 0. -1.
         -5    1    3    3    0  502  0.88791401018E+02 -0.31768587425E+01 -0.66898364660E+01  0.89197710947E+02  0.41800000000E+01 0. -1.
        -11    1    1    2    0    0 -0.19067381722E+02  0.62066914793E+02 -0.11565964493E+03  0.13263868373E+03  0.00000000000E+00 0.  1.
         11    1    1    2    0    0 -0.57140920498E+02 -0.21897215341E+02 -0.13001305064E+03  0.14369400186E+03  0.00000000000E+00 0. -1.
</event>
<event>
 7    1  0.5109948E-006  0.1039070E+03  0.7561462E-02  0.1272288E+00
         -1   -1    0    0    0  501 -0.00000000000E+00  0.00000000000E+00  0.44033467566E+02  0.44033467566E+02  0.00000000000E+00 0.  1.
          1   -1    0    0  501    0  0.00000000000E+00 -0.00000000000E+00 -0.37610285933E+03  0.37610285933E+03  0.00000000000E+00 0. -1.
         23    2    1    2    0    0  0.54410789176E+02 -0.27982346304E+02 -0.13183609511E+03  0.19176014561E+03  0.12509057433E+03 0.  0.
          5    1    3    3  502    0 -0.15304152342E+02 -0.31417123588E+02  0.73882551655E+01  0.35962639611E+02  0.41800000000E+01 0.  1.
         -5    1    3    3    0  502  0.69714941517E+02  0.34347772836E+01 -0.13922435027E+03  0.15579750600E+03  0.41800000000E+01 0.  1.
        -11    1    1    2    0    0  0.14068687335E+02 -0.16000809479E+02 -0.82795929979E+02  0.85493390905E+02  0.00000000000E+00 0. -1.
         11    1    1    2    0    0 -0.68479476511E+02  0.43983155783E+02 -0.11743736668E+03  0.14288279039E+03  0.00000000000E+00 0.  1.
</event>
<event>
 7    1  0.5109948E-006  0.9226360E+02  0.7561462E-02  0.1297461E+00
         -2   -1    0    0    0  501 -0.00000000000E+00  0.00000000000E+00  0.32116229899E+03  0.32116229899E+03  0.00000000000E+00 0.  1.
          2   -1    0    0  501    0  0.00000000000E+00 -0.00000000000E+00 -0.55103650395E+02  0.55103650395E+02  0.00000000000E+00 0. -1.
         23    2    1    2    0    0 -0.72145587541E+02  0.64421586111E+01  0.18587005417E+03  0.23546847486E+03  0.12510490959E+03 0.  0.
          5    1    3    3  502    0 -0.57727749460E+02 -0.66546985908E+01  0.20174903770E+03  0.20999267769E+03  0.41800000000E+01 0.  1.
         -5    1    3    3    0  502 -0.14417838082E+02  0.13096857202E+02 -0.15878983525E+02  0.25475797167E+02  0.41800000000E+01 0.  1.
        -11    1    1    2    0    0  0.20973410382E+02  0.34793791916E+02  0.59217252018E+02  0.71813472521E+02  0.00000000000E+00 0.  1.
         11    1    1    2    0    0  0.51172177160E+02 -0.41235950527E+02  0.20971342407E+02  0.68984002011E+02  0.00000000000E+00 0. -1.
</event>
<event>
 7    1  0.5109948E-006  0.1345980E+03  0.7561462E-02  0.1220788E+00
          2   -1    0    0  501    0  0.00000000000E+00  0.00000000000E+00  0.83226334149E+03  0.83226334149E+03  0.00000000000E+00 0. -1.
         -2   -1    0    0    0  501 -0.00000000000E+00 -0.00000000000E+00 -0.24911260762E+02  0.24911260762E+02  0.00000000000E+00 0.  1.
         23    2    1    2    0    0 -0.64508006740E+02 -0.55213803982E+02  0.32142233115E+03  0.35520418521E+03  0.12509137119E+03 0.  0.
          5    1    3    3  502    0 -0.45491535328E+02  0.35799616145E+02  0.12894938141E+03  0.14140900845E+03  0.41800000000E+01 0.  1.
         -5    1    3    3    0  502 -0.19016471411E+02 -0.91013420127E+02  0.19247294973E+03  0.21379517676E+03  0.41800000000E+01 0.  1.
        -11    1    1    2    0    0  0.27827169526E+02 -0.20090057246E+02  0.73469816085E+02  0.81091156359E+02  0.00000000000E+00 0. -1.
         11    1    1    2    0    0  0.36680837214E+02  0.75303861228E+02  0.41245993350E+03  0.42087926068E+03  0.00000000000E+00 0.  1.
</event>
<event>
 7    1  0.5109948E-006  0.1521326E+03  0.7561462E-02  0.1197877E+00
          1   -1    0    0  501    0  0.00000000000E+00  0.00000000000E+00  0.17280409575E+03  0.17280409575E+03  0.00000000000E+00 0. -1.
         -1   -1    0    0    0  501 -0.00000000000E+00 -0.00000000000E+00 -0.13814191893E+03  0.13814191893E+03  0.00000000000E+00 0.  1.
         23    2    1    2    0    0 -0.11164523513E+02 -0.10887464550E+03  0.12095787585E+02  0.16665273303E+03  0.12509392604E+03 0.  0.
          5    1    3    3  502    0 -0.44718151599E+02 -0.11842309646E+03  0.25230580407E+02  0.12914254700E+03  0.41800000000E+01 0. -1.
         -5    1    3    3    0  502  0.33553628086E+02  0.95484509686E+01 -0.13134792822E+02  0.37510186031E+02  0.41800000000E+01 0. -1.
        -11    1    1    2    0    0 -0.21949036754E+02  0.10708796855E+03  0.15833039781E+02  0.11045487030E+03  0.00000000000E+00 0.  1.
         11    1    1    2    0    0  0.33113560267E+02  0.17866769423E+01  0.67333494592E+01  0.33838411354E+02  0.00000000000E+00 0. -1.
</event>
<event>
 7    1  0.5109948E-006  0.1208464E+03  0.7561462E-02  0.1241707E+00
         -2   -1    0    0    0  501 -0.00000000000E+00  0.00000000000E+00  0.97929406805E+02  0.97929406805E+02  0.00000000000E+00 0. -1.
          2   -1    0    0  501    0  0.00000000000E+00 -0.00000000000E+00 -0.16774793087E+03  0.16774793087E+03  0.00000000000E+00 0.  1.
         23    2    1    2    0    0 -0.21410963554E+02  0.53936077426E+02 -0.39539064349E+01  0.13791317168E+03  0.12504750993E+03 0.  0.
          5    1    3    3  502    0  0.28090557351E+02 -0.26666153570E+02  0.14280476471E+02  0.41491777098E+02  0.41800000000E+01 0. -1.
         -5    1    3    3    0  502 -0.49501520905E+02  0.80602230996E+02 -0.18234382906E+02  0.96421394583E+02  0.41800000000E+01 0. -1.
        -11    1    1    2    0    0  0.33992700082E+02  0.15591305785E+02 -0.13272956030E+02  0.39683294177E+02  0.00000000000E+00 0. -1.
         11    1    1    2    0    0 -0.12581736529E+02 -0.69527383211E+02 -0.52591661601E+02  0.88080871818E+02  0.00000000000E+00 0.  1.
</event>
<event>
 7    1  0.5109948E-006  0.1111130E+03  0.7561462E-02  0.1258523E+00
         -2   -1    0    0    0  501 -0.00000000000E+00  0.00000000000E+00  0.75599176604E+02  0.75599176604E+02  0.00000000000E+00 0.  1.
          2   -1    0    0  501    0  0.00000000000E+00 -0.00000000000E+00 -0.28956017804E+03  0.28956017804E+03  0.00000000000E+00 0. -1.
         23    2    1    2    0    0  0.55133697056E+01 -0.72705379322E+02 -0.19081992003E+02  0.13834187057E+03  0.11600810879E+03 0.  0.
          5    1    3    3  502    0  0.43768302461E+02 -0.16550206895E+01 -0.34710267879E+02  0.56041756665E+02  0.41800000000E+01 0. -1.
         -5    1    3    3    0  502 -0.38254932756E+02 -0.71050358633E+02  0.15628275876E+02  0.82300113905E+02  0.41800000000E+01 0.  1.
        -11    1    1    2    0    0 -0.33882820423E+02  0.52918724234E+02 -0.17712137027E+03  0.18793726800E+03  0.00000000000E+00 0. -1.
         11    1    1    2    0    0  0.28369450718E+02  0.19786655088E+02 -0.17757639157E+02  0.38880216075E+02  0.00000000000E+00 0.  1.
</event>
<event>
 7    1  0.5109948E-006  0.8893982E+02  0.7561462E-02  0.1305440E+00
          2   -1    0    0  501    0  0.00000000000E+00  0.00000000000E+00  0.35623471356E+02  0.35623471356E+02  0.00000000000E+00 0. -1.
         -2   -1    0    0    0  501 -0.00000000000E+00 -0.00000000000E+00 -0.40642197871E+03  0.40642197871E+03  0.00000000000E+00 0.  1.
         23    2    1    2    0    0 -0.83393822391E+01  0.51708720523E+01 -0.30254409112E+03  0.32753125668E+03  0.12509002284E+03 0.  0.
          5    1    3    3  502    0 -0.62269881282E+02  0.13992826126E+01 -0.10026259425E+03  0.11810823981E+03  0.41800000000E+01 0. -1.
         -5    1    3    3    0  502  0.53930499043E+02  0.37715894398E+01 -0.20228149688E+03  0.20942301686E+03  0.41800000000E+01 0. -1.
        -11    1    1    2    0    0 -0.23552671735E+02  0.10392310384E+02 -0.74194385515E+02  0.78533657135E+02  0.00000000000E+00 0.  1.
         11    1    1    2    0    0  0.31892053975E+02 -0.15563182437E+02  0.59399692813E+01  0.35980536257E+02  0.00000000000E+00 0. -1.
</event>
<event>
 7    1  0.5109948E-006  0.1165468E+03  0.7561462E-02  0.1248905E+00
         -2   -1    0    0    0  501 -0.00000000000E+00  0.00000000000E+00  0.72949778376E+02  0.72949778376E+02  0.00000000000E+00 0.  1.
          2   -1    0    0  501    0  0.00000000000E+00 -0.00000000000E+00 -0.25881691668E+03  0.25881691668E+03  0.00000000000E+00 0. -1.
         23    2    1    2    0    0 -0.30218651348E+02  0.45162313105E+02 -0.24435053860E+02  0.13852200244E+03  0.12505387594E+03 0.  0.
          5    1    3    3  502    0  0.29300496057E+02  0.61180274252E+02 -0.34023225775E+02  0.76003929628E+02  0.41800000000E+01 0.  1.
         -5    1    3    3    0  502 -0.59519147405E+02 -0.16017961147E+02  0.95881719153E+01  0.62518072810E+02  0.41800000000E+01 0.  1.
        -11    1    1    2    0    0  0.59813803454E+02 -0.43022789790E+02 -0.92946144717E+02  0.11860707122E+03  0.00000000000E+00 0.  1.
         11    1    1    2    0    0 -0.29595152106E+02 -0.21395233144E+01 -0.68485939729E+02  0.74637621403E+02  0.00000000000E+00 0. -1.
</event>
<event>
 7    1  0.5109948E-006  0.8997509E+02  0.7561462E-02  0.1302912E+00
          2   -1    0    0  501    0  0.00000000000E+00  0.00000000000E+00  0.10852044641E+03  0.10852044641E+03  0.00000000000E+00 0. -1.
         -2   -1    0    0    0  501 -0.00000000000E+00 -0.00000000000E+00 -0.13062869084E+03  0.13062869084E+03  0.00000000000E+00 0.  1.
         23    2    1    2    0    0 -0.26225344446E+02  0.23915784175E+02 -0.40157426667E+02  0.13608446391E+03  0.12508648599E+03 0.  0.
          5    1    3    3  502    0 -0.19010634773E+02  0.51890126737E+02 -0.73317203669E+02  0.91906878094E+02  0.41800000000E+01 0. -1.
         -5    1    3    3    0  502 -0.72147096724E+01 -0.27974342562E+02  0.33159777002E+02  0.44177585813E+02  0.41800000000E+01 0. -1.
        -11    1    1    2    0    0  0.58591337358E+02 -0.23047114271E+02 -0.52433417037E+01  0.63179165251E+02  0.00000000000E+00 0.  1.
         11    1    1    2    0    0 -0.32365992912E+02 -0.86866990471E+00  0.23292523937E+02  0.39885508095E+02  0.00000000000E+00 0. -1.
</event>
<event>
 7    1  0.5109948E-006  0.1357666E+03  0.7561462E-02  0.1219142E+00
         -2   -1    0    0    0  501 -0.00000000000E+00  0.00000000000E+00  0.16387030966E+02  0.16387030966E+02  0.00000000000E+00 0.  1.
          2   -1    0    0  501    0  0.00000000000E+00 -0.00000000000E+00 -0.13183962604E+04  0.13183962604E+04  0.00000000000E+00 0. -1.
         23    2    1    2    0    0 -0.59224827006E+02  0.73593650969E+02 -0.79304127008E+03  0.80838485397E+03  0.12509200810E+03 0.  0.
          5    1    3    3  502    0 -0.50538545824E+02  0.10673773080E+03 -0.67997693330E+03  0.69016895759E+03  0.41800000000E+01 0. -1.
         -5    1    3    3    0  502 -0.86862811814E+01 -0.33144079830E+02 -0.11306433678E+03  0.11821589639E+03  0.41800000000E+01 0. -1.
        -11    1    1    2    0    0 -0.96772693958E+01 -0.41898396404E+02 -0.80456692546E+02  0.91227213810E+02  0.00000000000E+00 0.  1.
         11    1    1    2    0    0  0.68902096402E+02 -0.31695254565E+02 -0.42851126678E+03  0.43517122355E+03  0.00000000000E+00 0. -1.
</event>
<event>
 7    1  0.5109948E-006  0.3531027E+03  0.7561462E-02  0.1061349E+00
          1   -1    0    0  501    0  0.00000000000E+00  0.00000000000E+00  0.27591352948E+03  0.27591352948E+03  0.00000000000E+00 0. -1.
         -1   -1    0    0    0  501 -0.00000000000E+00 -0.00000000000E+00 -0.61335556530E+03  0.61335556530E+03  0.00000000000E+00 0.  1.
         23    2    1    2    0    0 -0.95433786423E+02  0.32214593633E+03 -0.39823895052E+03  0.53584173171E+03  0.12508592188E+03 0.  0.
          5    1    3    3  502    0  0.26552806150E+02  0.23807594389E+02 -0.46346915958E+02  0.58629020833E+02  0.41800000000E+01 0. -1.
         -5    1    3    3    0  502 -0.12198659257E+03  0.29833834194E+03 -0.35189203456E+03  0.47721271088E+03  0.41800000000E+01 0. -1.
        -11    1    1    2    0    0  0.10578435151E+03 -0.20811456845E+03  0.35120476723E+02  0.23608356679E+03  0.00000000000E+00 0. -1.
         11    1    1    2    0    0 -0.10350565087E+02 -0.11403136788E+03  0.25676437974E+02  0.11734379628E+03  0.00000000000E+00 0.  1.
</event>
<event>
 7    1  0.5109948E-006  0.1250883E+03  0.7561462E-02  0.1234931E+00
          2   -1    0    0  501    0  0.00000000000E+00  0.00000000000E+00  0.68036556874E+02  0.68036556874E+02  0.00000000000E+00 0. -1.
         -2   -1    0    0    0  501 -0.00000000000E+00 -0.00000000000E+00 -0.29059781151E+03  0.29059781151E+03  0.00000000000E+00 0.  1.
         23    2    1    2    0    0 -0.71756594312E+02 -0.46537486831E+02 -0.93233778577E+02  0.17791001269E+03  0.12507872976E+03 0.  0.
          5    1    3    3  502    0 -0.26199133175E+02  0.43247111606E+02 -0.29891642450E+02  0.58887094764E+02  0.41800000000E+01 0.  1.
         -5    1    3    3    0  502 -0.45557461137E+02 -0.89784598437E+02 -0.63342136127E+02  0.11902291792E+03  0.41800000000E+01 0.  1.
        -11    1    1    2    0    0  0.26334147190E+02  0.46281221233E+02 -0.12404990568E+03  0.13499562158E+03  0.00000000000E+00 0.  1.
         11    1    1    2    0    0  0.45422447122E+02  0.25626559798E+00 -0.52775703777E+01  0.45728734114E+02  0.00000000000E+00 0. -1.
</event>
<event>
 7    1  0.5109948E-006  0.8731149E+02  0.7561462E-02  0.1309496E+00
          1   -1    0    0  501    0  0.00000000000E+00  0.00000000000E+00  0.45410609591E+02  0.45410609591E+02  0.00000000000E+00 0. -1.
         -1   -1    0    0    0  501 -0.00000000000E+00 -0.00000000000E+00 -0.28457229606E+03  0.28457229606E+03  0.00000000000E+00 0.  1.
         23    2    1    2    0    0  0.20742290572E+02  0.66175231591E+01 -0.16823097929E+03  0.21076846454E+03  0.12509056327E+03 0.  0.
          5    1    3    3  502    0 -0.35476206520E+02  0.34577453896E+02 -0.12472073562E+03  0.13426427612E+03  0.41800000000E+01 0. -1.
         -5    1    3    3    0  502  0.56218497092E+02 -0.27959930737E+02 -0.43510243665E+02  0.76504188420E+02  0.41800000000E+01 0. -1.
        -11    1    1    2    0    0  0.78885671543E+01 -0.26155255661E+02  0.11615722096E+02  0.29685887055E+02  0.00000000000E+00 0. -1.
         11    1    1    2    0    0 -0.28630857726E+02  0.19537732502E+02 -0.82546429275E+02  0.89528554057E+02  0.00000000000E+00 0.  1.
</event>
<event>
 7    1  0.5109948E-006  0.1283571E+03  0.7561462E-02  0.1229914E+00
          3   -1    0    0  501    0  0.00000000000E+00  0.00000000000E+00  0.50859246163E+02  0.50859246163E+02  0.00000000000E+00 0. -1.
         -3   -1    0    0    0  501 -0.00000000000E+00 -0.00000000000E+00 -0.39307096057E+03  0.39307096057E+03  0.00000000000E+00 0.  1.
         23    2    1    2    0    0 -0.74788047431E+02 -0.45694660115E+02 -0.22111528658E+03  0.26873925147E+03  0.12509021272E+03 0.  0.
          5    1    3    3  502    0 -0.82640702767E+02  0.20475927006E+02 -0.13689023495E+03  0.16126114896E+03  0.41800000000E+01 0. -1.
         -5    1    3    3    0  502  0.78526553359E+01 -0.66170587121E+02 -0.84225051626E+02  0.10747810250E+03  0.41800000000E+01 0. -1.
        -11    1    1    2    0    0  0.42894536498E+02  0.56584097734E+02 -0.28251837920E+02  0.76419027235E+02  0.00000000000E+00 0. -1.
         11    1    1    2    0    0  0.31893510933E+02 -0.10889437619E+02 -0.92844589910E+02  0.98771928030E+02  0.00000000000E+00 0.  1.
</event>
<event>
 6    1  0.5109948E-006  0.9024413E+02  0.7561462E-02  0.1302262E+00
          1   -1    0    0  501    0  0.00000000000E+00  0.00000000000E+00  0.20540049732E+03  0.20540049732E+03  0.00000000000E+00 0. -1.
         -1   -1    0    0    0  501 -0.00000000000E+00 -0.00000000000E+00 -0.10046466559E+03  0.10046466559E+03  0.00000000000E+00 0.  1.
          5    1    1    2  502    0  0.45197309322E+02 -0.15739107305E+02  0.73814250030E+02  0.88071176762E+02  0.41800000000E+01 0. -1.
         -5    1    1    2    0  502 -0.48679351791E+02  0.28655600473E+02 -0.61765387448E+02  0.83804881814E+02  0.41800000000E+01 0.  1.
        -11    1    1    2    0    0 -0.28541086721E+01  0.31152395122E+02  0.33433086069E+00  0.31284651752E+02  0.00000000000E+00 0.  1.
         11    1    1    2    0    0  0.63361511410E+01 -0.44068888289E+02  0.92552638285E+02  0.10270445258E+03  0.00000000000E+00 0. -1.
</event>
<event>
 7    1  0.5109948E-006  0.1803455E+03  0.7561462E-02  0.1167469E+00
         -2   -1    0    0    0  501 -0.00000000000E+00  0.00000000000E+00  0.35622558454E+03  0.35622558454E+03  0.00000000000E+00 0.  1.
          2   -1    0    0  501    0  0.00000000000E+00 -0.00000000000E+00 -0.11514538988E+03  0.11514538988E+03  0.00000000000E+00 0. -1.
         23    2    1    2    0    0  0.17011863315E+03  0.89444062621E+01  0.89185468670E+02  0.22939659973E+03  0.12509356658E+03 0.  0.
          5    1    3    3  502    0  0.68365050788E+02  0.16852216917E+02 -0.26245405846E+02  0.75260023335E+02  0.41800000000E+01 0. -1.
         -5    1    3    3    0  502  0.10175358236E+03 -0.79078106544E+01  0.11543087452E+03  0.15413657640E+03  0.41800000000E+01 0. -1.
        -11    1    1    2    0    0 -0.34158929349E+02 -0.35735579986E+02  0.33573218582E+02  0.59758054998E+02  0.00000000000E+00 0. -1.
         11    1    1    2    0    0 -0.13595970380E+03  0.26791173724E+02  0.11832150740E+03  0.18221631969E+03  0.00000000000E+00 0.  1.
</event>
<event>
 7    1  0.5109948E-006  0.1282961E+03  0.7561462E-02  0.1230006E+00
         -2   -1    0    0    0  501 -0.00000000000E+00  0.00000000000E+00  0.31271578887E+03  0.31271578887E+03  0.00000000000E+00 0.  1.
          2   -1    0    0  501    0  0.00000000000E+00 -0.00000000000E+00 -0.57760405770E+02  0.57760405770E+02  0.00000000000E+00 0. -1.
         23    2    1    2    0    0 -0.48884145244E+01 -0.78823102168E+02  0.15871563167E+03  0.21697035554E+03  0.12509398632E+03 0.  0.
          5    1    3    3  502    0 -0.64400920248E+02 -0.40782317767E+02  0.70802949755E+02  0.10412111249E+03  0.41800000000E+01 0. -1.
         -5    1    3    3    0  502  0.59512505724E+02 -0.38040784400E+02  0.87912681914E+02  0.11284924305E+03  0.41800000000E+01 0. -1.
        -11    1    1    2    0    0  0.22316170775E+02  0.87305208149E+02  0.99065596356E+02  0.13391864407E+03  0.00000000000E+00 0.  1.
         11    1    1    2    0    0 -0.17427756251E+02 -0.84821059818E+01 -0.28258449249E+01  0.19587195035E+02  0.00000000000E+00 0. -1.
</event>
<event>
 7    1  0.5109948E-006  0.6117381E+02  0.7561462E-02  0.1392971E+00
          1   -1    0    0  501    0  0.00000000000E+00  0.00000000000E+00  0.38102530830E+03  0.38102530830E+03  0.00000000000E+00 0. -1.
         -1   -1    0    0    0  501 -0.00000000000E+00 -0.00000000000E+00 -0.34544684885E+02  0.34544684885E+02  0.00000000000E+00 0.  1.
         23    2    1    2    0    0  0.28349647464E+02  0.26698502491E+02  0.18974231103E+03  0.23057809065E+03  0.12509036233E+03 0.  0.
          5    1    3    3  502    0  0.56034540973E+01  0.14616364458E+02 -0.16245659403E+02  0.22944076735E+02  0.41800000000E+01 0.  1.
         -5    1    3    3    0  502  0.22746193367E+02  0.12082138034E+02  0.20598797043E+03  0.20763401391E+03  0.41800000000E+01 0.  1.
        -11    1    1    2    0    0 -0.44146141377E+02  0.52056023198E+01  0.30701636193E+02  0.54023796228E+02  0.00000000000E+00 0.  1.
         11    1    1    2    0    0  0.15796493913E+02 -0.31904104811E+02  0.12603667620E+03  0.13096810631E+03  0.00000000000E+00 0. -1.
</event>
<event>
 7    1  0.5109948E-006  0.1269136E+03  0.7561462E-02  0.1232109E+00
         -1   -1    0    0    0  501 -0.00000000000E+00  0.00000000000E+00  0.11555162419E+03  0.11555162419E+03  0.00000000000E+00 0.  1.
          1   -1    0    0  501    0  0.00000000000E+00 -0.00000000000E+00 -0.17462636941E+03  0.17462636941E+03  0.00000000000E+00 0. -1.
         23    2    1    2    0    0  0.84810689855E+02  0.34283725238E+02 -0.42831069788E+02  0.16077559812E+03  0.12508423354E+03 0.  0.
          5    1    3    3  502    0  0.98641786614E+02  0.10877669583E+02 -0.70466041899E+02  0.12178448679E+03  0.41800000000E+01 0.  1.
         -5    1    3    3    0  502 -0.13831096759E+02  0.23406055655E+02  0.27634972110E+02  0.38991111326E+02  0.41800000000E+01 0.  1.
        -11    1    1    2    0    0 -0.11033291972E+02  0.28218790286E+02  0.41486387355E+01  0.30581773334E+02  0.00000000000E+00 0. -1.
         11    1    1    2    0    0 -0.73777397883E+02 -0.62502515524E+02 -0.20392314158E+02  0.98820622149E+02  0.00000000000E+00 0.  1.
</event>
<event>
 6    1  0.5109948E-006  0.1296473E+03  0.7561462E-02  0.1227980E+00
          2   -1    0    0  501    0  0.00000000000E+00  0.00000000000E+00  0.76807511498E+02  0.76807511498E+02  0.00000000000E+00 0. -1.
         -2   -1    0    0    0  501 -0.00000000000E+00 -0.00000000000E+00 -0.20234909420E+04  0.20234909420E+04  0.00000000000E+00 0.  1.
          5    1    1    2  502    0  0.13607770468E+02 -0.18069577441E+02 -0.28481065443E+02  0.36610442975E+02  0.41800000000E+01 0. -1.
         -5    1    1    2    0  502  0.30794009047E+02 -0.89931685411E+02 -0.19144176088E+04  0.19167806949E+04  0.41800000000E+01 0.  1.
        -11    1    1    2    0    0 -0.65349821388E+02  0.98338655083E+02  0.12407688208E+02  0.11872253773E+03  0.00000000000E+00 0. -1.
         11    1    1    2    0    0  0.20948041873E+02  0.96626077687E+01 -0.16192444462E+02  0.28184777893E+02  0.00000000000E+00 0.  1.
</event>
<event>
 7    1  0.5109948E-006  0.7986580E+02  0.7561462E-02  0.1329433E+00
          1   -1    0    0  501    0  0.00000000000E+00  0.00000000000E+00  0.40065883203E+03  0.40065883203E+03  0.00000000000E+00 0.  1.
         -1   -1    0    0    0  501 -0.00000000000E+00 -0.00000000000E+00 -0.43636128345E+02  0.43636128345E+02  0.00000000000E+00 0. -1.
         23    2    1    2    0    0  0.54015389163E+02  0.37737221005E+02  0.24394253586E+03  0.28194443994E+03  0.12507176458E+03 0.  0.
          5    1    3    3  502    0  0.46570506424E+02  0.31844476534E+02  0.23500940646E+02  0.61258871730E+02  0.41800000000E+01 0. -1.
         -5    1    3    3    0  502  0.74448827386E+01  0.58927444711E+01  0.22044159521E+03  0.22068556821E+03  0.41800000000E+01 0. -1.
        -11    1    1    2    0    0 -0.63214696676E+02 -0.47724876093E+02  0.12246285644E+03  0.14584551033E+03  0.00000000000E+00 0.  1.
         11    1    1    2    0    0  0.91993075136E+01  0.99876550882E+01 -0.93826886193E+01  0.16505010107E+02  0.00000000000E+00 0. -1.
</event>
<event>
 7    1  0.5109948E-006  0.2007147E+03  0.7561462E-02  0.1149137E+00
         -2   -1    0    0    0  501 -0.00000000000E+00  0.00000000000E+00  0.24494019246E+02  0.24494019246E+02  0.00000000000E+00 0.  1.
          2   -1    0    0  501    0  0.00000000000E+00 -0.00000000000E+00 -0.18808658369E+04  0.18808658369E+04  0.00000000000E+00 0. -1.
         23    2    1    2    0    0  0.11439317288E+03 -0.14575617414E+03 -0.93664333749E+03  0.96295244963E+03  0.12508404491E+03 0.  0.
          5    1    3    3  502    0  0.12289019837E+03 -0.92468281606E+02 -0.50461860445E+03  0.52755074857E+03  0.41800000000E+01 0.  1.
         -5    1    3    3    0  502 -0.84970254887E+01 -0.53287892531E+02 -0.43202473303E+03  0.43540170106E+03  0.41800000000E+01 0.  1.
        -11    1    1    2    0    0 -0.17809635772E+02  0.65506410029E+02 -0.18577575493E+03  0.19779005031E+03  0.00000000000E+00 0.  1.
         11    1    1    2    0    0 -0.96583537110E+02  0.80249764109E+02 -0.73395272519E+03  0.74461735616E+03  0.00000000000E+00 0. -1.
</event>
<event>
 6    1  0.5109948E-006  0.1171544E+03  0.7561462E-02  0.1247867E+00
          2   -1    0    0  501    0  0.00000000000E+00  0.00000000000E+00  0.67049588827E+03  0.67049588827E+03  0.00000000000E+00 0. -1.
         -2   -1    0    0    0  501 -0.00000000000E+00 -0.00000000000E+00 -0.38603206499E+02  0.38603206499E+02  0.00000000000E+00 0.  1.
          5    1    1    2  502    0  0.14039737665E+02  0.10625182777E+02  0.25135701274E+03  0.25200759710E+03  0.41800000000E+01 0. -1.
         -5    1    1    2    0  502  0.74533385603E+02  0.37156571284E+02  0.42227023096E+02  0.93468873100E+02  0.41800000000E+01 0.  1.
        -11    1    1    2    0    0  0.17418373272E+02 -0.11156097461E+02  0.42373388006E+02  0.47152542340E+02  0.00000000000E+00 0.  1.
         11    1    1    2    0    0 -0.10599149654E+03 -0.36625656601E+02  0.29593525793E+03  0.31647008223E+03  0.00000000000E+00 0. -1.
</event>
<event>
 7    1  0.5109948E-006  0.1027377E+03  0.7561462E-02  0.1274642E+00
          1   -1    0    0  501    0  0.00000000000E+00  0.00000000000E+00  0.15335453004E+03  0.15335453004E+03  0.00000000000E+00 0. -1.
         -1   -1    0    0    0  501 -0.00000000000E+00 -0.00000000000E+00 -0.14323738341E+03  0.14323738341E+03  0.00000000000E+00 0.  1.
         23    2    1    2    0    0  0.12423820850E+02  0.93569665515E+02 -0.29848852993E+02  0.15952766547E+03  0.12509391830E+03 0.  0.
          5    1    3    3  502    0 -0.15892280190E+02  0.39730379403E+02 -0.73075111769E+02  0.84785092894E+02  0.41800000000E+01 0.  1.
         -5    1    3    3    0  502  0.28316101040E+02  0.53839286113E+02  0.43226258775E+02  0.74742572574E+02  0.41800000000E+01 0.  1.
        -11    1    1    2    0    0 -0.21566903038E+02 -0.28209701854E+02 -0.25801129124E+02  0.43893243779E+02  0.00000000000E+00 0.  1.
         11    1    1    2    0    0  0.91430821885E+01 -0.65359963662E+02  0.65767128743E+02  0.93171004207E+02  0.00000000000E+00 0. -1.
</event>
<event>
 6    1  0.5109948E-006  0.1110386E+03  0.7561462E-02  0.1258659E+00
          1   -1    0    0  501    0  0.00000000000E+00  0.00000000000E+00  0.20664884702E+03  0.20664884702E+03  0.00000000000E+00 0. -1.
         -1   -1    0    0    0  501 -0.00000000000E+00 -0.00000000000E+00 -0.79854836882E+02  0.79854836882E+02  0.00000000000E+00 0.  1.
          5    1    1    2  502    0  0.47232348978E+02 -0.54551492359E+02 -0.77196052957E+01  0.72689922373E+02  0.41800000000E+01 0.  1.
         -5    1    1    2    0  502 -0.43425182923E+02  0.42553326826E+02  0.15549648005E+02  0.62895119755E+02  0.41800000000E+01 0. -1.
        -11    1    1    2    0    0  0.15022787628E+02 -0.35074618014E+02  0.73528431887E+02  0.82839261662E+02  0.00000000000E+00 0.  1.
         11    1    1    2    0    0 -0.18829953682E+02  0.47072783547E+02  0.45435535543E+02  0.68079380114E+02  0.00000000000E+00 0. -1.
</event>
<event>
 7    1  0.5109948E-006  0.1726201E+03  0.7561462E-02  0.1175143E+00
          2   -1    0    0  501    0  0.00000000000E+00  0.00000000000E+00  0.12030383219E+04  0.12030383219E+04  0.00000000000E+00 0. -1.
         -2   -1    0    0    0  501 -0.00000000000E+00 -0.00000000000E+00 -0.24878907858E+02  0.24878907858E+02  0.00000000000E+00 0.  1.
         23    2    1    2    0    0  0.26782536829E+02  0.13114614118E+03  0.59982125079E+03  0.62717633443E+03  0.12509199393E+03 0.  0.
          5    1    3    3  502    0  0.32084583191E+01 -0.24829923811E+02  0.86423154537E+02  0.90073599692E+02  0.41800000000E+01 0.  1.
         -5    1    3    3    0  502  0.23574078510E+02  0.15597606499E+03  0.51339809625E+03  0.53710273474E+03  0.41800000000E+01 0.  1.
        -11    1    1    2    0    0 -0.30696935298E+02  0.15271339143E+00  0.92648298650E+02  0.97601395486E+02  0.00000000000E+00 0.  1.
         11    1    1    2    0    0  0.39143984691E+01 -0.13129885457E+03  0.48568986464E+03  0.50313949988E+03  0.00000000000E+00 0. -1.
</event>
<event>
 7    1  0.5109948E-006  0.1079743E+03  0.7561462E-02  0.1264368E+00
         -1   -1    0    0    0  501 -0.00000000000E+00  0.00000000000E+00  0.41811616309E+02  0.41811616309E+02  0.00000000000E+00 0.  1.
          1   -1    0    0  501    0  0.00000000000E+00 -0.00000000000E+00 -0.39086154596E+03  0.39086154596E+03  0.00000000000E+00 0. -1.
         23    2    1    2    0    0 -0.63599271396E+02 -0.29505850850E+02 -0.19832157785E+03  0.24473318490E+03  0.12508965184E+03 0.  0.
          5    1    3    3  502    0 -0.13401989955E+02 -0.58110928296E+02 -0.17009583591E+03  0.18029575457E+03  0.41800000000E+01 0.  1.
         -5    1    3    3    0  502 -0.50197281441E+02  0.28605077446E+02 -0.28225741933E+02  0.64437430329E+02  0.41800000000E+01 0.  1.
        -11    1    1    2    0    0  0.47411128032E+00  0.34882492766E+02 -0.10262861706E+03  0.10839578462E+03  0.00000000000E+00 0. -1.
         11    1    1    2    0    0  0.63125160115E+02 -0.53766419163E+01 -0.48099734746E+02  0.79544192752E+02  0.00000000000E+00 0.  1.
</event>
<event>
 7    1  0.5109948E-006  0.3065568E+03  0.7561462E-02  0.1082008E+00
          1   -1    0    0  501    0  0.00000000000E+00  0.00000000000E+00  0.11920658464E+04  0.11920658464E+04  0.00000000000E+00 0. -1.
         -1   -1    0    0    0  501 -0.00000000000E+00 -0.00000000000E+00 -0.89917989691E+02  0.89917989691E+02  0.00000000000E+00 0.  1.
         23    2    1    2    0    0 -0.30150710459E+03  0.39010767892E+02  0.66304953328E+03  0.74007410595E+03  0.12508646844E+03 0.  0.
          5    1    3    3  502    0 -0.10441033514E+03 -0.71042106701E+01  0.36524352405E+03  0.37996354055E+03  0.41800000000E+01 0.  1.
         -5    1    3    3    0  502 -0.19709676944E+03  0.46114978563E+02  0.29780600924E+03  0.36011056540E+03  0.41800000000E+01 0.  1.
        -11    1    1    2    0    0  0.32028698206E+02 -0.15007418338E+02  0.14039465179E+02  0.38054785460E+02  0.00000000000E+00 0. -1.
         11    1    1    2    0    0  0.26947840638E+03 -0.24003349555E+02  0.42505885822E+03  0.50385494465E+03  0.00000000000E+00 0.  1.
</event>
<event>
 7    1  0.5109948E-006  0.1348732E+03  0.7561462E-02  0.1220399E+00
          2   -1    0    0  501    0  0.00000000000E+00  0.00000000000E+00  0.26963434440E+03  0.26963434440E+03  0.00000000000E+00 0. -1.
         -2   -1    0    0    0  501 -0.00000000000E+00 -0.00000000000E+00 -0.72761957748E+02  0.72761957748E+02  0.00000000000E+00 0.  1.
         23    2    1    2    0    0 -0.56297667140E+02 -0.65013433036E+02  0.82222382321E+02  0.17263766659E+03  0.12508824873E+03 0.  0.
          5    1    3    3  502    0 -0.77863754870E+02 -0.88145251150E+02  0.51886218831E+02  0.12861571338E+03  0.41800000000E+01 0.  1.
         -5    1    3    3    0  502  0.21566087730E+02  0.23131818114E+02  0.30336163491E+02  0.44021953212E+02  0.41800000000E+01 0.  1.
        -11    1    1    2    0    0  0.76312621097E+02  0.64848893778E+02  0.74235291968E+02  0.12465902990E+03  0.00000000000E+00 0. -1.
         11    1    1    2    0    0 -0.20014953957E+02  0.16453925800E+00  0.40414712362E+02  0.45099605656E+02  0.00000000000E+00 0.  1.
</event>
<event>
 7    1  0.5109948E-006  0.1077474E+03  0.7561462E-02  0.1264799E+00
         -2   -1    0    0    0  501 -0.00000000000E+00  0.00000000000E+00  0.71564060346E+02  0.71564060346E+02  0.00000000000E+00 0.  1.
          2   -1    0    0  501    0  0.00000000000E+00 -0.00000000000E+00 -0.19173430315E+03  0.19173430315E+03  0.00000000000E+00 0. -1.
         23    2    1    2    0    0  0.18334792921E+02  0.35197169729E+02 -0.86857675557E+02  0.15737559897E+03  0.12509123855E+03 0.  0.
          5    1    3    3  502    0 -0.51560848132E+02  0.14924478202E+02 -0.17127129099E+02  0.56498425296E+02  0.41800000000E+01 0.  1.
         -5    1    3    3    0  502  0.69895641054E+02  0.20272691527E+02 -0.69730546458E+02  0.10087717368E+03  0.41800000000E+01 0.  1.
        -11    1    1    2    0    0  0.27221663318E+02 -0.33506972439E+02 -0.41179174352E+02  0.59661214839E+02  0.00000000000E+00 0. -1.
         11    1    1    2    0    0 -0.45556456239E+02 -0.16901972902E+01  0.78666071029E+01  0.46261549685E+02  0.00000000000E+00 0.  1.
</event>
<event>
 7    1  0.5109948E-006  0.9912982E+02  0.7561462E-02  0.1282137E+00
         -1   -1    0    0    0  501 -0.00000000000E+00  0.00000000000E+00  0.17503362610E+03  0.17503362610E+03  0.00000000000E+00 0.  1.
          1   -1    0    0  501    0  0.00000000000E+00 -0.00000000000E+00 -0.92692561056E+02  0.92692561056E+02  0.00000000000E+00 0. -1.
         23    2    1    2    0    0 -0.44196147521E+02  0.36194458510E+02  0.81456080807E+02  0.15983129257E+03  0.12509041011E+03 0.  0.
          5    1    3    3  502    0 -0.11375366310E+02  0.74440400637E+02  0.15971876537E+02  0.77093095967E+02  0.41800000000E+01 0. -1.
         -5    1    3    3    0  502 -0.32820781210E+02 -0.38245942127E+02  0.65484204270E+02  0.82738196604E+02  0.41800000000E+01 0. -1.
        -11    1    1    2    0    0  0.36866879305E+02 -0.15954543657E+01  0.40499705143E+02  0.54789947810E+02  0.00000000000E+00 0.  1.
         11    1    1    2    0    0  0.73292682158E+01 -0.34599004144E+02 -0.39614720901E+02  0.53104946779E+02  0.00000000000E+00 0. -1.
</event>
<event>
 7    1  0.5109948E-006  0.7243020E+02  0.7561462E-02  0.1352019E+00
         -3   -1    0    0    0  501 -0.00000000000E+00  0.00000000000E+00  0.14177738281E+03  0.14177738281E+03  0.00000000000E+00 0.  1.
          3   -1    0    0  501    0  0.00000000000E+00 -0.00000000000E+00 -0.12221937204E+03  0.12221937204E+03  0.00000000000E+00 0. -1.
         23    2    1    2    0    0 -0.78575821416E+00  0.44029230820E+01  0.84758261437E+02  0.15116732807E+03  0.12509034753E+03 0.  0.
          5    1    3    3  502    0 -0.56015744726E+02  0.15555735186E+02  0.12793119261E+02  0.59673116684E+02  0.41800000000E+01 0.  1.
         -5    1    3    3    0  502  0.55229986512E+02 -0.11152812104E+02  0.71965142176E+02  0.91494211381E+02  0.41800000000E+01 0.  1.
        -11    1    1    2    0    0  0.68351904080E+01 -0.15776097358E+02 -0.86361105249E+02  0.88055923001E+02  0.00000000000E+00 0. -1.
         11    1    1    2    0    0 -0.60494321938E+01  0.11373174277E+02  0.21160854578E+02  0.24773503779E+02  0.00000000000E+00 0.  1.
</event>
<event>
 7    1  0.5109948E-006  0.1424887E+03  0.7561462E-02  0.1210019E+00
          1   -1    0    0  501    0  0.00000000000E+00  0.00000000000E+00  0.21112911733E+03  0.21112911733E+03  0.00000000000E+00 0. -1.
         -1   -1    0    0    0  501 -0.00000000000E+00 -0.00000000000E+00 -0.16584005626E+03  0.16584005626E+03  0.00000000000E+00 0.  1.
         23    2    1    2    0    0  0.10475316632E+03 -0.66940852187E+02 -0.62599573160E+02  0.18713752821E+03  0.12508974522E+03 0.  0.
          5    1    3    3  502    0  0.25932769061E+02 -0.42805460946E+02 -0.87530975777E+02  0.10091560889E+03  0.41800000000E+01 0. -1.
         -5    1    3    3    0  502  0.78820397262E+02 -0.24135391241E+02  0.24931402617E+02  0.86221919321E+02  0.41800000000E+01 0. -1.
        -11    1    1    2    0    0 -0.11710558118E+03  0.73469869352E+02  0.82880820662E+02  0.16118551200E+03  0.00000000000E+00 0.  1.
         11    1    1    2    0    0  0.12352414855E+02 -0.65290171649E+01  0.25007813569E+02  0.28646133376E+02  0.00000000000E+00 0. -1.
</event>
<event>
 7    1  0.5109948E-006  0.2007129E+03  0.7561462E-02  0.1149139E+00
         -2   -1    0    0    0  501 -0.00000000000E+00  0.00000000000E+00  0.48901450606E+02  0.48901450606E+02  0.00000000000E+00 0.  1.
          2   -1    0    0  501    0  0.00000000000E+00 -0.00000000000E+00 -0.95572706866E+03  0.95572706866E+03  0.00000000000E+00 0. -1.
         23    2    1    2    0    0 -0.16450121443E+03  0.68640505948E+02 -0.34193532210E+03  0.40538785284E+03  0.12508948046E+03 0.  0.
          5    1    3    3  502    0 -0.28627766904E+02  0.73655689417E+02 -0.96708338507E+02  0.12495873222E+03  0.41800000000E+01 0. -1.
         -5    1    3    3    0  502 -0.13587344753E+03 -0.50151834688E+01 -0.24522698360E+03  0.28042912062E+03  0.41800000000E+01 0. -1.
        -11    1    1    2    0    0  0.11355232203E+03 -0.19005036520E+02 -0.44668876011E+03  0.46128751301E+03  0.00000000000E+00 0. -1.
         11    1    1    2    0    0  0.50948892394E+02 -0.49635469428E+02 -0.11820153584E+03  0.13795315341E+03  0.00000000000E+00 0.  1.
</event>
<event>
 7    1  0.5109948E-006  0.1418526E+03  0.7561462E-02  0.1210858E+00
         -2   -1    0    0    0  501 -0.00000000000E+00  0.00000000000E+00  0.22300558037E+03  0.22300558037E+03  0.00000000000E+00 0.  1.
          2   -1    0    0  501    0  0.00000000000E+00 -0.00000000000E+00 -0.14799123273E+03  0.14799123273E+03  0.00000000000E+00 0. -1.
         23    2    1    2    0    0 -0.97857478240E+02  0.61859471129E+02  0.11125546826E+03  0.20354067112E+03  0.12509334661E+03 0.  0.
          5    1    3    3  502    0 -0.13344250000E+02 -0.13051500019E+02  0.85523707499E+02  0.87636679566E+02  0.41800000000E+01 0.  1.
         -5    1    3    3    0  502 -0.84513228240E+02  0.74910971148E+02  0.25731760765E+02  0.11590399155E+03  0.41800000000E+01 0.  1.
        -11    1    1    2    0    0  0.17145125184E+02  0.26708239105E+02  0.17372204272E+02  0.36181194493E+02  0.00000000000E+00 0.  1.
         11    1    1    2    0    0  0.80712353056E+02 -0.88567710234E+02 -0.53613324896E+02  0.13127494749E+03  0.00000000000E+00 0. -1.
</event>
<event>
 6    1  0.5109948E-006  0.7807332E+02  0.7561462E-02  0.1334610E+00
         -2   -1    0    0    0  501 -0.00000000000E+00  0.00000000000E+00  0.26483528487E+03  0.26483528487E+03  0.00000000000E+00 0.  1.
          2   -1    0    0  501    0  0.00000000000E+00 -0.00000000000E+00 -0.52426860411E+02  0.52426860411E+02  0.00000000000E+00 0. -1.
          5    1    1    2  502    0  0.11395940173E+02 -0.54982399053E+02  0.17832573756E+02  0.59062718739E+02  0.41800000000E+01 0. -1.
         -5    1    1    2    0  502 -0.43751402702E+01  0.40921318260E+02  0.18857939181E+03  0.19306308698E+03  0.41800000000E+01 0.  1.
        -11    1    1    2    0    0 -0.11823571427E+02  0.35025082549E+02 -0.10043022661E+02  0.38306860391E+02  0.00000000000E+00 0. -1.
         11    1    1    2    0    0  0.48027715245E+01 -0.20964001755E+02  0.16039481558E+02  0.26829479170E+02  0.00000000000E+00 0.  1.
</event>
<event>
 7    1  0.5109948E-006  0.1520139E+03  0.7561462E-02  0.1198020E+00
          1   -1    0    0  501    0  0.00000000000E+00  0.00000000000E+00  0.10743656175E+04  0.10743656175E+04  0.00000000000E+00 0. -1.
         -1   -1    0    0    0  501 -0.00000000000E+00 -0.00000000000E+00 -0.29404874963E+02  0.29404874963E+02  0.00000000000E+00 0.  1.
         23    2    1    2    0    0  0.11243223780E+03 -0.61016511601E+02  0.37501494154E+03  0.41550859618E+03  0.12508862592E+03 0.  0.
          5    1    3    3  502    0  0.10244855984E+03 -0.17668780172E+02  0.34817393359E+03  0.36338747039E+03  0.41800000000E+01 0.  1.
         -5    1    3    3    0  502  0.99836779614E+01 -0.43347731430E+02  0.26841007956E+02  0.52121125792E+02  0.41800000000E+01 0.  1.
        -11    1    1    2    0    0 -0.43007435652E+02  0.73121891054E+02  0.42480934255E+03  0.43319675436E+03  0.00000000000E+00 0. -1.
         11    1    1    2    0    0 -0.69424802148E+02 -0.12105379452E+02  0.24513645848E+03  0.25506514196E+03  0.00000000000E+00 0.  1.
</event>
<event>
 7    1  0.5109948E-006  0.3036601E+03  0.7561462E-02  0.1083425E+00
         -1   -1    0    0    0  501 -0.00000000000E+00  0.00000000000E+00  0.47450229647E+02  0.47450229647E+02  0.00000000000E+00 0.  1.
          1   -1    0    0  501    0  0.00000000000E+00 -0.00000000000E+00 -0.19731851058E+04  0.19731851058E+04  0.00000000000E+00 0. -1.
         23    2    1    2    0    0 -0.28489579034E+03  0.11217125802E+01 -0.91156550903E+03  0.96320666814E+03  0.12509411935E+03 0.  0.
          5    1    3    3  502    0 -0.16161710287E+01 -0.26124261009E+02 -0.81356418932E+02  0.85565345342E+02  0.41800000000E+01 0.  1.
         -5    1    3    3    0  502 -0.28327961931E+03  0.27245973589E+02 -0.83020909010E+03  0.87764132279E+03  0.41800000000E+01 0.  1.
        -11    1    1    2    0    0  0.15327795946E+03  0.39805833014E+02 -0.46502291394E+03  0.49124835642E+03  0.00000000000E+00 0.  1.
         11    1    1    2    0    0  0.13161783088E+03 -0.40927545594E+02 -0.54914645322E+03  0.56618031093E+03  0.00000000000E+00 0. -1.
</event>
<event>
 7    1  0.5109948E-006  0.1441799E+03  0.7561462E-02  0.1207813E+00
         -2   -1    0    0    0  501 -0.00000000000E+00  0.00000000000E+00  0.11695631503E+03  0.11695631503E+03  0.00000000000E+00 0.  1.
          2   -1    0    0  501    0  0.00000000000E+00 -0.00000000000E+00 -0.55566783496E+03  0.55566783496E+03  0.00000000000E+00 0. -1.
         23    2    1    2    0    0 -0.97737373204E+02  0.80056774022E+02  0.28666873508E+02  0.18009015614E+03  0.12509593724E+03 0.  0.
          5    1    3    3  502    0 -0.55963034605E+02  0.89769105361E+02  0.64567477496E+02  0.12400316556E+03  0.41800000000E+01 0.  1.
         -5    1    3    3    0  502 -0.41774338598E+02 -0.97123313383E+01 -0.35900603988E+02  0.56086990578E+02  0.41800000000E+01 0.  1.
        -11    1    1    2    0    0 -0.53300522629E+01 -0.18718211734E+02 -0.15129759071E+02  0.24651379620E+02  0.00000000000E+00 0.  1.
         11    1    1    2    0    0  0.10306742547E+03 -0.61338562289E+02 -0.45224863436E+03  0.46788261423E+03  0.00000000000E+00 0. -1.
</event>
<event>
 7    1  0.5109948E-006  0.1612490E+03  0.7561462E-02  0.1187294E+00
          1   -1    0    0  501    0  0.00000000000E+00  0.00000000000E+00  0.20379810084E+03  0.20379810084E+03  0.00000000000E+00 0. -1.
         -1   -1    0    0    0  501 -0.00000000000E+00 -0.00000000000E+00 -0.16919569208E+03  0.16919569208E+03  0.00000000000E+00 0.  1.
         23    2    1    2    0    0  0.13503640235E+03 -0.40851586277E+02 -0.33807316559E+02  0.19157742140E+03  0.12512110803E+03 0.  0.
          5    1    3    3  502    0  0.29089413819E+02  0.37710023287E+02 -0.35591581272E+02  0.59602625027E+02  0.41800000000E+01 0.  1.
         -5    1    3    3    0  502  0.10594698853E+03 -0.78561609564E+02  0.17842647136E+01  0.13197479637E+03  0.41800000000E+01 0.  1.
        -11    1    1    2    0    0 -0.45161234208E+02  0.24488929813E+02 -0.19199134905E+02  0.54843883339E+02  0.00000000000E+00 0. -1.
         11    1    1    2    0    0 -0.89875168142E+02  0.16362656464E+02  0.87608860230E+02  0.12657248819E+03  0.00000000000E+00 0.  1.
</event>
<event>
 7    1  0.5109948E-006  0.1563379E+03  0.7561462E-02  0.1192894E+00
          2   -1    0    0  501    0  0.00000000000E+00  0.00000000000E+00  0.13289615894E+04  0.13289615894E+04  0.00000000000E+00 0. -1.
         -2   -1    0    0    0  501 -0.00000000000E+00 -0.00000000000E+00 -0.20431941808E+02  0.20431941808E+02  0.00000000000E+00 0.  1.
         23    2    1    2    0    0 -0.21232426235E+02 -0.12088088133E+03  0.64097889676E+03  0.66450278929E+03  0.12508799901E+03 0.  0.
          5    1    3    3  502    0 -0.59764375923E+02 -0.18424890613E+02  0.17707119600E+03  0.18783753106E+03  0.41800000000E+01 0. -1.
         -5    1    3    3    0  502  0.38531949688E+02 -0.10245599072E+03  0.46390770076E+03  0.47666525823E+03  0.41800000000E+01 0. -1.
        -11    1    1    2    0    0  0.39789716334E+02  0.11386170017E+03  0.63797650356E+03  0.64927785068E+03  0.00000000000E+00 0. -1.
         11    1    1    2    0    0 -0.18557290099E+02  0.70191811665E+01  0.29574247278E+02  0.35612891235E+02  0.00000000000E+00 0.  1.
</event>
<event>
 7    1  0.5109948E-006  0.1216083E+03  0.7561462E-02  0.1240467E+00
         -1   -1    0    0    0  501 -0.00000000000E+00  0.00000000000E+00  0.18926836297E+03  0.18926836297E+03  0.00000000000E+00 0.  1.
          1   -1    0    0  501    0  0.00000000000E+00 -0.00000000000E+00 -0.11785856162E+03  0.11785856162E+03  0.00000000000E+00 0. -1.
         23    2    1    2    0    0 -0.27191723652E+02  0.99648705460E+02  0.88192579868E+02  0.18464688933E+03  0.12508912127E+03 0.  0.
          5    1    3    3  502    0  0.32243495390E+02  0.15432176440E+02 -0.14762523860E+02  0.38899866007E+02  0.41800000000E+01 0. -1.
         -5    1    3    3    0  502 -0.59435219042E+02  0.84216529020E+02  0.10295510373E+03  0.14574702332E+03  0.41800000000E+01 0. -1.
        -11    1    1    2    0    0  0.17728915979E+02 -0.41167938649E+02  0.23723828510E+02  0.50714235414E+02  0.00000000000E+00 0.  1.
         11    1    1    2    0    0  0.94628076721E+01 -0.58480766811E+02 -0.40506607020E+02  0.71765799850E+02  0.00000000000E+00 0. -1.
</event>
<event>
 7    1  0.5109948E-006  0.9492095E+02  0.7561462E-02  0.1291354E+00
         -2   -1    0    0    0  501 -0.00000000000E+00  0.00000000000E+00  0.34436532295E+02  0.34436532295E+02  0.00000000000E+00 0.  1.
          2   -1    0    0  501    0  0.00000000000E+00 -0.00000000000E+00 -0.42724787856E+03  0.42724787856E+03  0.00000000000E+00 0. -1.
         23    2    1    2    0    0 -0.36523455672E+02 -0.38407253685E+02 -0.18697748927E+03  0.23112196402E+03  0.12509077026E+03 0.  0.
          5    1    3    3  502    0  0.24012940210E+02 -0.75208254395E+01  0.62385039843E+01  0.26259768560E+02  0.41800000000E+01 0. -1.
         -5    1    3    3    0  502 -0.60536395882E+02 -0.30886428245E+02 -0.19321599326E+03  0.20486219546E+03  0.41800000000E+01 0. -1.
        -11    1    1    2    0    0  0.17825220515E+02 -0.24680611252E+02 -0.29670419836E+02  0.42511232297E+02  0.00000000000E+00 0.  1.
         11    1    1    2    0    0  0.18698235157E+02  0.63087864937E+02 -0.17616343715E+03  0.18805121454E+03  0.00000000000E+00 0. -1.
</event>
<event>
 7    1  0.5109948E-006  0.9458198E+02  0.7561462E-02  0.1292120E+00
          1   -1    0    0  501    0  0.00000000000E+00  0.00000000000E+00  0.10012350536E+03  0.10012350536E+03  0.00000000000E+00 0. -1.
         -1   -1    0    0    0  501 -0.00000000000E+00 -0.00000000000E+00 -0.17335012965E+03  0.17335012965E+03  0.00000000000E+00 0.  1.
         23    2    1    2    0    0 -0.35958160045E+02  0.22633167971E+01 -0.10730580958E+03  0.16870270969E+03  0.12509178874E+03 0.  0.
          5    1    3    3  502    0  0.43526850753E+02 -0.13516532103E-01 -0.13727746534E+02  0.45831324922E+02  0.41800000000E+01 0. -1.
         -5    1    3    3    0  502 -0.79485010798E+02  0.22768333292E+01 -0.93578063042E+02  0.12287138477E+03  0.41800000000E+01 0. -1.
        -11    1    1    2    0    0 -0.11436780061E+01 -0.23186407813E+02 -0.23576698590E+02  0.33087433008E+02  0.00000000000E+00 0.  1.
         11    1    1    2    0    0  0.37101838051E+02  0.20923091016E+02  0.57655883881E+02  0.71683492315E+02  0.00000000000E+00 0. -1.
</event>
<event>
 7    1  0.5109948E-006  0.1439330E+03  0.7561462E-02  0.1208133E+00
          1   -1    0    0  501    0  0.00000000000E+00  0.00000000000E+00  0.10823194195E+03  0.10823194195E+03  0.00000000000E+00 0. -1.
         -1   -1    0    0    0  501 -0.00000000000E+00 -0.00000000000E+00 -0.29497700876E+03  0.29497700876E+03  0.00000000000E+00 0.  1.
         23    2    1    2    0    0 -0.41929342200E+01 -0.11996098941E+03 -0.18182594786E+03  0.25122998506E+03  0.12509040892E+03 0.  0.
          5    1    3    3  502    0 -0.61568378206E+01 -0.13409009175E+03 -0.19120364743E+03  0.23365437413E+03  0.41800000000E+01 0. -1.
         -5    1    3    3    0  502  0.19639036005E+01  0.14129102344E+02  0.93776995761E+01  0.17575610935E+02  0.41800000000E+01 0. -1.
        -11    1    1    2    0    0 -0.31647517651E+02  0.73520159220E+02  0.27893331726E+02  0.84763300668E+02  0.00000000000E+00 0.  1.
         11    1    1    2    0    0  0.35840451871E+02  0.46440830189E+02 -0.32812450677E+02  0.67215664978E+02  0.00000000000E+00 0. -1.
</event>
<event>
 7    1  0.5109948E-006  0.1054380E+03  0.7561462E-02  0.1269259E+00
          1   -1    0    0  501    0  0.00000000000E+00  0.00000000000E+00  0.14196361307E+03  0.14196361307E+03  0.00000000000E+00 0. -1.
         -1   -1    0    0    0  501 -0.00000000000E+00 -0.00000000000E+00 -0.10878819492E+03  0.10878819492E+03  0.00000000000E+00 0.  1.
         23    2    1    2    0    0 -0.46348432935E+02 -0.47154676429E+02  0.19640898605E+02  0.14284522804E+03  0.12508898246E+03 0.  0.
          5    1    3    3  502    0 -0.32116922188E+01  0.22740986627E+02  0.49998597205E+02  0.55179702447E+02  0.41800000000E+01 0.  1.
         -5    1    3    3    0  502 -0.43136740716E+02 -0.69895663056E+02 -0.30357698600E+02  0.87665525596E+02  0.41800000000E+01 0.  1.
        -11    1    1    2    0    0  0.62978881821E+02  0.89349710782E+01 -0.14158853749E+01  0.63625293673E+02  0.00000000000E+00 0.  1.
         11    1    1    2    0    0 -0.16630448887E+02  0.38219705351E+02  0.14950404923E+02  0.44281286280E+02  0.00000000000E+00 0. -1.
</event>
<event>
 7    1  0.5109948E-006  0.6853674E+02  0.7561462E-02  0.1365141E+00
          1   -1    0    0  501    0  0.00000000000E+00  0.00000000000E+00  0.41906557142E+02  0.41906557142E+02  0.00000000000E+00 0. -1.
         -1   -1    0    0    0  501 -0.00000000000E+00 -0.00000000000E+00 -0.30347964403E+03  0.30347964403E+03  0.00000000000E+00 0.  1.
         23    2    1    2    0    0 -0.47768829743E+01  0.17931001111E+02 -0.19696460401E+03  0.23077553715E+03  0.11881899640E+03 0.  0.
          5    1    3    3  502    0 -0.50266532572E+02 -0.10628359567E+01 -0.34946688114E+02  0.61372610562E+02  0.41800000000E+01 0. -1.
         -5    1    3    3    0  502  0.45489649598E+02  0.18993837068E+02 -0.16201791589E+03  0.16940292659E+03  0.41800000000E+01 0.  1.
        -11    1    1    2    0    0  0.13778057953E+02  0.32318390956E+01 -0.83597355626E+02  0.84786776873E+02  0.00000000000E+00 0.  1.
         11    1    1    2    0    0 -0.90011749782E+01 -0.21162840207E+02  0.18988872743E+02  0.29823887148E+02  0.00000000000E+00 0. -1.
</event>
<event>
 7    1  0.5109948E-006  0.1097477E+03  0.7561462E-02  0.1261038E+00
          2   -1    0    0  501    0  0.00000000000E+00  0.00000000000E+00  0.24686112897E+03  0.24686112897E+03  0.00000000000E+00 0. -1.
         -2   -1    0    0    0  501 -0.00000000000E+00 -0.00000000000E+00 -0.76648165088E+02  0.76648165088E+02  0.00000000000E+00 0.  1.
         23    2    1    2    0    0 -0.10111564451E+02  0.49309280945E+02  0.12775410558E+02  0.13544339825E+03  0.12509218238E+03 0.  0.
          5    1    3    3  502    0 -0.16863673394E+02  0.83266852797E+02 -0.20224215234E+02  0.87431364720E+02  0.41800000000E+01 0. -1.
         -5    1    3    3    0  502  0.67521089424E+01 -0.33957571852E+02  0.32999625792E+02  0.48012033530E+02  0.41800000000E+01 0. -1.
        -11    1    1    2    0    0 -0.29998591334E+02  0.66354421423E+01  0.28518621228E+02  0.41919641354E+02  0.00000000000E+00 0. -1.
         11    1    1    2    0    0  0.40110155786E+02 -0.55944723087E+02  0.12891893210E+03  0.14614625446E+03  0.00000000000E+00 0.  1.
</event>
<event>
 7    1  0.5109948E-006  0.1427356E+03  0.7561462E-02  0.1209695E+00
          1   -1    0    0  501    0  0.00000000000E+00  0.00000000000E+00  0.79809600658E+03  0.79809600658E+03  0.00000000000E+00 0. -1.
         -1   -1    0    0    0  501 -0.00000000000E+00 -0.00000000000E+00 -0.32324718282E+02  0.32324718282E+02  0.00000000000E+00 0.  1.
         23    2    1    2    0    0  0.90177169727E+02  0.71287129547E+02  0.37851675054E+03  0.41463196988E+03  0.12422142819E+03 0.  0.
          5    1    3    3  502    0  0.10517935964E+03  0.32482542354E+02  0.34136039067E+03  0.35869513793E+03  0.41800000000E+01 0. -1.
         -5    1    3    3    0  502 -0.15002189915E+02  0.38804587193E+02  0.37156359871E+02  0.55936831948E+02  0.41800000000E+01 0.  1.
        -11    1    1    2    0    0 -0.26897274760E+02 -0.64465038072E+02  0.10270201512E+03  0.12420510630E+03  0.00000000000E+00 0. -1.
         11    1    1    2    0    0 -0.63279894967E+02 -0.68220914751E+01  0.28455252263E+03  0.29158364868E+03  0.00000000000E+00 0.  1.
</event>
<event>
 7    1  0.5109948E-006  0.2070509E+03  0.7561462E-02  0.1143923E+00
          2   -1    0    0  501    0  0.00000000000E+00  0.00000000000E+00  0.12494506866E+04  0.12494506866E+04  0.00000000000E+00 0.  1.
         -2   -1    0    0    0  501 -0.00000000000E+00 -0.00000000000E+00 -0.49588984657E+02  0.49588984657E+02  0.00000000000E+00 0. -1.
         23    2    1    2    0    0  0.90573663177E+01 -0.17956127008E+03  0.27037122404E+03  0.34795452766E+03  0.12508984345E+03 0.  0.
          5    1    3    3  502    0 -0.18544618836E+02  0.96619967979E+01  0.59764992993E+02  0.63455369020E+02  0.41800000000E+01 0.  1.
         -5    1    3    3    0  502  0.27601985154E+02 -0.18922326688E+03  0.21060623105E+03  0.28449915864E+03  0.41800000000E+01 0.  1.
        -11    1    1    2    0    0  0.39629088445E+02  0.55184299516E+02  0.30805322747E+03  0.31545611821E+03  0.00000000000E+00 0.  1.
         11    1    1    2    0    0 -0.48686454763E+02  0.12437697056E+03  0.62143725042E+03  0.63562902537E+03  0.00000000000E+00 0. -1.
</event>
<event>
 7    1  0.5109948E-006  0.8987796E+02  0.7561462E-02  0.1303148E+00
          1   -1    0    0  501    0  0.00000000000E+00  0.00000000000E+00  0.20773146930E+03  0.20773146930E+03  0.00000000000E+00 0. -1.
         -1   -1    0    0    0  501 -0.00000000000E+00 -0.00000000000E+00 -0.70775369988E+02  0.70775369988E+02  0.00000000000E+00 0.  1.
         23    2    1    2    0    0  0.17911564896E+02 -0.13325802673E+02  0.29304680444E+01  0.11611030262E+03  0.11390616119E+03 0.  0.
          5    1    3    3  502    0 -0.39403200964E+02 -0.36724164253E+02  0.13652989813E+01  0.54042695414E+02  0.41800000000E+01 0. -1.
         -5    1    3    3    0  502  0.57314765861E+02  0.23398361580E+02  0.15651690632E+01  0.62067607207E+02  0.41800000000E+01 0.  1.
        -11    1    1    2    0    0 -0.18541768943E+02 -0.21761572379E+02  0.12199251179E+03  0.12529778993E+03  0.00000000000E+00 0. -1.
         11    1    1    2    0    0  0.63020404733E+00  0.35087375052E+02  0.12033119478E+02  0.37098746738E+02  0.00000000000E+00 0.  1.
</event>
<event>
 7    1  0.5109948E-006  0.1188389E+03  0.7561462E-02  0.1245025E+00
          1   -1    0    0  501    0  0.00000000000E+00  0.00000000000E+00  0.23560235137E+03  0.23560235137E+03  0.00000000000E+00 0. -1.
         -1   -1    0    0    0  501 -0.00000000000E+00 -0.00000000000E+00 -0.71500144906E+02  0.71500144906E+02  0.00000000000E+00 0.  1.
         23    2    1    2    0    0  0.27811300444E+02 -0.81869218459E+02  0.83032780716E+02  0.16574773194E+03  0.11446322818E+03 0.  0.
          5    1    3    3  502    0 -0.36200995791E+02 -0.35674979144E+00  0.38049478621E+02  0.52686569351E+02  0.41800000000E+01 0. -1.
         -5    1    3    3    0  502  0.64012296235E+02 -0.81512468668E+02  0.44983302095E+02  0.11306116258E+03  0.41800000000E+01 0.  1.
        -11    1    1    2    0    0 -0.99807336773E+01  0.78781817893E+02  0.26268566921E+02  0.83643454515E+02  0.00000000000E+00 0.  1.
         11    1    1    2    0    0 -0.17830566767E+02  0.30874005663E+01  0.54800858830E+02  0.57711309828E+02  0.00000000000E+00 0. -1.
</event>
<event>
 7    1  0.5109948E-006  0.2576471E+03  0.7561462E-02  0.1108565E+00
          1   -1    0    0  501    0  0.00000000000E+00  0.00000000000E+00  0.81767786253E+03  0.81767786253E+03  0.00000000000E+00 0. -1.
         -1   -1    0    0    0  501 -0.00000000000E+00 -0.00000000000E+00 -0.10508516121E+03  0.10508516121E+03  0.00000000000E+00 0.  1.
         23    2    1    2    0    0  0.20096566341E+03  0.14996184463E+03  0.19660295777E+03  0.34231134619E+03  0.12509429249E+03 0.  0.
          5    1    3    3  502    0  0.45693371523E+01  0.25266531573E+02 -0.13059248707E+02  0.29108294978E+02  0.41800000000E+01 0. -1.
         -5    1    3    3    0  502  0.19639632626E+03  0.12469531306E+03  0.20966220647E+03  0.31320305122E+03  0.41800000000E+01 0. -1.
        -11    1    1    2    0    0 -0.15966773445E+03 -0.88493591852E+02  0.42890657078E+03  0.46613919346E+03  0.00000000000E+00 0. -1.
         11    1    1    2    0    0 -0.41297928959E+02 -0.61468252782E+02  0.87083172782E+02  0.11431248409E+03  0.00000000000E+00 0.  1.
</event>
<event>
 7    1  0.5109948E-006  0.8190634E+02  0.7561462E-02  0.1323727E+00
          4   -1    0    0  501    0  0.00000000000E+00  0.00000000000E+00  0.98936609986E+02  0.98936609986E+02  0.00000000000E+00 0. -1.
         -4   -1    0    0    0  501 -0.00000000000E+00 -0.00000000000E+00 -0.18680848784E+03  0.18680848784E+03  0.00000000000E+00 0.  1.
         23    2    1    2    0    0  0.13702469991E+02 -0.71907554738E+01 -0.13143302106E+03  0.18210317892E+03  0.12508982412E+03 0.  0.
          5    1    3    3  502    0  0.12829085896E+02  0.52103778680E+02 -0.23181762219E+02  0.58602522960E+02  0.41800000000E+01 0. -1.
         -5    1    3    3    0  502  0.87338409471E+00 -0.59294534154E+02 -0.10825125884E+03  0.12350065596E+03  0.41800000000E+01 0. -1.
        -11    1    1    2    0    0 -0.24921832731E+02  0.21112340915E+02 -0.19536987778E+02  0.38059461071E+02  0.00000000000E+00 0.  1.
         11    1    1    2    0    0  0.11219362740E+02 -0.13921585441E+02  0.63098130989E+02  0.65582457836E+02  0.00000000000E+00 0. -1.
</event>
<event>
 7    1  0.5109948E-006  0.1940497E+03  0.7561462E-02  0.1154859E+00
          1   -1    0    0  501    0  0.00000000000E+00  0.00000000000E+00  0.46679962235E+03  0.46679962235E+03  0.00000000000E+00 0. -1.
         -1   -1    0    0    0  501 -0.00000000000E+00 -0.00000000000E+00 -0.11038586524E+03  0.11038586524E+03  0.00000000000E+00 0.  1.
         23    2    1    2    0    0 -0.17458105633E+03  0.79339062790E+02  0.11741576347E+03  0.25731148856E+03  0.12509799566E+03 0.  0.
          5    1    3    3  502    0 -0.14368829237E+03  0.55590285663E+02  0.23964548966E+02  0.15597556613E+03  0.41800000000E+01 0. -1.
         -5    1    3    3    0  502 -0.30892763962E+02  0.23748777127E+02  0.93451214508E+02  0.10133592242E+03  0.41800000000E+01 0. -1.
        -11    1    1    2    0    0  0.58722081183E+02 -0.44887775834E+02  0.32809934088E+02  0.80868331333E+02  0.00000000000E+00 0.  1.
         11    1    1    2    0    0  0.11585897514E+03 -0.34451286956E+02  0.20618805955E+03  0.23900566770E+03  0.00000000000E+00 0. -1.
</event>
<event>
 7    1  0.5109948E-006  0.7424405E+02  0.7561462E-02  0.1346228E+00
         -1   -1    0    0    0  501 -0.00000000000E+00  0.00000000000E+00  0.14803928683E+03  0.14803928683E+03  0.00000000000E+00 0.  1.
          1   -1    0    0  501    0  0.00000000000E+00 -0.00000000000E+00 -0.85504429665E+02  0.85504429665E+02  0.00000000000E+00 0. -1.
         23    2    1    2    0    0 -0.15858608476E+02  0.12376312072E+02  0.61222514495E+02  0.14071573082E+03  0.12509217424E+03 0.  0.
          5    1    3    3  502    0 -0.35530824200E+02  0.33518605394E+02  0.88243034809E+02  0.10094672837E+03  0.41800000000E+01 0.  1.
         -5    1    3    3    0  502  0.19672215724E+02 -0.21142293322E+02 -0.27020520314E+02  0.39769002457E+02  0.41800000000E+01 0.  1.
        -11    1    1    2    0    0  0.36297094230E+02 -0.26927201542E+02 -0.28832500764E+02  0.53608453930E+02  0.00000000000E+00 0. -1.
         11    1    1    2    0    0 -0.20438485754E+02  0.14550889470E+02  0.30144843435E+02  0.39219531741E+02  0.00000000000E+00 0.  1.
</event>
<event>
 7    1  0.5109948E-006  0.1138079E+03  0.7561462E-02  0.1253676E+00
         -1   -1    0    0    0  501 -0.00000000000E+00  0.00000000000E+00  0.82692351429E+02  0.82692351429E+02  0.00000000000E+00 0.  1.
          1   -1    0    0  501    0  0.00000000000E+00 -0.00000000000E+00 -0.21808583868E+03  0.21808583868E+03  0.00000000000E+00 0. -1.
         23    2    1    2    0    0  0.34249979123E+02 -0.61148377924E+02 -0.32182209520E+02  0.14697320293E+03  0.12511291931E+03 0.  0.
          5    1    3    3  502    0  0.11277125241E+02  0.31792414205E+02  0.18359573333E+02  0.38632596181E+02  0.41800000000E+01 0. -1.
         -5    1    3    3    0  502  0.22972853882E+02 -0.92940792129E+02 -0.50541782853E+02  0.10834060675E+03  0.41800000000E+01 0. -1.
        -11    1    1    2    0    0 -0.10528938493E+02 -0.14837118147E+02 -0.61098316770E+02  0.63749532804E+02  0.00000000000E+00 0. -1.
         11    1    1    2    0    0 -0.23721040630E+02  0.75985496071E+02 -0.42112960963E+02  0.90055454376E+02  0.00000000000E+00 0.  1.
</event>
<event>
 7    1  0.5109948E-006  0.1034820E+03  0.7561462E-02  0.1273140E+00
         -1   -1    0    0    0  501 -0.00000000000E+00  0.00000000000E+00  0.74964702030E+02  0.74964702030E+02  0.00000000000E+00 0.  1.
          1   -1    0    0  501    0  0.00000000000E+00 -0.00000000000E+00 -0.15559342490E+03  0.15559342490E+03  0.00000000000E+00 0. -1.
         23    2    1    2    0    0 -0.64905542079E+01  0.11234134361E+02 -0.44904384993E+02  0.13353107680E+03  0.12508321874E+03 0.  0.
          5    1    3    3  502    0 -0.14431149980E+02 -0.55596054091E+02 -0.13524847521E+02  0.59157190778E+02  0.41800000000E+01 0.  1.
         -5    1    3    3    0  502  0.79405957724E+01  0.66830188452E+02 -0.31379537472E+02  0.74373886020E+02  0.41800000000E+01 0.  1.
        -11    1    1    2    0    0 -0.18573893570E+02 -0.39811948881E+02 -0.39171424508E+02  0.58858995014E+02  0.00000000000E+00 0. -1.
         11    1    1    2    0    0  0.25064447778E+02  0.28577814521E+02  0.34470866327E+01  0.38168055117E+02  0.00000000000E+00 0.  1.
</event>
<event>
 7    1  0.5109948E-006  0.1127401E+03  0.7561462E-02  0.1255578E+00
          2   -1    0    0  501    0  0.00000000000E+00  0.00000000000E+00  0.28654455858E+02  0.28654455858E+02  0.00000000000E+00 0. -1.
         -2   -1    0    0    0  501 -0.00000000000E+00 -0.00000000000E+00 -0.48731223157E+03  0.48731223157E+03  0.00000000000E+00 0.  1.
         23    2    1    2    0    0  0.51072204222E+02  0.13191782484E+02 -0.23587639229E+03  0.27215659685E+03  0.12509655311E+03 0.  0.
          5    1    3    3  502    0 -0.49306936153E+01 -0.50430007523E+02 -0.84534921518E+02  0.98646453329E+02  0.41800000000E+01 0.  1.
         -5    1    3    3    0  502  0.56002897838E+02  0.63621790006E+02 -0.15134147077E+03  0.17351014352E+03  0.41800000000E+01 0.  1.
        -11    1    1    2    0    0 -0.60760439827E+02 -0.31960847116E+02 -0.11463843236E+03  0.13362371410E+03  0.00000000000E+00 0. -1.
         11    1    1    2    0    0  0.96882356049E+01  0.18769064632E+02 -0.10814295107E+03  0.11018637648E+03  0.00000000000E+00 0.  1.
</event>
<event>
 7    1  0.5109948E-006  0.1388598E+03  0.7561462E-02  0.1214871E+00
          1   -1    0    0  501    0  0.00000000000E+00  0.00000000000E+00  0.83722917805E+03  0.83722917805E+03  0.00000000000E+00 0.  1.
         -1   -1    0    0    0  501 -0.00000000000E+00 -0.00000000000E+00 -0.27002386275E+02  0.27002386275E+02  0.00000000000E+00 0. -1.
         23    2    1    2    0    0 -0.17521253220E+02 -0.10246277708E+03  0.42406116154E+03  0.45420159032E+03  0.12516229831E+03 0.  0.
          5    1    3    3  502    0 -0.52637887177E+02 -0.95914155462E+02  0.20691736425E+03  0.23409942420E+03  0.41800000000E+01 0. -1.
         -5    1    3    3    0  502  0.35116633957E+02 -0.65486216191E+01  0.21714379729E+03  0.22010216612E+03  0.41800000000E+01 0. -1.
        -11    1    1    2    0    0  0.32266510633E+02  0.37802238577E+01  0.52256275098E+02  0.61531586100E+02  0.00000000000E+00 0. -1.
         11    1    1    2    0    0 -0.14745257413E+02  0.98682553224E+02  0.33390935514E+03  0.34849838791E+03  0.00000000000E+00 0.  1.
</event>
<event>
 7    1  0.5109948E-006  0.1070317E+03  0.7561462E-02  0.1266168E+00
          1   -1    0    0  501    0  0.00000000000E+00  0.00000000000E+00  0.66213760089E+02  0.66213760089E+02  0.00000000000E+00 0. -1.
         -1   -1    0    0    0  501 -0.00000000000E+00 -0.00000000000E+00 -0.20902562817E+03  0.20902562817E+03  0.00000000000E+00 0.  1.
         23    2    1    2    0    0 -0.40352111745E+01  0.39817704524E+02 -0.10730049867E+03  0.16959357867E+03  0.12508737901E+03 0.  0.
          5    1    3    3  502    0 -0.22131326779E+02  0.81541769690E+02 -0.59115313533E+02  0.10320343271E+03  0.41800000000E+01 0. -1.
         -5    1    3    3    0  502  0.18096115605E+02 -0.41724065166E+02 -0.48185185137E+02  0.66390145960E+02  0.41800000000E+01 0. -1.
        -11    1    1    2    0    0  0.47982109120E+01  0.21725679892E+02  0.14315576499E+02  0.26456827573E+02  0.00000000000E+00 0. -1.
         11    1    1    2    0    0 -0.76299973753E+00 -0.61543384416E+02 -0.49826945910E+02  0.79188982016E+02  0.00000000000E+00 0.  1.
</event>
<event>
 7    1  0.5109948E-006  0.1131159E+03  0.7561462E-02  0.1254906E+00
          4   -1    0    0  501    0  0.00000000000E+00  0.00000000000E+00  0.85991982614E+02  0.85991982614E+02  0.00000000000E+00 0. -1.
         -4   -1    0    0    0  501 -0.00000000000E+00 -0.00000000000E+00 -0.23759585146E+03  0.23759585146E+03  0.00000000000E+00 0.  1.
         23    2    1    2    0    0 -0.64831910343E+02 -0.66574394321E+02 -0.98295157542E+02  0.18424131121E+03  0.12509035207E+03 0.  0.
          5    1    3    3  502    0 -0.69822761197E+02 -0.54908501268E+02 -0.40108970629E+01  0.89015286260E+02  0.41800000000E+01 0. -1.
         -5    1    3    3    0  502  0.49908508533E+01 -0.11665893053E+02 -0.94284260479E+02  0.95226024946E+02  0.41800000000E+01 0. -1.
        -11    1    1    2    0    0  0.16911966356E+02  0.73597482483E+02 -0.50476029444E+02  0.90831897384E+02  0.00000000000E+00 0.  1.
         11    1    1    2    0    0  0.47919943988E+02 -0.70230881618E+01 -0.28326818574E+01  0.48514625482E+02  0.00000000000E+00 0. -1.
</event>
<event>
 6    1  0.5109948E-006  0.6237087E+02  0.7561462E-02  0.1388143E+00
         -2   -1    0    0    0  501 -0.00000000000E+00  0.00000000000E+00  0.17292380701E+03  0.17292380701E+03  0.00000000000E+00 0.  1.
          2   -1    0    0  501    0  0.00000000000E+00 -0.00000000000E+00 -0.10297439206E+03  0.10297439206E+03  0.00000000000E+00 0. -1.
          5    1    1    2  502    0 -0.17170322478E+02 -0.45726042491E+02 -0.11946852887E+02  0.50456819457E+02  0.41800000000E+01 0. -1.
         -5    1    1    2    0  502 -0.12242697668E+02  0.40371136129E+02  0.11679632091E+03  0.12425202315E+03  0.41800000000E+01 0.  1.
        -11    1    1    2    0    0  0.11395807719E+02  0.95026776355E+01 -0.64557636761E+02  0.66240876957E+02  0.00000000000E+00 0. -1.
         11    1    1    2    0    0  0.18017212427E+02 -0.41477712739E+01  0.29657583684E+02  0.34948479512E+02  0.00000000000E+00 0.  1.
</event>
<event>
 6    1  0.5109948E-006  0.2783377E+03  0.7561462E-02  0.1096600E+00
          1   -1    0    0  501    0  0.00000000000E+00  0.00000000000E+00  0.91588155733E+03  0.91588155733E+03  0.00000000000E+00 0. -1.
         -1   -1    0    0    0  501 -0.00000000000E+00 -0.00000000000E+00 -0.20851500957E+03  0.20851500957E+03  0.00000000000E+00 0.  1.
          5    1    1    2  502    0  0.91388564457E+02 -0.10791767047E+03  0.51767505654E+01  0.14157105799E+03  0.41800000000E+01 0. -1.
         -5    1    1    2    0  502 -0.22901323516E+03  0.69440837948E+02 -0.19349166251E+02  0.24012695494E+03  0.41800000000E+01 0.  1.
        -11    1    1    2    0    0  0.13666311460E+03 -0.69932711358E+00  0.54694159145E+03  0.56375739499E+03  0.00000000000E+00 0. -1.
         11    1    1    2    0    0  0.96155609961E+00  0.39176159635E+02  0.17459737199E+03  0.17894115899E+03  0.00000000000E+00 0.  1.
</event>
<event>
 7    1  0.5109948E-006  0.1105597E+03  0.7561462E-02  0.1259537E+00
         -1   -1    0    0    0  501 -0.00000000000E+00  0.00000000000E+00  0.47130167430E+02  0.47130167430E+02  0.00000000000E+00 0.  1.
          1   -1    0    0  501    0  0.00000000000E+00 -0.00000000000E+00 -0.31574650342E+03  0.31574650342E+03  0.00000000000E+00 0. -1.
         23    2    1    2    0    0  0.15424458871E+02 -0.44816280213E+02 -0.10614683340E+03  0.17076361354E+03  0.12508656428E+03 0.  0.
          5    1    3    3  502    0 -0.34683888511E+02  0.18960938779E+02 -0.35417280503E+01  0.39906209532E+02  0.41800000000E+01 0. -1.
         -5    1    3    3    0  502  0.50108347382E+02 -0.63777218992E+02 -0.10260510535E+03  0.13085740401E+03  0.41800000000E+01 0. -1.
        -11    1    1    2    0    0  0.32616198085E+02  0.40385077981E+02 -0.63561045993E+02  0.82065689961E+02  0.00000000000E+00 0.  1.
         11    1    1    2    0    0 -0.48040656956E+02  0.44312022320E+01 -0.98908456596E+02  0.11004736735E+03  0.00000000000E+00 0. -1.
</event>
<event>
 7    1  0.5109948E-006  0.1399728E+03  0.7561462E-02  0.1213366E+00
          1   -1    0    0  501    0  0.00000000000E+00  0.00000000000E+00  0.19616039025E+03  0.19616039025E+03  0.00000000000E+00 0. -1.
         -1   -1    0    0    0  501 -0.00000000000E+00 -0.00000000000E+00 -0.13187220321E+03  0.13187220321E+03  0.00000000000E+00 0.  1.
         23    2    1    2    0    0 -0.89654356344E+02  0.67649222182E+02 -0.66762735515E+01  0.16823685819E+03  0.12507896287E+03 0.  0.
          5    1    3    3  502    0 -0.80411418541E+02  0.12833397367E+02 -0.51728887174E+02  0.96561081643E+02  0.41800000000E+01 0. -1.
         -5    1    3    3    0  502 -0.92429378025E+01  0.54815824814E+02  0.45052613622E+02  0.71675776546E+02  0.41800000000E+01 0. -1.
        -11    1    1    2    0    0  0.79864668780E+02 -0.58344277300E+01  0.46495999337E+02  0.92597428802E+02  0.00000000000E+00 0.  1.
         11    1    1    2    0    0  0.97896875638E+01 -0.61814794452E+02  0.24468461254E+02  0.67198306466E+02  0.00000000000E+00 0. -1.
</event>
<event>
 7    1  0.5109948E-006  0.1184437E+03  0.7561462E-02  0.1245687E+00
         -1   -1    0    0    0  501 -0.00000000000E+00  0.00000000000E+00  0.82679831665E+03  0.82679831665E+03  0.00000000000E+00 0.  1.
          1   -1    0    0  501    0  0.00000000000E+00 -0.00000000000E+00 -0.26812377614E+02  0.26812377614E+02  0.00000000000E+00 0. -1.
         23    2    1    2    0    0  0.14107570098E+02  0.53272492410E+02  0.68054857281E+03  0.69414116947E+03  0.12509444919E+03 0.  0.
          5    1    3    3  502    0 -0.16287371520E+02 -0.37348914428E+02  0.19460383302E+03  0.19886765475E+03  0.41800000000E+01 0. -1.
         -5    1    3    3    0  502  0.30394941618E+02  0.90621406838E+02  0.48594473979E+03  0.49527351472E+03  0.41800000000E+01 0. -1.
        -11    1    1    2    0    0 -0.18543600139E+02  0.19753053630E+02  0.12345596633E+02  0.29773511551E+02  0.00000000000E+00 0. -1.
         11    1    1    2    0    0  0.44360300406E+01 -0.73025546040E+02  0.10709176960E+03  0.12969601325E+03  0.00000000000E+00 0.  1.
</event>
<event>
 7    1  0.5109948E-006  0.2412060E+03  0.7561462E-02  0.1118992E+00
         -2   -1    0    0    0  501 -0.00000000000E+00  0.00000000000E+00  0.32646322354E+02  0.32646322354E+02  0.00000000000E+00 0.  1.
          2   -1    0    0  501    0  0.00000000000E+00 -0.00000000000E+00 -0.20804411636E+04  0.20804411636E+04  0.00000000000E+00 0. -1.
         23    2    1    2    0    0  0.23730210795E+02  0.22779896417E+03 -0.81051370806E+03  0.85148882310E+03  0.12508098950E+03 0.  0.
          5    1    3    3  502    0 -0.59795800530E+01  0.17527622980E+03 -0.40322957596E+03  0.43973750743E+03  0.41800000000E+01 0.  1.
         -5    1    3    3    0  502  0.29709790848E+02  0.52522734367E+02 -0.40728413210E+03  0.41175131567E+03  0.41800000000E+01 0.  1.
        -11    1    1    2    0    0 -0.56532384403E+02 -0.10339916436E+03 -0.58515207724E+03  0.59690053708E+03  0.00000000000E+00 0.  1.
         11    1    1    2    0    0  0.32802173608E+02 -0.12439979981E+03 -0.65212905599E+03  0.66469812581E+03  0.00000000000E+00 0. -1.
</event>
<event>
 7    1  0.5109948E-006  0.1628146E+03  0.7561462E-02  0.1185555E+00
         -1   -1    0    0    0  501 -0.00000000000E+00  0.00000000000E+00  0.53343274031E+02  0.53343274031E+02  0.00000000000E+00 0.  1.
          1   -1    0    0  501    0  0.00000000000E+00 -0.00000000000E+00 -0.55276854578E+03  0.55276854578E+03  0.00000000000E+00 0. -1.
         23    2    1    2    0    0 -0.42233700025E+02 -0.12422689285E+03 -0.22256382690E+03  0.28704935069E+03  0.12508663542E+03 0.  0.
          5    1    3    3  502    0  0.42347053389E+02 -0.33749002041E+02 -0.45085262991E+02  0.70586269263E+02  0.41800000000E+01 0.  1.
         -5    1    3    3    0  502 -0.84580753413E+02 -0.90477890813E+02 -0.17747856391E+03  0.21646308143E+03  0.41800000000E+01 0.  1.
        -11    1    1    2    0    0  0.18105314911E+02  0.12180385988E+03 -0.17264530482E+03  0.21206221726E+03  0.00000000000E+00 0.  1.
         11    1    1    2    0    0  0.24128385113E+02  0.24230329721E+01 -0.10421614002E+03  0.10700025186E+03  0.00000000000E+00 0. -1.
</event>
<event>
 7    1  0.5109948E-006  0.1409156E+03  0.7561462E-02  0.1212102E+00
         -1   -1    0    0    0  501 -0.00000000000E+00  0.00000000000E+00  0.57137885172E+02  0.57137885172E+02  0.00000000000E+00 0.  1.
          1   -1    0    0  501    0  0.00000000000E+00 -0.00000000000E+00 -0.47079980793E+03  0.47079980793E+03  0.00000000000E+00 0. -1.
         23    2    1    2    0    0 -0.11932726751E+03 -0.24876264369E+02 -0.19285389549E+03  0.26018775470E+03  0.12508883799E+03 0.  0.
          5    1    3    3  502    0 -0.59258192503E+02 -0.35595261409E+02 -0.13320865096E+02  0.70522860552E+02  0.41800000000E+01 0. -1.
         -5    1    3    3    0  502 -0.60069075004E+02  0.10718997040E+02 -0.17953303039E+03  0.18966489414E+03  0.41800000000E+01 0. -1.
        -11    1    1    2    0    0  0.28651807367E+02 -0.33110012066E+02 -0.65950904001E+02  0.79162621881E+02  0.00000000000E+00 0.  1.
         11    1    1    2    0    0  0.90675460140E+02  0.57986276435E+02 -0.15485712327E+03  0.18858731652E+03  0.00000000000E+00 0. -1.
</event>
<event>
 7    1  0.5109948E-006  0.1247505E+03  0.7561462E-02  0.1235460E+00
          2   -1    0    0  501    0  0.00000000000E+00  0.00000000000E+00  0.30289241520E+03  0.30289241520E+03  0.00000000000E+00 0. -1.
         -2   -1    0    0    0  501 -0.00000000000E+00 -0.00000000000E+00 -0.98404199855E+02  0.98404199855E+02  0.00000000000E+00 0.  1.
         23    2    1    2    0    0  0.84479414666E+02  0.53378363331E+02  0.52418151572E+01  0.16019367567E+03  0.12509402833E+03 0.  0.
          5    1    3    3  502    0  0.10307059982E+03  0.15488106092E+02 -0.26016779742E+02  0.10750709375E+03  0.41800000000E+01 0.  1.
         -5    1    3    3    0  502 -0.18591185155E+02  0.37890257239E+02  0.31258594900E+02  0.52686581918E+02  0.41800000000E+01 0.  1.
        -11    1    1    2    0    0 -0.28803219572E+02 -0.32217218951E+02  0.16873422643E+03  0.17418040597E+03  0.00000000000E+00 0. -1.
         11    1    1    2    0    0 -0.55676195094E+02 -0.21161144380E+02  0.30512173754E+02  0.66922533416E+02  0.00000000000E+00 0.  1.
</event>
<event>
 6    1  0.5109948E-006  0.2672077E+03  0.7561462E-02  0.1102888E+00
          2   -1    0    0  501    0  0.00000000000E+00  0.00000000000E+00  0.33676508208E+03  0.33676508208E+03  0.00000000000E+00 0. -1.
         -2   -1    0    0    0  501 -0.00000000000E+00 -0.00000000000E+00 -0.33612325227E+03  0.33612325227E+03  0.00000000000E+00 0.  1.
          5    1    1    2  502    0 -0.15957737113E+03 -0.10691650721E+03 -0.71308724035E+02  0.20493531520E+03  0.41800000000E+01 0. -1.
         -5    1    1    2    0  502 -0.79194636606E+02  0.54078973035E+02 -0.11307786533E+03  0.14832532427E+03  0.41800000000E+01 0.  1.
        -11    1    1    2    0    0  0.16431584773E+03  0.22297902530E+02  0.17052279743E+03  0.23785482697E+03  0.00000000000E+00 0. -1.
         11    1    1    2    0    0  0.74456160011E+02  0.30539631648E+02  0.14505621747E+02  0.81772867915E+02  0.00000000000E+00 0.  1.
</event>
<event>
 7    1  0.5109948E-006  0.1009535E+03  0.7561462E-02  0.1278303E+00
         -1   -1    0    0    0  501 -0.00000000000E+00  0.00000000000E+00  0.11789567681E+02  0.11789567681E+02  0.00000000000E+00 0.  1.
          1   -1    0    0  501    0  0.00000000000E+00 -0.00000000000E+00 -0.10624206804E+04  0.10624206804E+04  0.00000000000E+00 0. -1.
         23    2    1    2    0    0  0.46885369936E+01 -0.37858604480E+02 -0.62733883805E+03  0.64082504008E+03  0.12508979956E+03 0.  0.
          5    1    3    3  502    0  0.84931637064E+01  0.34889162929E+02 -0.70523488277E+02  0.79249115569E+02  0.41800000000E+01 0.  1.
         -5    1    3    3    0  502 -0.38046267127E+01 -0.72747767409E+02 -0.55681534977E+03  0.56157592451E+03  0.41800000000E+01 0.  1.
        -11    1    1    2    0    0 -0.33637739773E+02  0.50922241184E+02 -0.29148617968E+03  0.29780659013E+03  0.00000000000E+00 0. -1.
         11    1    1    2    0    0  0.28949202779E+02 -0.13063636704E+02 -0.13180609495E+03  0.13557861782E+03  0.00000000000E+00 0.  1.
</event>
<event>
 7    1  0.5109948E-006  0.1477620E+03  0.7561462E-02  0.1203250E+00
         -1   -1    0    0    0  501 -0.00000000000E+00  0.00000000000E+00  0.10961279666E+03  0.10961279666E+03  0.00000000000E+00 0.  1.
          1   -1    0    0  501    0  0.00000000000E+00 -0.00000000000E+00 -0.27668158998E+03  0.27668158998E+03  0.00000000000E+00 0. -1.
         23    2    1    2    0    0  0.18830633928E+02 -0.10651458834E+03  0.19401825559E+01  0.16538269215E+03  0.12509084800E+03 0.  0.
          5    1    3    3  502    0  0.25592247026E+02  0.22141450933E+02 -0.11012130560E+02  0.35832197487E+02  0.41800000000E+01 0. -1.
         -5    1    3    3    0  502 -0.67616130986E+01 -0.12865603927E+03  0.12952313116E+02  0.12955049467E+03  0.41800000000E+01 0. -1.
        -11    1    1    2    0    0 -0.48820177283E+02  0.63899472913E+02 -0.13952349747E+03  0.16103837647E+03  0.00000000000E+00 0. -1.
         11    1    1    2    0    0  0.29989543355E+02  0.42615115428E+02 -0.29485478412E+02  0.59873318020E+02  0.00000000000E+00 0.  1.
</event>
<event>
 7    1  0.5109948E-006  0.1197845E+03  0.7561462E-02  0.1243453E+00
          4   -1    0    0  501    0  0.00000000000E+00  0.00000000000E+00  0.57227488694E+03  0.57227488694E+03  0.00000000000E+00 0. -1.
         -4   -1    0    0    0  501 -0.00000000000E+00 -0.00000000000E+00 -0.38654079343E+02  0.38654079343E+02  0.00000000000E+00 0.  1.
         23    2    1    2    0    0  0.61438806056E+02  0.76718966958E+02  0.23790583982E+03  0.28619396911E+03  0.12508905849E+03 0.  0.
          5    1    3    3  502    0 -0.52657437884E-01  0.27288945004E+02  0.19370769412E+03  0.19566510280E+03  0.41800000000E+01 0. -1.
         -5    1    3    3    0  502  0.61491463494E+02  0.49430021954E+02  0.44198145708E+02  0.90528866319E+02  0.41800000000E+01 0. -1.
        -11    1    1    2    0    0 -0.51206881856E+02 -0.97310816201E+02  0.25950672080E+03  0.28184264730E+03  0.00000000000E+00 0. -1.
         11    1    1    2    0    0 -0.10231924200E+02  0.20591849243E+02  0.36208246983E+02  0.42892349873E+02  0.00000000000E+00 0.  1.
</event>
<event>
 7    1  0.5109948E-006  0.1352883E+03  0.7561462E-02  0.1219813E+00
          1   -1    0    0  501    0  0.00000000000E+00  0.00000000000E+00  0.70607155884E+03  0.70607155884E+03  0.00000000000E+00 0. -1.
         -1   -1    0    0    0  501 -0.00000000000E+00 -0.00000000000E+00 -0.30828712671E+02  0.30828712671E+02  0.00000000000E+00 0.  1.
         23    2    1    2    0    0  0.84269353397E+02  0.50513689364E+02  0.33542121892E+03  0.37122503639E+03  0.12509067433E+03 0.  0.
          5    1    3    3  502    0  0.36354779293E+02 -0.29946890602E+02  0.20639035237E+03  0.21173789502E+03  0.41800000000E+01 0.  1.
         -5    1    3    3    0  502  0.47914574105E+02  0.80460579966E+02  0.12903086655E+03  0.15948714137E+03  0.41800000000E+01 0.  1.
        -11    1    1    2    0    0 -0.10087797218E+03 -0.34869731635E+02  0.23070725276E+03  0.25420090466E+03  0.00000000000E+00 0.  1.
         11    1    1    2    0    0  0.16608618785E+02 -0.15643957729E+02  0.10911437449E+03  0.11147433046E+03  0.00000000000E+00 0. -1.
</event>
<event>
 7    1  0.5109948E-006  0.6955736E+02  0.7561462E-02  0.1361605E+00
         -1   -1    0    0    0  501 -0.00000000000E+00  0.00000000000E+00  0.10065037031E+03  0.10065037031E+03  0.00000000000E+00 0.  1.
          1   -1    0    0  501    0  0.00000000000E+00 -0.00000000000E+00 -0.16620279137E+03  0.16620279137E+03  0.00000000000E+00 0. -1.
         23    2    1    2    0    0  0.36371262964E+02 -0.50135163207E+01  0.24678173218E+02  0.13268129160E+03  0.12508920334E+03 0.  0.
          5    1    3    3  502    0 -0.84148188761E+01 -0.13185697181E+01  0.68867435614E+02  0.69517939346E+02  0.41800000000E+01 0.  1.
         -5    1    3    3    0  502  0.44786081840E+02 -0.36949466026E+01 -0.44189262396E+02  0.63163352255E+02  0.41800000000E+01 0.  1.
        -11    1    1    2    0    0 -0.16822681045E+02 -0.35625829339E+02 -0.77283067183E+01  0.40148836078E+02  0.00000000000E+00 0.  1.
         11    1    1    2    0    0 -0.19548581919E+02  0.40639345660E+02 -0.82502287553E+02  0.94023033998E+02  0.00000000000E+00 0. -1.
</event>
<event>
 7    1  0.5109948E-006  0.1135851E+03  0.7561462E-02  0.1254071E+00
         -2   -1    0    0    0  501 -0.00000000000E+00  0.00000000000E+00  0.22110338783E+02  0.22110338783E+02  0.00000000000E+00 0.  1.
          2   -1    0    0  501    0  0.00000000000E+00 -0.00000000000E+00 -0.85648900245E+03  0.85648900245E+03  0.00000000000E+00 0. -1.
         23    2    1    2    0    0 -0.63745321589E+02 -0.37731889960E+02 -0.33141810062E+03  0.36190156108E+03  0.12509045107E+03 0.  0.
          5    1    3    3  502    0  0.25174548461E+01 -0.42207940533E+02 -0.26318038180E+03  0.26658813475E+03  0.41800000000E+01 0. -1.
         -5    1    3    3    0  502 -0.66262776435E+02  0.44760505730E+01 -0.68237718812E+02  0.95313426327E+02  0.41800000000E+01 0. -1.
        -11    1    1    2    0    0  0.13302895562E+02 -0.30504730926E+02 -0.15613811661E+03  0.15964528523E+03  0.00000000000E+00 0.  1.
         11    1    1    2    0    0  0.50442426027E+02  0.68236620886E+02 -0.34682244645E+03  0.35705249492E+03  0.00000000000E+00 0. -1.
</event>
<event>
 7    1  0.5109948E-006  0.9344167E+02  0.7561462E-02  0.1294725E+00
         -1   -1    0    0    0  501 -0.00000000000E+00  0.00000000000E+00  0.17118499890E+04  0.17118499890E+04  0.00000000000E+00 0.  1.
          1   -1    0    0  501    0  0.00000000000E+00 -0.00000000000E+00 -0.10734573350E+02  0.10734573350E+02  0.00000000000E+00 0. -1.
         23    2    1    2    0    0 -0.47078054286E+01 -0.12550557253E+02  0.14407205214E+04  0.14461988391E+04  0.12504311945E+03 0.  0.
          5    1    3    3  502    0  0.51743034058E+02 -0.91754459199E+01  0.34424529922E+03  0.34825827889E+03  0.41800000000E+01 0. -1.
         -5    1    3    3    0  502 -0.56450839487E+02 -0.33751113331E+01  0.10964752221E+04  0.10979405602E+04  0.41800000000E+01 0. -1.
        -11    1    1    2    0    0 -0.31502467919E+02 -0.12002466304E+02  0.19376947484E+03  0.19668013133E+03  0.00000000000E+00 0.  1.
         11    1    1    2    0    0  0.36210273348E+02  0.24553023557E+02  0.66625419503E+02  0.79705591934E+02  0.00000000000E+00 0. -1.
</event>
<event>
 7    1  0.5109948E-006  0.1729303E+03  0.7561462E-02  0.1174826E+00
          3   -1    0    0  501    0  0.00000000000E+00  0.00000000000E+00  0.22021525442E+03  0.22021525442E+03  0.00000000000E+00 0. -1.
         -3   -1    0    0    0  501 -0.00000000000E+00 -0.00000000000E+00 -0.15292127599E+03  0.15292127599E+03  0.00000000000E+00 0.  1.
         23    2    1    2    0    0 -0.10655994870E+03 -0.10163283414E+03  0.28530045317E+02  0.19531120262E+03  0.12509295240E+03 0.  0.
          5    1    3    3  502    0 -0.23753666362E+02  0.25881259238E+02  0.24731001992E+02  0.43164465767E+02  0.41800000000E+01 0.  1.
         -5    1    3    3    0  502 -0.82806282340E+02 -0.12751409338E+03  0.37990433249E+01  0.15214673685E+03  0.41800000000E+01 0.  1.
        -11    1    1    2    0    0  0.18047537866E+02  0.55928264321E+02 -0.20108518967E+02  0.62113097717E+02  0.00000000000E+00 0.  1.
         11    1    1    2    0    0  0.88512410836E+02  0.45704569818E+02  0.58872452085E+02  0.11571223007E+03  0.00000000000E+00 0. -1.
</event>
<event>
 7    1  0.5109948E-006  0.1138787E+03  0.7561462E-02  0.1253551E+00
          1   -1    0    0  501    0  0.00000000000E+00  0.00000000000E+00  0.11058940863E+04  0.11058940863E+04  0.00000000000E+00 0. -1.
         -1   -1    0    0    0  501 -0.00000000000E+00 -0.00000000000E+00 -0.20817602240E+02  0.20817602240E+02  0.00000000000E+00 0.  1.
         23    2    1    2    0    0  0.25435805529E+02  0.97149506122E+02  0.46101977348E+03  0.48812937291E+03  0.12508415733E+03 0.  0.
          5    1    3    3  502    0 -0.10251936602E+02  0.13336584860E+02  0.31825131090E+03  0.31872297688E+03  0.41800000000E+01 0.  1.
         -5    1    3    3    0  502  0.35687742131E+02  0.83812921262E+02  0.14276846258E+03  0.16940639603E+03  0.41800000000E+01 0.  1.
        -11    1    1    2    0    0 -0.16608055396E+02 -0.10566857777E+03  0.61235936267E+03  0.62163145422E+03  0.00000000000E+00 0. -1.
         11    1    1    2    0    0 -0.88277501329E+01  0.85190716436E+01  0.11697347890E+02  0.16950861386E+02  0.00000000000E+00 0.  1.
</event>
<event>
 7    1  0.5109948E-006  0.9999162E+02  0.7561462E-02  0.1280314E+00
          1   -1    0    0  501    0  0.00000000000E+00  0.00000000000E+00  0.22501223863E+03  0.22501223863E+03  0.00000000000E+00 0. -1.
         -1   -1    0    0    0  501 -0.00000000000E+00 -0.00000000000E+00 -0.57644498582E+02  0.57644498582E+02  0.00000000000E+00 0.  1.
         23    2    1    2    0    0  0.20344600794E+01 -0.39901719612E+02  0.66839702163E+02  0.14734549355E+03  0.12508741915E+03 0.  0.
          5    1    3    3  502    0  0.14403897112E+02 -0.73096013647E+02  0.79932318348E+02  0.10934874201E+03  0.41800000000E+01 0.  1.
         -5    1    3    3    0  502 -0.12369437033E+02  0.33194294035E+02 -0.13092616185E+02  0.37996751540E+02  0.41800000000E+01 0.  1.
        -11    1    1    2    0    0  0.29337553187E-01 -0.24879982503E+02  0.19885480584E+02  0.31850380345E+02  0.00000000000E+00 0. -1.
         11    1    1    2    0    0 -0.20637976326E+01  0.64781702115E+02  0.80642557300E+02  0.10346086331E+03  0.00000000000E+00 0.  1.
</event>
<event>
 7    1  0.5109948E-006  0.1145625E+03  0.7561462E-02  0.1252347E+00
         -2   -1    0    0    0  501 -0.00000000000E+00  0.00000000000E+00  0.23492439212E+02  0.23492439212E+02  0.00000000000E+00 0.  1.
          2   -1    0    0  501    0  0.00000000000E+00 -0.00000000000E+00 -0.84196373733E+03  0.84196373733E+03  0.00000000000E+00 0. -1.
         23    2    1    2    0    0  0.74992346583E+01  0.81304568588E+02 -0.38286705549E+03  0.41097733306E+03  0.12509402351E+03 0.  0.
          5    1    3    3  502    0  0.17174296600E+02  0.86125953152E+02 -0.12485557340E+03  0.15270567402E+03  0.41800000000E+01 0. -1.
         -5    1    3    3    0  502 -0.96750619419E+01 -0.48213845643E+01 -0.25801148209E+03  0.25827165904E+03  0.41800000000E+01 0. -1.
        -11    1    1    2    0    0  0.45953877512E+02 -0.26448675151E+02 -0.17887656444E+03  0.18656933451E+03  0.00000000000E+00 0.  1.
         11    1    1    2    0    0 -0.53453112170E+02 -0.54855893437E+02 -0.25672767819E+03  0.26790950897E+03  0.00000000000E+00 0. -1.
</event>
<event>
 7    1  0.5109948E-006  0.1693503E+03  0.7561462E-02  0.1178527E+00
          2   -1    0    0  501    0  0.00000000000E+00  0.00000000000E+00  0.12542926826E+03  0.12542926826E+03  0.00000000000E+00 0. -1.
         -2   -1    0    0    0  501 -0.00000000000E+00 -0.00000000000E+00 -0.24575896035E+03  0.24575896035E+03  0.00000000000E+00 0.  1.
         23    2    1    2    0    0 -0.11934881477E+03  0.64183590541E+02 -0.91231418147E+02  0.20575427043E+03  0.12509186729E+03 0.  0.
          5    1    3    3  502    0 -0.81208036772E+02 -0.23807371144E+02 -0.22417897757E+02  0.87644570265E+02  0.41800000000E+01 0.  1.
         -5    1    3    3    0  502 -0.38140777998E+02  0.87990961685E+02 -0.68813520390E+02  0.11810970016E+03  0.41800000000E+01 0.  1.
        -11    1    1    2    0    0  0.15502083379E+02 -0.50993578619E+02  0.89669379103E+01  0.54046883582E+02  0.00000000000E+00 0. -1.
         11    1    1    2    0    0  0.10384673139E+03 -0.13190011922E+02 -0.38065211857E+02  0.11138707460E+03  0.00000000000E+00 0.  1.
</event>
<event>
 7    1  0.5109948E-006  0.1364777E+03  0.7561462E-02  0.1218149E+00
         -4   -1    0    0    0  501 -0.00000000000E+00  0.00000000000E+00  0.60083400905E+02  0.60083400905E+02  0.00000000000E+00 0.  1.
          4   -1    0    0  501    0  0.00000000000E+00 -0.00000000000E+00 -0.38539505730E+03  0.38539505730E+03  0.00000000000E+00 0. -1.
         23    2    1    2    0    0 -0.76298440276E+02 -0.73199766914E+02 -0.19689500465E+03  0.25611639916E+03  0.12509320205E+03 0.  0.
          5    1    3    3  502    0 -0.71432906010E+02  0.16369956675E+02 -0.77827192986E+02  0.10698214763E+03  0.41800000000E+01 0.  1.
         -5    1    3    3    0  502 -0.48655342659E+01 -0.89569723589E+02 -0.11906781166E+03  0.14913425154E+03  0.41800000000E+01 0.  1.
        -11    1    1    2    0    0  0.30597602087E+02  0.10885635388E+02  0.72083946233E+01  0.33266668970E+02  0.00000000000E+00 0.  1.
         11    1    1    2    0    0  0.45700838189E+02  0.62314131526E+02 -0.13562504637E+03  0.15609539007E+03  0.00000000000E+00 0. -1.
</event>
<event>
 7    1  0.5109948E-006  0.2742005E+03  0.7561462E-02  0.1098899E+00
          1   -1    0    0  501    0  0.00000000000E+00  0.00000000000E+00  0.43011578140E+03  0.43011578140E+03  0.00000000000E+00 0. -1.
         -1   -1    0    0    0  501 -0.00000000000E+00 -0.00000000000E+00 -0.19737243799E+03  0.19737243799E+03  0.00000000000E+00 0.  1.
         23    2    1    2    0    0  0.25737975468E+03  0.69715215656E+02  0.73382002923E+02  0.30353490007E+03  0.12507584815E+03 0.  0.
          5    1    3    3  502    0  0.68727637806E+02  0.62372959126E+02 -0.16558609462E+02  0.94369137836E+02  0.41800000000E+01 0. -1.
         -5    1    3    3    0  502  0.18865211688E+03  0.73422565297E+01  0.89940612385E+02  0.20916576223E+03  0.41800000000E+01 0. -1.
        -11    1    1    2    0    0 -0.11043209350E+03 -0.30149036589E+02  0.12191088342E+03  0.16723180074E+03  0.00000000000E+00 0. -1.
         11    1    1    2    0    0 -0.14694766118E+03 -0.39566179067E+02  0.37450457075E+02  0.15672151858E+03  0.00000000000E+00 0.  1.
</event>
<event>
 7    1  0.5109948E-006  0.9432239E+02  0.7561462E-02  0.1292710E+00
         -1   -1    0    0    0  501 -0.00000000000E+00  0.00000000000E+00  0.57399484909E+02  0.57399484909E+02  0.00000000000E+00 0.  1.
          1   -1    0    0  501    0  0.00000000000E+00 -0.00000000000E+00 -0.21695857493E+03  0.21695857493E+03  0.00000000000E+00 0. -1.
         23    2    1    2    0    0  0.15609314432E+02  0.45545121877E+02 -0.54502732229E+02  0.14469427273E+03  0.12509147020E+03 0.  0.
          5    1    3    3  502    0  0.27462188859E+02  0.83751317823E+02 -0.55891549197E+02  0.10444995321E+03  0.41800000000E+01 0.  1.
         -5    1    3    3    0  502 -0.11852874427E+02 -0.38206195946E+02  0.13888169684E+01  0.40244319518E+02  0.41800000000E+01 0.  1.
        -11    1    1    2    0    0  0.52915252237E+01 -0.37371563898E+02 -0.22128224044E+02  0.43752626513E+02  0.00000000000E+00 0.  1.
         11    1    1    2    0    0 -0.20900839655E+02 -0.81735579783E+01 -0.82928133745E+02  0.85911160595E+02  0.00000000000E+00 0. -1.
</event>
<event>
 7    1  0.5109948E-006  0.1190769E+03  0.7561462E-02  0.1244628E+00
          1   -1    0    0  501    0  0.00000000000E+00  0.00000000000E+00  0.24541315395E+02  0.24541315395E+02  0.00000000000E+00 0. -1.
         -1   -1    0    0    0  501 -0.00000000000E+00 -0.00000000000E+00 -0.94184860197E+03  0.94184860197E+03  0.00000000000E+00 0.  1.
         23    2    1    2    0    0  0.36958809960E+02  0.48400624800E+02 -0.75762842741E+03  0.76865694278E+03  0.11456041003E+03 0.  0.
          5    1    3    3  502    0  0.89399079498E+01  0.79156057367E+02 -0.35440349062E+03  0.36326974817E+03  0.41800000000E+01 0. -1.
         -5    1    3    3    0  502  0.28018902010E+02 -0.30755432567E+02 -0.40322493680E+03  0.40538719461E+03  0.41800000000E+01 0.  1.
        -11    1    1    2    0    0  0.95914799441E+01 -0.66082807618E+02 -0.88521985522E+02  0.11088316315E+03  0.00000000000E+00 0.  1.
         11    1    1    2    0    0 -0.46550289904E+02  0.17682182817E+02 -0.71156873639E+02  0.86849811430E+02  0.00000000000E+00 0. -1.
</event>
<event>
 7    1  0.5109948E-006  0.1278851E+03  0.7561462E-02  0.1230628E+00
          3   -1    0    0  501    0  0.00000000000E+00  0.00000000000E+00  0.40110095362E+02  0.40110095362E+02  0.00000000000E+00 0. -1.
         -3   -1    0    0    0  501 -0.00000000000E+00 -0.00000000000E+00 -0.42013424953E+03  0.42013424953E+03  0.00000000000E+00 0.  1.
         23    2    1    2    0    0 -0.59746042156E+02 -0.37486432150E+02 -0.22532682533E+03  0.26719530943E+03  0.12508530298E+03 0.  0.
          5    1    3    3  502    0 -0.59404781734E+02 -0.80020437117E+02 -0.17227572764E+03  0.19906932758E+03  0.41800000000E+01 0.  1.
         -5    1    3    3    0  502 -0.34126042150E+00  0.42534004967E+02 -0.53051097688E+02  0.68125981851E+02  0.41800000000E+01 0.  1.
        -11    1    1    2    0    0  0.23633420166E+02 -0.29127292524E+02 -0.69911485773E+02  0.79338222576E+02  0.00000000000E+00 0.  1.
         11    1    1    2    0    0  0.36112621989E+02  0.66613724674E+02 -0.84785843062E+02  0.11371081288E+03  0.00000000000E+00 0. -1.
</event>
<event>
 7    1  0.5109948E-006  0.1150329E+03  0.7561462E-02  0.1251524E+00
          2   -1    0    0  501    0  0.00000000000E+00  0.00000000000E+00  0.72506023883E+03  0.72506023883E+03  0.00000000000E+00 0.  1.
         -2   -1    0    0    0  501 -0.00000000000E+00 -0.00000000000E+00 -0.20818294983E+02  0.20818294983E+02  0.00000000000E+00 0. -1.
         23    2    1    2    0    0  0.36115079093E+02  0.19730666529E+02  0.27202316038E+03  0.30222142759E+03  0.12509034083E+03 0.  0.
          5    1    3    3  502    0 -0.59852180339E+01  0.66590660679E+02  0.11674192820E+03  0.13459676491E+03  0.41800000000E+01 0.  1.
         -5    1    3    3    0  502  0.42100297127E+02 -0.46859994149E+02  0.15528123219E+03  0.16762466268E+03  0.41800000000E+01 0.  1.
        -11    1    1    2    0    0 -0.33314021281E+02 -0.55140448252E+02  0.26681380340E+03  0.27448114459E+03  0.00000000000E+00 0.  1.
         11    1    1    2    0    0 -0.28010578120E+01  0.35409781723E+02  0.16540498006E+03  0.16917596163E+03  0.00000000000E+00 0. -1.
</event>
<event>
 7    1  0.5109948E-006  0.1060345E+03  0.7561462E-02  0.1268095E+00
          2   -1    0    0  501    0  0.00000000000E+00  0.00000000000E+00  0.13316015122E+03  0.13316015122E+03  0.00000000000E+00 0. -1.
         -2   -1    0    0    0  501 -0.00000000000E+00 -0.00000000000E+00 -0.99164810391E+02  0.99164810391E+02  0.00000000000E+00 0.  1.
         23    2    1    2    0    0 -0.26426185316E+02 -0.11288076579E+02  0.31257816495E+00  0.13007416559E+03  0.12685987114E+03 0.  0.
          5    1    3    3  502    0  0.16491411597E+02 -0.61366759447E+02  0.46191784158E+01  0.63848688559E+02  0.41800000000E+01 0. -1.
         -5    1    3    3    0  502 -0.42917596913E+02  0.50078682868E+02 -0.43066002509E+01  0.66225477033E+02  0.41800000000E+01 0. -1.
        -11    1    1    2    0    0 -0.16138914214E+02 -0.22686128381E+02 -0.12806946382E+02  0.30645437647E+02  0.00000000000E+00 0.  1.
         11    1    1    2    0    0  0.42565099530E+02  0.33974204961E+02  0.46489709051E+02  0.71605358377E+02  0.00000000000E+00 0. -1.
</event>
<event>
 7    1  0.5109948E-006  0.1010701E+03  0.7561462E-02  0.1278062E+00
          1   -1    0    0  501    0  0.00000000000E+00  0.00000000000E+00  0.34128279837E+03  0.34128279837E+03  0.00000000000E+00 0. -1.
         -1   -1    0    0    0  501 -0.00000000000E+00 -0.00000000000E+00 -0.45573433836E+02  0.45573433836E+02  0.00000000000E+00 0.  1.
         23    2    1    2    0    0 -0.14840812437E+02 -0.30446366788E+02  0.85553583625E+02  0.15528463421E+03  0.12508665391E+03 0.  0.
          5    1    3    3  502    0  0.23840550015E+02 -0.69073967067E+02  0.60708718713E+02  0.95092616323E+02  0.41800000000E+01 0.  1.
         -5    1    3    3    0  502 -0.38681362452E+02  0.38627600279E+02  0.24844864912E+02  0.60192017884E+02  0.41800000000E+01 0.  1.
        -11    1    1    2    0    0  0.41112226255E+02  0.21320101595E+02  0.46710880864E+02  0.65777414595E+02  0.00000000000E+00 0.  1.
         11    1    1    2    0    0 -0.26271413818E+02  0.91262651926E+01  0.16344490005E+03  0.16579418341E+03  0.00000000000E+00 0. -1.
</event>
<event>
 6    1  0.5109948E-006  0.1298884E+03  0.7561462E-02  0.1227621E+00
         -2   -1    0    0    0  501 -0.00000000000E+00  0.00000000000E+00  0.24767436654E+03  0.24767436654E+03  0.00000000000E+00 0.  1.
          2   -1    0    0  501    0  0.00000000000E+00 -0.00000000000E+00 -0.70938638239E+02  0.70938638239E+02  0.00000000000E+00 0. -1.
          5    1    1    2  502    0 -0.36874405739E+02  0.93067524559E+02  0.66101956701E+02  0.12003427430E+03  0.41800000000E+01 0. -1.
         -5    1    1    2    0  502  0.11391988162E+02 -0.58569996654E+02  0.66095033821E+02  0.89141728714E+02  0.41800000000E+01 0.  1.
        -11    1    1    2    0    0 -0.21149205703E+02  0.19260109893E+02  0.97208244194E+01  0.30211507119E+02  0.00000000000E+00 0. -1.
         11    1    1    2    0    0  0.46631623281E+02 -0.53757637799E+02  0.34817913357E+02  0.79225494647E+02  0.00000000000E+00 0.  1.
</event>
<event>
 7    1  0.5109948E-006  0.1336658E+03  0.7561462E-02  0.1222116E+00
          1   -1    0    0  501    0  0.00000000000E+00  0.00000000000E+00  0.15574280566E+03  0.15574280566E+03  0.00000000000E+00 0. -1.
         -1   -1    0    0    0  501 -0.00000000000E+00 -0.00000000000E+00 -0.15228084647E+03  0.15228084647E+03  0.00000000000E+00 0.  1.
         23    2    1    2    0    0 -0.65870834812E+02 -0.83500699600E+02 -0.21457388958E+02  0.16558561753E+03  0.12508734341E+03 0.  0.
          5    1    3    3  502    0 -0.77750375815E+02 -0.99121626224E+02  0.11954214069E+02  0.12661197952E+03  0.41800000000E+01 0. -1.
         -5    1    3    3    0  502  0.11879541003E+02  0.15620926624E+02 -0.33411603027E+02  0.38973638012E+02  0.41800000000E+01 0. -1.
        -11    1    1    2    0    0  0.52764823983E+02  0.20075334211E+02 -0.23928743198E+02  0.61316640846E+02  0.00000000000E+00 0.  1.
         11    1    1    2    0    0  0.13106010829E+02  0.63425365389E+02  0.48848091347E+02  0.81121393743E+02  0.00000000000E+00 0. -1.
</event>
<event>
 7    1  0.5109948E-006  0.1387875E+03  0.7561462E-02  0.1214970E+00
         -1   -1    0    0    0  501 -0.00000000000E+00  0.00000000000E+00  0.26539785202E+02  0.26539785202E+02  0.00000000000E+00 0.  1.
          1   -1    0    0  501    0  0.00000000000E+00 -0.00000000000E+00 -0.10664645067E+04  0.10664645067E+04  0.00000000000E+00 0. -1.
         23    2    1    2    0    0 -0.28095771402E+02  0.12065866978E+03 -0.45106583730E+03  0.48420541835E+03  0.12508641260E+03 0.  0.
          5    1    3    3  502    0 -0.55635009950E+02  0.56784696570E+02 -0.36442789501E+03  0.37302133874E+03  0.41800000000E+01 0.  1.
         -5    1    3    3    0  502  0.27539238547E+02  0.63873973212E+02 -0.86637942289E+02  0.11118407961E+03  0.41800000000E+01 0.  1.
        -11    1    1    2    0    0  0.22437909489E+02 -0.30064840613E+02 -0.50873456512E+02  0.63209674899E+02  0.00000000000E+00 0.  1.
         11    1    1    2    0    0  0.56578619134E+01 -0.90593829170E+02 -0.53798542768E+03  0.54558919865E+03  0.00000000000E+00 0. -1.
</event>
<event>
 7    1  0.5109948E-006  0.1069542E+03  0.7561462E-02  0.1266316E+00
          1   -1    0    0  501    0  0.00000000000E+00  0.00000000000E+00  0.10334846519E+03  0.10334846519E+03  0.00000000000E+00 0. -1.
         -1   -1    0    0    0  501 -0.00000000000E+00 -0.00000000000E+00 -0.20113373996E+03  0.20113373996E+03  0.00000000000E+00 0.  1.
         23    2    1    2    0    0  0.23605311926E+02 -0.71034504014E+02 -0.10651568400E+03  0.18054294576E+03  0.12508818015E+03 0.  0.
          5    1    3    3  502    0 -0.33573056470E+02 -0.27149468219E+01  0.85096010611E+01  0.34991524219E+02  0.41800000000E+01 0. -1.
         -5    1    3    3    0  502  0.57178368396E+02 -0.68319557192E+02 -0.11502528507E+03  0.14555142154E+03  0.41800000000E+01 0. -1.
        -11    1    1    2    0    0 -0.39836411356E+01  0.71046648839E+02 -0.32537256224E+02  0.78244288932E+02  0.00000000000E+00 0.  1.
         11    1    1    2    0    0 -0.19621670791E+02 -0.12144825130E-01  0.41267665460E+02  0.45694970452E+02  0.00000000000E+00 0. -1.
</event>
<event>
 7    1  0.5109948E-006  0.1070776E+03  0.7561462E-02  0.1266079E+00
         -2   -1    0    0    0  501 -0.00000000000E+00  0.00000000000E+00  0.16531333015E+02  0.16531333015E+02  0.00000000000E+00 0.  1.
          2   -1    0    0  501    0  0.00000000000E+00 -0.00000000000E+00 -0.76099720710E+03  0.76099720710E+03  0.00000000000E+00 0. -1.
         23    2    1    2    0    0  0.27322891145E+02 -0.80426244689E+01 -0.37985418115E+03  0.40093553153E+03  0.12509547280E+03 0.  0.
          5    1    3    3  502    0  0.73221985747E+02  0.16125371842E+02 -0.19725379009E+03  0.21106401143E+03  0.41800000000E+01 0.  1.
         -5    1    3    3    0  502 -0.45899094602E+02 -0.24167996311E+02 -0.18260039106E+03  0.18987152010E+03  0.41800000000E+01 0.  1.
        -11    1    1    2    0    0  0.26714470582E+02  0.17811407851E+02 -0.71450742631E+02  0.78333376097E+02  0.00000000000E+00 0.  1.
         11    1    1    2    0    0 -0.54037361727E+02 -0.97687833825E+01 -0.29316095030E+03  0.29825963249E+03  0.00000000000E+00 0. -1.
</event>
<event>
 7    1  0.5109948E-006  0.1076105E+03  0.7561462E-02  0.1265060E+00
          1   -1    0    0  501    0  0.00000000000E+00  0.00000000000E+00  0.43397193194E+03  0.43397193194E+03  0.00000000000E+00 0. -1.
         -1   -1    0    0    0  501 -0.00000000000E+00 -0.00000000000E+00 -0.36542419314E+02  0.36542419314E+02  0.00000000000E+00 0.  1.
         23    2    1    2    0    0 -0.65426544939E+01 -0.52414270034E+02  0.15457928219E+03  0.20574526344E+03  0.12508515866E+03 0.  0.
          5    1    3    3  502    0 -0.57780643162E+02 -0.28990226937E+02  0.35323295160E+02  0.73785117490E+02  0.41800000000E+01 0.  1.
         -5    1    3    3    0  502  0.51237988668E+02 -0.23424043097E+02  0.11925598703E+03  0.13196014595E+03  0.41800000000E+01 0.  1.
        -11    1    1    2    0    0 -0.30931160980E+02  0.18177160623E+01  0.14600074877E+03  0.14925233483E+03  0.00000000000E+00 0. -1.
         11    1    1    2    0    0  0.37473815474E+02  0.50596553972E+02  0.96849481669E+02  0.11551675298E+03  0.00000000000E+00 0.  1.
</event>
<event>
 7    1  0.5109948E-006  0.1325131E+03  0.7561462E-02  0.1223774E+00
         -1   -1    0    0    0  501 -0.00000000000E+00  0.00000000000E+00  0.31731160392E+02  0.31731160392E+02  0.00000000000E+00 0.  1.
          1   -1    0    0  501    0  0.00000000000E+00 -0.00000000000E+00 -0.62298967774E+03  0.62298967774E+03  0.00000000000E+00 0. -1.
         23    2    1    2    0    0  0.13456966311E+02  0.78692936300E+02 -0.41372644942E+03  0.43953511113E+03  0.12509144975E+03 0.  0.
          5    1    3    3  502    0  0.33837226777E+02  0.10727446216E+03 -0.32927154638E+03  0.34797987270E+03  0.41800000000E+01 0.  1.
         -5    1    3    3    0  502 -0.20380260465E+02 -0.28581525858E+02 -0.84454903035E+02  0.91555238428E+02  0.41800000000E+01 0.  1.
        -11    1    1    2    0    0 -0.19551024144E+01  0.18821162572E+02 -0.11072203163E+02  0.21923783180E+02  0.00000000000E+00 0.  1.
         11    1    1    2    0    0 -0.11501863897E+02 -0.97514098873E+02 -0.16645986476E+03  0.19326194382E+03  0.00000000000E+00 0. -1.
</event>
<event>
 7    1  0.5109948E-006  0.1053987E+03  0.7561462E-02  0.1269336E+00
         -2   -1    0    0    0  501 -0.00000000000E+00  0.00000000000E+00  0.93492875047E+02  0.93492875047E+02  0.00000000000E+00 0.  1.
          2   -1    0    0  501    0  0.00000000000E+00 -0.00000000000E+00 -0.14478921500E+03  0.14478921500E+03  0.00000000000E+00 0. -1.
         23    2    1    2    0    0  0.36599976982E+02 -0.15099843639E+02 -0.17722842007E+02  0.13236315672E+03  0.12505335876E+03 0.  0.
          5    1    3    3  502    0  0.79181197031E+02 -0.27912965226E+02  0.66269240136E+00  0.84063708889E+02  0.41800000000E+01 0. -1.
         -5    1    3    3    0  502 -0.42581220049E+02  0.12813121587E+02 -0.18385534408E+02  0.48299447835E+02  0.41800000000E+01 0. -1.
        -11    1    1    2    0    0  0.73037659882E+01  0.33633637087E+02  0.15293032097E+02  0.37662227391E+02  0.00000000000E+00 0.  1.
         11    1    1    2    0    0 -0.43903742970E+02 -0.18533793448E+02 -0.48866530048E+02  0.68256705936E+02  0.00000000000E+00 0. -1.
</event>
<event>
 7    1  0.5109948E-006  0.9354034E+02  0.7561462E-02  0.1294498E+00
          1   -1    0    0  501    0  0.00000000000E+00  0.00000000000E+00  0.14561770826E+02  0.14561770826E+02  0.00000000000E+00 0.  1.
         -1   -1    0    0    0  501 -0.00000000000E+00 -0.00000000000E+00 -0.16725895484E+04  0.16725895484E+04  0.00000000000E+00 0. -1.
         23    2    1    2    0    0 -0.64005537351E+01 -0.11780819914E+02 -0.14840886699E+04  0.14894120609E+04  0.12509737100E+03 0.  0.
          5    1    3    3  502    0  0.54322685127E+02  0.12297304901E+02 -0.49054636752E+03  0.49371589899E+03  0.41800000000E+01 0. -1.
         -5    1    3    3    0  502 -0.60723238862E+02 -0.24078124815E+02 -0.99354230241E+03  0.99569616194E+03  0.41800000000E+01 0. -1.
        -11    1    1    2    0    0 -0.28328641592E+02 -0.20178413497E+01 -0.15152322443E+03  0.15416183432E+03  0.00000000000E+00 0. -1.
         11    1    1    2    0    0  0.34729195327E+02  0.13798661264E+02 -0.22415883228E+02  0.43577423990E+02  0.00000000000E+00 0.  1.
</event>
<event>
 7    1  0.5109948E-006  0.9797902E+02  0.7561462E-02  0.1284604E+00
         -1   -1    0    0    0  501 -0.00000000000E+00  0.00000000000E+00  0.47219481645E+02  0.47219481645E+02  0.00000000000E+00 0.  1.
          1   -1    0    0  501    0  0.00000000000E+00 -0.00000000000E+00 -0.33398837754E+03  0.33398837754E+03  0.00000000000E+00 0. -1.
         23    2    1    2    0    0 -0.34512680257E+02  0.34229537127E+02 -0.99380591083E+02  0.16699626282E+03  0.12509381919E+03 0.  0.
          5    1    3    3  502    0 -0.57938802202E+02  0.42284517552E+02 -0.80801097438E+01  0.72302460530E+02  0.41800000000E+01 0.  1.
         -5    1    3    3    0  502  0.23426121944E+02 -0.80549804249E+01 -0.91300481339E+02  0.94693802288E+02  0.41800000000E+01 0.  1.
        -11    1    1    2    0    0  0.96432005844E+01 -0.61399784583E+02 -0.14672576018E+03  0.15934670867E+03  0.00000000000E+00 0. -1.
         11    1    1    2    0    0  0.24869479673E+02  0.27170247456E+02 -0.40662544639E+02  0.54864887702E+02  0.00000000000E+00 0.  1.
</event>
<event>
 6    1  0.5109948E-006  0.1564476E+03  0.7561462E-02  0.1192767E+00
         -1   -1    0    0    0  501 -0.00000000000E+00  0.00000000000E+00  0.64072674883E+02  0.64072674883E+02  0.00000000000E+00 0.  1.
          1   -1    0    0  501    0  0.00000000000E+00 -0.00000000000E+00 -0.54568622060E+03  0.54568622060E+03  0.00000000000E+00 0. -1.
          5    1    1    2  502    0  0.40621890360E+02 -0.44012972491E+02 -0.44244360928E+02  0.74580933206E+02  0.41800000000E+01 0. -1.
         -5    1    1    2    0  502 -0.11864589972E+03  0.69627328765E+02 -0.84626846150E+02  0.16156729224E+03  0.41800000000E+01 0.  1.
        -11    1    1    2    0    0  0.27476785133E+02 -0.51547300613E+02 -0.24432028753E+03  0.25120609232E+03  0.00000000000E+00 0. -1.
         11    1    1    2    0    0  0.50547224228E+02  0.25932944339E+02 -0.10842205111E+03  0.12240457771E+03  0.00000000000E+00 0.  1.
</event>
<event>
 7    1  0.5109948E-006  0.8189781E+02  0.7561462E-02  0.1323750E+00
          2   -1    0    0  501    0  0.00000000000E+00  0.00000000000E+00  0.13486118722E+03  0.13486118722E+03  0.00000000000E+00 0. -1.
         -2   -1    0    0    0  501 -0.00000000000E+00 -0.00000000000E+00 -0.11870405861E+03  0.11870405861E+03  0.00000000000E+00 0.  1.
         23    2    1    2    0    0 -0.22871948986E+01 -0.38127830417E+02 -0.42687154364E+02  0.13757217256E+03  0.12507976176E+03 0.  0.
          5    1    3    3  502    0 -0.46124320072E+02 -0.31182484758E+02  0.21154540988E+02  0.59705839432E+02  0.41800000000E+01 0.  1.
         -5    1    3    3    0  502  0.43837125174E+02 -0.69453456592E+01 -0.63841695351E+02  0.77866333130E+02  0.41800000000E+01 0.  1.
        -11    1    1    2    0    0  0.26407085420E+02  0.21965599254E+02 -0.14368956932E+02  0.37232897205E+02  0.00000000000E+00 0.  1.
         11    1    1    2    0    0 -0.24119890522E+02  0.16162231164E+02  0.73213239914E+02  0.78760176064E+02  0.00000000000E+00 0. -1.
</event>
<event>
 7    1  0.5109948E-006  0.1355912E+03  0.7561462E-02  0.1219388E+00
         -1   -1    0    0    0  501 -0.00000000000E+00  0.00000000000E+00  0.24655535724E+03  0.24655535724E+03  0.00000000000E+00 0.  1.
          1   -1    0    0  501    0  0.00000000000E+00 -0.00000000000E+00 -0.10651708427E+03  0.10651708427E+03  0.00000000000E+00 0. -1.
         23    2    1    2    0    0 -0.57734673003E+02  0.76521261012E+02  0.15320142060E+03  0.21976643119E+03  0.12505124210E+03 0.  0.
          5    1    3    3  502    0 -0.75684229122E+02  0.96403062794E+02  0.93546046867E+02  0.15424003481E+03  0.41800000000E+01 0. -1.
         -5    1    3    3    0  502  0.17949556119E+02 -0.19881801782E+02  0.59655373736E+02  0.65526396380E+02  0.41800000000E+01 0. -1.
        -11    1    1    2    0    0  0.45263648821E+02 -0.13961218971E+01  0.20907628070E+02  0.49878612375E+02  0.00000000000E+00 0.  1.
         11    1    1    2    0    0  0.12471024182E+02 -0.75125139115E+02 -0.34070775695E+02  0.83427397944E+02  0.00000000000E+00 0. -1.
</event>
<event>
 7    1  0.5109948E-006  0.6384528E+02  0.7561462E-02  0.1382368E+00
         -1   -1    0    0    0  501 -0.00000000000E+00  0.00000000000E+00  0.14195703637E+04  0.14195703637E+04  0.00000000000E+00 0.  1.
          1   -1    0    0  501    0  0.00000000000E+00 -0.00000000000E+00 -0.20801655042E+02  0.20801655042E+02  0.00000000000E+00 0. -1.
         23    2    1    2    0    0 -0.84292656219E+01  0.14742883848E+02  0.12856739325E+04  0.12910520236E+04  0.11648803245E+03 0.  0.
          5    1    3    3  502    0 -0.12908828905E+02 -0.14165963953E+02  0.35743581314E+02  0.40772397570E+02  0.41800000000E+01 0. -1.
         -5    1    3    3    0  502  0.44795632835E+01  0.28908847801E+02  0.12499303512E+04  0.12502796260E+04  0.41800000000E+01 0.  1.
        -11    1    1    2    0    0  0.10302949873E+02  0.31038561507E+02  0.94274018532E+02  0.99785438050E+02  0.00000000000E+00 0.  1.
         11    1    1    2    0    0 -0.18736842513E+01 -0.45781445355E+02  0.18820757616E+02  0.49534557116E+02  0.00000000000E+00 0. -1.
</event>
<event>
 7    1  0.5109948E-006  0.1040513E+03  0.7561462E-02  0.1272000E+00
          2   -1    0    0  501    0  0.00000000000E+00  0.00000000000E+00  0.35120103485E+02  0.35120103485E+02  0.00000000000E+00 0. -1.
         -2   -1    0    0    0  501 -0.00000000000E+00 -0.00000000000E+00 -0.39415490004E+03  0.39415490004E+03  0.00000000000E+00 0.  1.
         23    2    1    2    0    0 -0.93759615243E+01  0.35187528480E+02 -0.25554710559E+03  0.28684148670E+03  0.12509054520E+03 0.  0.
          5    1    3    3  502    0  0.30067433436E+02 -0.26627584179E+02 -0.31952036583E+02  0.51492560962E+02  0.41800000000E+01 0.  1.
         -5    1    3    3    0  502 -0.39443394961E+02  0.61815112659E+02 -0.22359506901E+03  0.23534892573E+03  0.41800000000E+01 0.  1.
        -11    1    1    2    0    0  0.41631891800E+02  0.58913413121E+01 -0.27551301082E+02  0.50269240183E+02  0.00000000000E+00 0.  1.
         11    1    1    2    0    0 -0.32255930276E+02 -0.41078869792E+02 -0.75936389878E+02  0.92164276642E+02  0.00000000000E+00 0. -1.
</event>
<event>
 7    1  0.5109948E-006  0.7882593E+02  0.7561462E-02  0.1332417E+00
          1   -1    0    0  501    0  0.00000000000E+00  0.00000000000E+00  0.16867602101E+03  0.16867602101E+03  0.00000000000E+00 0. -1.
         -1   -1    0    0    0  501 -0.00000000000E+00 -0.00000000000E+00 -0.91467289294E+02  0.91467289294E+02  0.00000000000E+00 0.  1.
         23    2    1    2    0    0  0.12032768853E+01 -0.39989186450E+02 -0.47690450082E+01  0.13143001226E+03  0.12510204405E+03 0.  0.
          5    1    3    3  502    0 -0.24805021773E+00  0.12246793678E+02 -0.56390785028E+02  0.57857052469E+02  0.41800000000E+01 0. -1.
         -5    1    3    3    0  502  0.14513271030E+01 -0.52235980128E+02  0.51621740020E+02  0.73572959795E+02  0.41800000000E+01 0. -1.
        -11    1    1    2    0    0  0.40701888494E+02  0.25075092067E+02  0.18626999505E+02  0.51306618283E+02  0.00000000000E+00 0.  1.
         11    1    1    2    0    0 -0.41905165379E+02  0.14914094383E+02  0.63350777214E+02  0.77406679753E+02  0.00000000000E+00 0. -1.
</event>
<event>
 7    1  0.5109948E-006  0.6743484E+02  0.7561462E-02  0.1369040E+00
         -1   -1    0    0    0  501 -0.00000000000E+00  0.00000000000E+00  0.54634539780E+02  0.54634539780E+02  0.00000000000E+00 0.  1.
          1   -1    0    0  501    0  0.00000000000E+00 -0.00000000000E+00 -0.28966178543E+03  0.28966178543E+03  0.00000000000E+00 0. -1.
         23    2    1    2    0    0  0.18363263490E+02  0.22742734760E+02 -0.11583029565E+03  0.17297375898E+03  0.12509525360E+03 0.  0.
          5    1    3    3  502    0  0.47865688941E+02 -0.78479799664E+01  0.88367863807E+00  0.48692589326E+02  0.41800000000E+01 0.  1.
         -5    1    3    3    0  502 -0.29502425451E+02  0.30590714727E+02 -0.11671397429E+03  0.12428116965E+03  0.41800000000E+01 0.  1.
        -11    1    1    2    0    0 -0.14981586264E+02  0.47996138874E+01  0.22210878162E+02  0.27217775978E+02  0.00000000000E+00 0.  1.
         11    1    1    2    0    0 -0.33816772263E+01 -0.27542348648E+02 -0.14140782816E+03  0.14410479025E+03  0.00000000000E+00 0. -1.
</event>
<event>
 7    1  0.5109948E-006  0.1199838E+03  0.7561462E-02  0.1243124E+00
         -1   -1    0    0    0  501 -0.00000000000E+00  0.00000000000E+00  0.36031267967E+02  0.36031267967E+02  0.00000000000E+00 0.  1.
          1   -1    0    0  501    0  0.00000000000E+00 -0.00000000000E+00 -0.63604126322E+03  0.63604126322E+03  0.00000000000E+00 0. -1.
         23    2    1    2    0    0 -0.49766297879E+02 -0.84774395652E+02 -0.24151013036E+03  0.28920297529E+03  0.12509130781E+03 0.  0.
          5    1    3    3  502    0 -0.53269522320E+02 -0.34259049962E+02 -0.22794097353E+03  0.23661336464E+03  0.41800000000E+01 0.  1.
         -5    1    3    3    0  502  0.35032244420E+01 -0.50515345690E+02 -0.13569156832E+02  0.52589610655E+02  0.41800000000E+01 0.  1.
        -11    1    1    2    0    0  0.27609009815E+02 -0.92256945987E+01 -0.36430562521E+02  0.46632142878E+02  0.00000000000E+00 0.  1.
         11    1    1    2    0    0  0.22157288063E+02  0.94000090251E+02 -0.32206930237E+03  0.33623741302E+03  0.00000000000E+00 0. -1.
</event>
<event>
 7    1  0.5109948E-006  0.8375211E+02  0.7561462E-02  0.1318729E+00
          3   -1    0    0  501    0  0.00000000000E+00  0.00000000000E+00  0.71811876318E+02  0.71811876318E+02  0.00000000000E+00 0. -1.
         -3   -1    0    0    0  501 -0.00000000000E+00 -0.00000000000E+00 -0.26467375341E+03  0.26467375341E+03  0.00000000000E+00 0.  1.
         23    2    1    2    0    0 -0.26365114453E+02 -0.39567371334E+02 -0.19141659184E+03  0.23355740057E+03  0.12509217239E+03 0.  0.
          5    1    3    3  502    0  0.40202037419E+02 -0.33166021811E+02 -0.13893094232E+03  0.14844348402E+03  0.41800000000E+01 0.  1.
         -5    1    3    3    0  502 -0.66567151871E+02 -0.64013495232E+01 -0.52485649519E+02  0.85113916544E+02  0.41800000000E+01 0.  1.
        -11    1    1    2    0    0  0.29069655896E+01  0.10324718276E+02  0.43268446546E+02  0.44578119329E+02  0.00000000000E+00 0. -1.
         11    1    1    2    0    0  0.23458148863E+02  0.29242653058E+02 -0.44713731801E+02  0.58350109833E+02  0.00000000000E+00 0.  1.
</event>
<event>
 7    1  0.5109948E-006  0.1457043E+03  0.7561462E-02  0.1205853E+00
         -1   -1    0    0    0  501 -0.00000000000E+00  0.00000000000E+00  0.63447042559E+02  0.63447042559E+02  0.00000000000E+00 0.  1.
          1   -1    0    0  501    0  0.00000000000E+00 -0.00000000000E+00 -0.40924297821E+03  0.40924297821E+03  0.00000000000E+00 0. -1.
         23    2    1    2    0    0  0.11597114649E+03 -0.20678678329E+02 -0.16529628922E+03  0.23843017858E+03  0.12509665173E+03 0.  0.
          5    1    3    3  502    0 -0.76660151348E+01 -0.18113886176E+02 -0.92944741639E+02  0.95095100078E+02  0.41800000000E+01 0. -1.
         -5    1    3    3    0  502  0.12363716162E+03 -0.25647921536E+01 -0.72351547578E+02  0.14333507850E+03  0.41800000000E+01 0. -1.
        -11    1    1    2    0    0 -0.59208947279E+01  0.35973689803E+02 -0.30143103528E+02  0.47305074175E+02  0.00000000000E+00 0.  1.
         11    1    1    2    0    0 -0.11005025176E+03 -0.15295011474E+02 -0.15035654291E+03  0.18695476802E+03  0.00000000000E+00 0. -1.
</event>
<event>
 7    1  0.5109948E-006  0.1000183E+03  0.7561462E-02  0.1280257E+00
          2   -1    0    0  501    0  0.00000000000E+00  0.00000000000E+00  0.19470395243E+03  0.19470395243E+03  0.00000000000E+00 0. -1.
         -2   -1    0    0    0  501 -0.00000000000E+00 -0.00000000000E+00 -0.69925375850E+02  0.69925375850E+02  0.00000000000E+00 0.  1.
         23    2    1    2    0    0 -0.20650918453E+02 -0.32828429870E+02  0.44992502112E+02  0.13847242060E+03  0.12508445060E+03 0.  0.
          5    1    3    3  502    0 -0.19129381823E+02 -0.75942223828E+02  0.52648272705E+02  0.94458814452E+02  0.41800000000E+01 0.  1.
         -5    1    3    3    0  502 -0.15215366292E+01  0.43113793958E+02 -0.76557705933E+01  0.44013606152E+02  0.41800000000E+01 0.  1.
        -11    1    1    2    0    0  0.44738794706E+02  0.11740796276E+02  0.81915300419E+02  0.94071900649E+02  0.00000000000E+00 0. -1.
         11    1    1    2    0    0 -0.24087876253E+02  0.21087633594E+02 -0.21292259477E+01  0.32085007030E+02  0.00000000000E+00 0.  1.
</event>
<event>
 7    1  0.5109948E-006  0.9875722E+02  0.7561462E-02  0.1282931E+00
          2   -1    0    0  501    0  0.00000000000E+00  0.00000000000E+00  0.47092496181E+03  0.47092496181E+03  0.00000000000E+00 0. -1.
         -2   -1    0    0    0  501 -0.00000000000E+00 -0.00000000000E+00 -0.28641488472E+02  0.28641488472E+02  0.00000000000E+00 0.  1.
         23    2    1    2    0    0 -0.18082702429E+02  0.24644707501E+02  0.28150537853E+03  0.30955846526E+03  0.12508724770E+03 0.  0.
          5    1    3    3  502    0 -0.29470004805E+02  0.55568058290E+02  0.65101027212E+02  0.90619569793E+02  0.41800000000E+01 0. -1.
         -5    1    3    3    0  502  0.11387302377E+02 -0.30923350790E+02  0.21640435132E+03  0.21893889547E+03  0.41800000000E+01 0. -1.
        -11    1    1    2    0    0  0.57737021209E+02 -0.21001171275E+02  0.97477512795E+02  0.11522360137E+03  0.00000000000E+00 0.  1.
         11    1    1    2    0    0 -0.39654318780E+02 -0.36435362255E+01  0.63300582009E+02  0.74784383643E+02  0.00000000000E+00 0. -1.
</event>
<event>
 7    1  0.5109948E-006  0.1297910E+03  0.7561462E-02  0.1227766E+00
         -2   -1    0    0    0  501 -0.00000000000E+00  0.00000000000E+00  0.73704273155E+02  0.73704273155E+02  0.00000000000E+00 0.  1.
          2   -1    0    0  501    0  0.00000000000E+00 -0.00000000000E+00 -0.31847968794E+03  0.31847968794E+03  0.00000000000E+00 0. -1.
         23    2    1    2    0    0 -0.92596636991E+02  0.17757549609E+02 -0.65204124258E+02  0.16967545090E+03  0.12509481631E+03 0.  0.
          5    1    3    3  502    0 -0.10542249737E+03 -0.33685409843E+01 -0.86742504797E+02  0.13662717357E+03  0.41800000000E+01 0. -1.
         -5    1    3    3    0  502  0.12825860374E+02  0.21126090593E+02  0.21538380539E+02  0.33048277327E+02  0.41800000000E+01 0. -1.
        -11    1    1    2    0    0  0.10388987544E+03  0.45119721976E+01 -0.12574363437E+03  0.16317146103E+03  0.00000000000E+00 0.  1.
         11    1    1    2    0    0 -0.11293238446E+02 -0.22269521806E+02 -0.53827656154E+02  0.59337049161E+02  0.00000000000E+00 0. -1.
</event>
<event>
 7    1  0.5109948E-006  0.9835778E+02  0.7561462E-02  0.1283788E+00
          2   -1    0    0  501    0  0.00000000000E+00  0.00000000000E+00  0.37304005023E+03  0.37304005023E+03  0.00000000000E+00 0. -1.
         -2   -1    0    0    0  501 -0.00000000000E+00 -0.00000000000E+00 -0.50979740694E+02  0.50979740694E+02  0.00000000000E+00 0.  1.
         23    2    1    2    0    0 -0.76198956303E+02 -0.16719182578E+02  0.13669713570E+03  0.20104436003E+03  0.12508763242E+03 0.  0.
          5    1    3    3  502    0 -0.58718130396E+02 -0.11532232253E+02 -0.30379969007E+01  0.60062576062E+02  0.41800000000E+01 0. -1.
         -5    1    3    3    0  502 -0.17480825906E+02 -0.51869503246E+01  0.13973513260E+03  0.14098178397E+03  0.41800000000E+01 0. -1.
        -11    1    1    2    0    0  0.53854818730E+02 -0.33245252257E+02  0.64847948987E+02  0.90613711909E+02  0.00000000000E+00 0.  1.
         11    1    1    2    0    0  0.22344137573E+02  0.49964434835E+02  0.12051522485E+03  0.13236171899E+03  0.00000000000E+00 0. -1.
</event>
<event>
 7    1  0.5109948E-006  0.1750158E+03  0.7561462E-02  0.1172716E+00
          2   -1    0    0  501    0  0.00000000000E+00  0.00000000000E+00  0.15104532640E+03  0.15104532640E+03  0.00000000000E+00 0.  1.
         -2   -1    0    0    0  501 -0.00000000000E+00 -0.00000000000E+00 -0.21417822769E+03  0.21417822769E+03  0.00000000000E+00 0. -1.
         23    2    1    2    0    0  0.11258769426E+03 -0.83021367157E+02 -0.64688931132E+02  0.19849928164E+03  0.12509504666E+03 0.  0.
          5    1    3    3  502    0  0.13686097916E+03 -0.52562457353E+02 -0.39375997336E+02  0.15186072931E+03  0.41800000000E+01 0.  1.
         -5    1    3    3    0  502 -0.24273284903E+02 -0.30458909804E+02 -0.25312933796E+02  0.46638552334E+02  0.41800000000E+01 0.  1.
        -11    1    1    2    0    0 -0.37507296578E+02 -0.15278848190E+02  0.12918493521E+02  0.42510327844E+02  0.00000000000E+00 0.  1.
         11    1    1    2    0    0 -0.75080397683E+02  0.98300215347E+02 -0.11362463684E+02  0.12421394461E+03  0.00000000000E+00 0. -1.
</event>
<event>
 7    1  0.5109948E-006  0.1470154E+03  0.7561462E-02  0.1204189E+00
         -2   -1    0    0    0  501 -0.00000000000E+00  0.00000000000E+00  0.11491619118E+03  0.11491619118E+03  0.00000000000E+00 0.  1.
          2   -1    0    0  501    0  0.00000000000E+00 -0.00000000000E+00 -0.30027015326E+03  0.30027015326E+03  0.00000000000E+00 0. -1.
         23    2    1    2    0    0 -0.36809043303E+01 -0.12606815823E+03 -0.58832983304E+01  0.17773505299E+03  0.12509359010E+03 0.  0.
          5    1    3    3  502    0 -0.24447792673E+02 -0.14004005654E+03  0.17419870452E+02  0.14328236559E+03  0.41800000000E+01 0. -1.
         -5    1    3    3    0  502  0.20766888342E+02  0.13971898307E+02 -0.23303168783E+02  0.34452687399E+02  0.41800000000E+01 0. -1.
        -11    1    1    2    0    0  0.31249013767E+01  0.13168269044E+02  0.10045176895E+02  0.16854491896E+02  0.00000000000E+00 0.  1.
         11    1    1    2    0    0  0.55600295357E+00  0.11289988919E+03 -0.18951584065E+03  0.22059679955E+03  0.00000000000E+00 0. -1.
</event>
<event>
 7    1  0.5109948E-006  0.1418641E+03  0.7561462E-02  0.1210843E+00
          2   -1    0    0  501    0  0.00000000000E+00  0.00000000000E+00  0.33563017508E+03  0.33563017508E+03  0.00000000000E+00 0. -1.
         -2   -1    0    0    0  501 -0.00000000000E+00 -0.00000000000E+00 -0.79932477356E+02  0.79932477356E+02  0.00000000000E+00 0.  1.
         23    2    1    2    0    0 -0.93453127242E+02 -0.57158445418E+02  0.69086670587E+02  0.18007438424E+03  0.12511291274E+03 0.  0.
          5    1    3    3  502    0  0.10126702650E+02  0.11438857719E+02  0.52293714107E+02  0.54639752082E+02  0.41800000000E+01 0. -1.
         -5    1    3    3    0  502 -0.10357982989E+03 -0.68597303137E+02  0.16792956480E+02  0.12543463216E+03  0.41800000000E+01 0. -1.
        -11    1    1    2    0    0  0.28511895828E+02  0.71589659831E+02  0.97007361186E+02  0.12388880386E+03  0.00000000000E+00 0.  1.
         11    1    1    2    0    0  0.64941231414E+02 -0.14431214413E+02  0.89603665954E+02  0.11159946433E+03  0.00000000000E+00 0. -1.
</event>
<event>
 7    1  0.5109948E-006  0.2977172E+03  0.7561462E-02  0.1086387E+00
          2   -1    0    0  501    0  0.00000000000E+00  0.00000000000E+00  0.52407302948E+03  0.52407302948E+03  0.00000000000E+00 0. -1.
         -2   -1    0    0    0  501 -0.00000000000E+00 -0.00000000000E+00 -0.23714196257E+03  0.23714196257E+03  0.00000000000E+00 0.  1.
         23    2    1    2    0    0 -0.28388240699E+03 -0.44868617830E+02 -0.41132179845E+02  0.31613623526E+03  0.12509136325E+03 0.  0.
          5    1    3    3  502    0 -0.22747675553E+03 -0.81204600248E+01 -0.76252443422E+02  0.24009065727E+03  0.41800000000E+01 0. -1.
         -5    1    3    3    0  502 -0.56405651460E+02 -0.36748157805E+02  0.35120263578E+02  0.76045577994E+02  0.41800000000E+01 0. -1.
        -11    1    1    2    0    0  0.17074997161E+03 -0.16628665325E+02  0.19947294163E+03  0.26309982850E+03  0.00000000000E+00 0. -1.
         11    1    1    2    0    0  0.11313243538E+03  0.61497283155E+02  0.12859030512E+03  0.18197892829E+03  0.00000000000E+00 0.  1.
</event>
<event>
 7    1  0.5109948E-006  0.9235714E+02  0.7561462E-02  0.1297242E+00
         -1   -1    0    0    0  501 -0.00000000000E+00  0.00000000000E+00  0.82489167568E+03  0.82489167568E+03  0.00000000000E+00 0.  1.
          1   -1    0    0  501    0  0.00000000000E+00 -0.00000000000E+00 -0.13867486644E+02  0.13867486644E+02  0.00000000000E+00 0. -1.
         23    2    1    2    0    0 -0.44749342232E+01  0.93636626517E+00  0.55374089876E+03  0.56771244714E+03  0.12509011894E+03 0.  0.
          5    1    3    3  502    0 -0.24258541460E+02 -0.43933881212E+02  0.10688809669E+03  0.11815752353E+03  0.41800000000E+01 0. -1.
         -5    1    3    3    0  502  0.19783607237E+02  0.44870247477E+02  0.44685280207E+03  0.44955492361E+03  0.41800000000E+01 0. -1.
        -11    1    1    2    0    0  0.20029616305E+02 -0.39097167301E+02  0.14037157173E+03  0.14708484684E+03  0.00000000000E+00 0.  1.
         11    1    1    2    0    0 -0.15554682082E+02  0.38160801036E+02  0.11691171855E+03  0.12396186835E+03  0.00000000000E+00 0. -1.
</event>
<event>
 7    1  0.5109948E-006  0.1570346E+03  0.7561462E-02  0.1192086E+00
         -1   -1    0    0    0  501 -0.00000000000E+00  0.00000000000E+00  0.36506667821E+03  0.36506667821E+03  0.00000000000E+00 0.  1.
          1   -1    0    0  501    0  0.00000000000E+00 -0.00000000000E+00 -0.14099340460E+03  0.14099340460E+03  0.00000000000E+00 0. -1.
         23    2    1    2    0    0 -0.12127512473E+03  0.31529923720E+02  0.28656343126E+03  0.33685185807E+03  0.12509509256E+03 0.  0.
          5    1    3    3  502    0 -0.70753978159E+02 -0.42515937935E+02  0.17610907464E+03  0.19453947922E+03  0.41800000000E+01 0.  1.
         -5    1    3    3    0  502 -0.50521146568E+02  0.74045861655E+02  0.11045435662E+03  0.14231237886E+03  0.41800000000E+01 0.  1.
        -11    1    1    2    0    0  0.64643317889E+02 -0.50421016020E+02 -0.71564070232E+02  0.10882303778E+03  0.00000000000E+00 0. -1.
         11    1    1    2    0    0  0.56631806838E+02  0.18891092300E+02  0.90739125751E+01  0.60385186954E+02  0.00000000000E+00 0.  1.
</event>
<event>
 7    1  0.5109948E-006  0.1138553E+03  0.7561462E-02  0.1253593E+00
          1   -1    0    0  501    0  0.00000000000E+00  0.00000000000E+00  0.65394143374E+03  0.65394143374E+03  0.00000000000E+00 0. -1.
         -1   -1    0    0    0  501 -0.00000000000E+00 -0.00000000000E+00 -0.28671825753E+02  0.28671825753E+02  0.00000000000E+00 0.  1.
         23    2    1    2    0    0 -0.41983290711E+02 -0.12066406224E+01  0.16331094618E+03  0.20995746647E+03  0.12509044689E+03 0.  0.
          5    1    3    3  502    0 -0.77820329686E+02  0.29063110845E+02  0.11976932556E+03  0.14581780368E+03  0.41800000000E+01 0.  1.
         -5    1    3    3    0  502  0.35837038975E+02 -0.30269751467E+02  0.43541620624E+02  0.64139662791E+02  0.41800000000E+01 0.  1.
        -11    1    1    2    0    0  0.26504698585E+02 -0.43049459773E+02  0.29222776192E+03  0.29656840673E+03  0.00000000000E+00 0. -1.
         11    1    1    2    0    0  0.15478592125E+02  0.44256100395E+02  0.16973089988E+03  0.17608738629E+03  0.00000000000E+00 0.  1.
</event>
<event>
 7    1  0.5109948E-006  0.2073418E+03  0.7561462E-02  0.1143688E+00
         -1   -1    0    0    0  501 -0.00000000000E+00  0.00000000000E+00  0.40944392060E+03  0.40944392060E+03  0.00000000000E+00 0.  1.
          1   -1    0    0  501    0  0.00000000000E+00 -0.00000000000E+00 -0.15962058913E+03  0.15962058913E+03  0.00000000000E+00 0. -1.
         23    2    1    2    0    0 -0.18069351823E+03  0.93163919468E+01  0.29107731004E+03  0.36482961416E+03  0.12505080671E+03 0.  0.
          5    1    3    3  502    0  0.17626610734E+02  0.65540930025E+01  0.12999532597E+02  0.23240348294E+02  0.41800000000E+01 0.  1.
         -5    1    3    3    0  502 -0.19832012896E+03  0.27622989444E+01  0.27807777744E+03  0.34158926586E+03  0.41800000000E+01 0.  1.
        -11    1    1    2    0    0  0.34585899576E+02 -0.34411253361E+02  0.47365602916E+01  0.49017892761E+02  0.00000000000E+00 0.  1.
         11    1    1    2    0    0  0.14610761865E+03  0.25094861414E+02 -0.45990538864E+02  0.15521700281E+03  0.00000000000E+00 0. -1.
</event>
<event>
 7    1  0.5109948E-006  0.1779399E+03  0.7561462E-02  0.1169812E+00
         -1   -1    0    0    0  501 -0.00000000000E+00  0.00000000000E+00  0.66356057382E+02  0.66356057382E+02  0.00000000000E+00 0.  1.
          1   -1    0    0  501    0  0.00000000000E+00 -0.00000000000E+00 -0.59532235183E+03  0.59532235183E+03  0.00000000000E+00 0. -1.
         23    2    1    2    0    0  0.73018415733E+01 -0.39131788353E+02 -0.89957118424E+02  0.15913820575E+03  0.12509225245E+03 0.  0.
          5    1    3    3  502    0 -0.49522304461E+02  0.82329262784E+01 -0.12405078767E+02  0.51880613850E+02  0.41800000000E+01 0.  1.
         -5    1    3    3    0  502  0.56824146035E+02 -0.47364714631E+02 -0.77552039657E+02  0.10725759190E+03  0.41800000000E+01 0.  1.
        -11    1    1    2    0    0 -0.11062600191E+03 -0.19915350506E+02 -0.29519876792E+03  0.31587504819E+03  0.00000000000E+00 0. -1.
         11    1    1    2    0    0  0.10332416034E+03  0.59047138858E+02 -0.14381040810E+03  0.18666515528E+03  0.00000000000E+00 0.  1.
</event>
<event>
 7    1  0.5109948E-006  0.1537547E+03  0.7561462E-02  0.1195934E+00
         -1   -1    0    0    0  501 -0.00000000000E+00  0.00000000000E+00  0.18194105836E+03  0.18194105836E+03  0.00000000000E+00 0. -1.
          1   -1    0    0  501    0  0.00000000000E+00 -0.00000000000E+00 -0.23619816046E+03  0.23619816046E+03  0.00000000000E+00 0.  1.
         23    2    1    2    0    0 -0.28979143932E+02 -0.12260709715E+03  0.96894790483E+02  0.20225861733E+03  0.12509059439E+03 0.  0.
          5    1    3    3  502    0  0.19580728494E+02 -0.10117121723E+03  0.14486756818E+02  0.10414585276E+03  0.41800000000E+01 0. -1.
         -5    1    3    3    0  502 -0.48559872427E+02 -0.21435879921E+02  0.82408033665E+02  0.98112764565E+02  0.41800000000E+01 0. -1.
        -11    1    1    2    0    0  0.56387674516E+02  0.10302214230E+03 -0.98041792698E+02  0.15298798893E+03  0.00000000000E+00 0.  1.
         11    1    1    2    0    0 -0.27408530584E+02  0.19584954851E+02 -0.53110099882E+02  0.62892612562E+02  0.00000000000E+00 0. -1.
</event>
<event>
 7    1  0.5109948E-006  0.7772394E+02  0.7561462E-02  0.1335638E+00
          1   -1    0    0  501    0  0.00000000000E+00  0.00000000000E+00  0.88686811866E+03  0.88686811866E+03  0.00000000000E+00 0. -1.
         -1   -1    0    0    0  501 -0.00000000000E+00 -0.00000000000E+00 -0.15407462353E+02  0.15407462353E+02  0.00000000000E+00 0.  1.
         23    2    1    2    0    0 -0.25225264126E+02  0.36660800634E+02  0.53593942933E+03  0.55214094043E+03  0.12509283726E+03 0.  0.
          5    1    3    3  502    0 -0.18055672981E+02 -0.11964936282E+02  0.10571293145E+02  0.24462045413E+02  0.41800000000E+01 0.  1.
         -5    1    3    3    0  502 -0.71695911448E+01  0.48625736916E+02  0.52536813618E+03  0.52767889501E+03  0.41800000000E+01 0.  1.
        -11    1    1    2    0    0 -0.51718345288E+01 -0.50425979371E+02  0.28575919678E+03  0.29022034010E+03  0.00000000000E+00 0. -1.
         11    1    1    2    0    0  0.30397098655E+02  0.13765178737E+02  0.49762030208E+02  0.59914300486E+02  0.00000000000E+00 0.  1.
</event>
<event>
 7    1  0.5109948E-006  0.1898604E+03  0.7561462E-02  0.1158587E+00
         -2   -1    0    0    0  501 -0.00000000000E+00  0.00000000000E+00  0.17729359568E+03  0.17729359568E+03  0.00000000000E+00 0.  1.
          2   -1    0    0  501    0  0.00000000000E+00 -0.00000000000E+00 -0.24910759640E+03  0.24910759640E+03  0.00000000000E+00 0. -1.
         23    2    1    2    0    0  0.85238533678E+02 -0.15223266624E+03  0.82227521519E+01  0.21483414533E+03  0.12508278880E+03 0.  0.
          5    1    3    3  502    0  0.71663333392E+02 -0.35543398970E+02  0.44729613141E+02  0.91745175649E+02  0.41800000000E+01 0.  1.
         -5    1    3    3    0  502  0.13575200287E+02 -0.11668926727E+03 -0.36506860989E+02  0.12308896968E+03  0.41800000000E+01 0.  1.
        -11    1    1    2    0    0 -0.16909375655E+02  0.83333094527E+02 -0.76637813631E+02  0.11447133312E+03  0.00000000000E+00 0. -1.
         11    1    1    2    0    0 -0.68329158024E+02  0.68899571710E+02 -0.33989392368E+01  0.97095713633E+02  0.00000000000E+00 0.  1.
</event>
<event>
 7    1  0.5109948E-006  0.8065611E+02  0.7561462E-02  0.1327200E+00
          1   -1    0    0  501    0  0.00000000000E+00  0.00000000000E+00  0.18240648617E+03  0.18240648617E+03  0.00000000000E+00 0. -1.
         -1   -1    0    0    0  501 -0.00000000000E+00 -0.00000000000E+00 -0.75219778488E+02  0.75219778488E+02  0.00000000000E+00 0.  1.
         23    2    1    2    0    0 -0.14669013310E+02 -0.64002551736E+01  0.16796556793E+02  0.12721321960E+03  0.12507971739E+03 0.  0.
          5    1    3    3  502    0  0.17413538776E+02 -0.44059113725E+02  0.48801491318E+02  0.68143193275E+02  0.41800000000E+01 0. -1.
         -5    1    3    3    0  502 -0.32082552085E+02  0.37658858551E+02 -0.32004934525E+02  0.59070026322E+02  0.41800000000E+01 0. -1.
        -11    1    1    2    0    0  0.39708811506E+01 -0.27896578432E+02 -0.48770540789E+01  0.28596724319E+02  0.00000000000E+00 0.  1.
         11    1    1    2    0    0  0.10698132159E+02  0.34296833605E+02  0.95267204968E+02  0.10181632074E+03  0.00000000000E+00 0. -1.
</event>
<event>
 7    1  0.5109948E-006  0.1277219E+03  0.7561462E-02  0.1230876E+00
         -1   -1    0    0    0  501 -0.00000000000E+00  0.00000000000E+00  0.44728780560E+02  0.44728780560E+02  0.00000000000E+00 0.  1.
          1   -1    0    0  501    0  0.00000000000E+00 -0.00000000000E+00 -0.51684212890E+03  0.51684212890E+03  0.00000000000E+00 0. -1.
         23    2    1    2    0    0  0.97329463711E+02  0.28174887859E+02 -0.18979968016E+03  0.24887402032E+03  0.12509000994E+03 0.  0.
          5    1    3    3  502    0 -0.72251538716E+01  0.42919836937E+02 -0.10378829921E+03  0.11262237213E+03  0.41800000000E+01 0.  1.
         -5    1    3    3    0  502  0.10455461758E+03 -0.14744949078E+02 -0.86011380957E+02  0.13625164819E+03  0.41800000000E+01 0.  1.
        -11    1    1    2    0    0 -0.50472648092E+02  0.16583339557E+01 -0.40928981910E+02  0.65003229436E+02  0.00000000000E+00 0.  1.
         11    1    1    2    0    0 -0.46856815619E+02 -0.29833221815E+02 -0.24138468627E+03  0.24769365970E+03  0.00000000000E+00 0. -1.
</event>
<event>
 7    1  0.5109948E-006  0.1528285E+03  0.7561462E-02  0.1197040E+00
         -2   -1    0    0    0  501 -0.00000000000E+00  0.00000000000E+00  0.64767434089E+02  0.64767434089E+02  0.00000000000E+00 0. -1.
          2   -1    0    0  501    0  0.00000000000E+00 -0.00000000000E+00 -0.52966727430E+03  0.52966727430E+03  0.00000000000E+00 0.  1.
         23    2    1    2    0    0 -0.11764309945E+02 -0.14351163644E+03 -0.33218749599E+03  0.38305334509E+03  0.12508934373E+03 0.  0.
          5    1    3    3  502    0 -0.22407119525E+02 -0.87631071762E+02 -0.30811323824E+03  0.32114252867E+03  0.41800000000E+01 0. -1.
         -5    1    3    3    0  502  0.10642809580E+02 -0.55880564675E+02 -0.24074257753E+02  0.61910816426E+02  0.41800000000E+01 0. -1.
        -11    1    1    2    0    0  0.24000252362E+02  0.14384271552E+03 -0.10100764136E+03  0.17739583573E+03  0.00000000000E+00 0.  1.
         11    1    1    2    0    0 -0.12235942417E+02 -0.33107908236E+00 -0.31704702864E+02  0.33985527565E+02  0.00000000000E+00 0. -1.
</event>
<event>
 7    1  0.5109948E-006  0.9738326E+02  0.7561462E-02  0.1285897E+00
          2   -1    0    0  501    0  0.00000000000E+00  0.00000000000E+00  0.36404106716E+03  0.36404106716E+03  0.00000000000E+00 0. -1.
         -2   -1    0    0    0  501 -0.00000000000E+00 -0.00000000000E+00 -0.62995494298E+02  0.62995494298E+02  0.00000000000E+00 0.  1.
         23    2    1    2    0    0  0.68826897596E+02  0.67880666693E+02  0.10254183393E+03  0.18843266444E+03  0.12508842704E+03 0.  0.
          5    1    3    3  502    0  0.49065001532E+02  0.40197227712E+02 -0.15573752123E+02  0.65446204216E+02  0.41800000000E+01 0.  1.
         -5    1    3    3    0  502  0.19761896064E+02  0.27683438981E+02  0.11811558605E+03  0.12298646023E+03  0.41800000000E+01 0.  1.
        -11    1    1    2    0    0 -0.48870556166E+02 -0.43516153295E+02  0.19642848831E+03  0.20704139170E+03  0.00000000000E+00 0. -1.
         11    1    1    2    0    0 -0.19956341431E+02 -0.24364513398E+02  0.20752506156E+01  0.31562505311E+02  0.00000000000E+00 0.  1.
</event>
<event>
 7    1  0.5109948E-006  0.1241777E+03  0.7561462E-02  0.1236360E+00
         -2   -1    0    0    0  501 -0.00000000000E+00  0.00000000000E+00  0.28035624118E+02  0.28035624118E+02  0.00000000000E+00 0.  1.
          2   -1    0    0  501    0  0.00000000000E+00 -0.00000000000E+00 -0.68010645962E+03  0.68010645962E+03  0.00000000000E+00 0. -1.
         23    2    1    2    0    0  0.58273453122E+02 -0.60629672743E+02 -0.32495154369E+03  0.35820741799E+03  0.12508915220E+03 0.  0.
          5    1    3    3  502    0  0.83519144811E+02 -0.33662604007E+02 -0.30045445793E+03  0.31368610449E+03  0.41800000000E+01 0.  1.
         -5    1    3    3    0  502 -0.25245691689E+02 -0.26967068736E+02 -0.24497085764E+02  0.44521313503E+02  0.41800000000E+01 0.  1.
        -11    1    1    2    0    0 -0.81454175505E+02  0.44760239543E+02 -0.28058989579E+03  0.29558239354E+03  0.00000000000E+00 0. -1.
         11    1    1    2    0    0  0.23180722383E+02  0.15869433201E+02 -0.46529396014E+02  0.54352272204E+02  0.00000000000E+00 0.  1.
</event>
<event>
 7    1  0.5109948E-006  0.1916843E+03  0.7561462E-02  0.1156951E+00
          1   -1    0    0  501    0  0.00000000000E+00  0.00000000000E+00  0.30352296148E+03  0.30352296148E+03  0.00000000000E+00 0. -1.
         -1   -1    0    0    0  501 -0.00000000000E+00 -0.00000000000E+00 -0.16892135026E+03  0.16892135026E+03  0.00000000000E+00 0.  1.
         23    2    1    2    0    0 -0.70465248582E+02 -0.15258842500E+03 -0.27196379438E+02  0.21127114807E+03  0.12508907325E+03 0.  0.
          5    1    3    3  502    0 -0.47439517214E+02 -0.15717876858E+03  0.12769651884E+02  0.16473071813E+03  0.41800000000E+01 0.  1.
         -5    1    3    3    0  502 -0.23025731369E+02  0.45903435759E+01 -0.39966031321E+02  0.46540429937E+02  0.41800000000E+01 0.  1.
        -11    1    1    2    0    0  0.36724147021E+02  0.15701750406E+03  0.15989515050E+03  0.22708945090E+03  0.00000000000E+00 0. -1.
         11    1    1    2    0    0  0.33741101562E+02 -0.44290790604E+01  0.19028401530E+01  0.34083712776E+02  0.00000000000E+00 0.  1.
</event>
<event>
 7    1  0.5109948E-006  0.1188962E+03  0.7561462E-02  0.1244929E+00
         -2   -1    0    0    0  501 -0.00000000000E+00  0.00000000000E+00  0.33856746432E+02  0.33856746432E+02  0.00000000000E+00 0. -1.
          2   -1    0    0  501    0  0.00000000000E+00 -0.00000000000E+00 -0.42755347427E+03  0.42755347427E+03  0.00000000000E+00 0.  1.
         23    2    1    2    0    0 -0.42518259615E+02 -0.52189827326E+01 -0.18616487995E+03  0.22834139703E+03  0.12508953150E+03 0.  0.
          5    1    3    3  502    0 -0.83877019831E+02  0.15538622771E+02 -0.11248388604E+03  0.14123349557E+03  0.41800000000E+01 0. -1.
         -5    1    3    3    0  502  0.41358760216E+02 -0.20757605503E+02 -0.73680993907E+02  0.87107901455E+02  0.41800000000E+01 0. -1.
        -11    1    1    2    0    0  0.30561410191E+02 -0.44945755172E+02 -0.10025411570E+03  0.11403950375E+03  0.00000000000E+00 0. -1.
         11    1    1    2    0    0  0.11956849424E+02  0.50164737905E+02 -0.10727773219E+03  0.11902931992E+03  0.00000000000E+00 0.  1.
</event>
<event>
 7    1  0.5109948E-006  0.1068621E+03  0.7561462E-02  0.1266494E+00
          2   -1    0    0  501    0  0.00000000000E+00  0.00000000000E+00  0.22869640241E+02  0.22869640241E+02  0.00000000000E+00 0.  1.
         -2   -1    0    0    0  501 -0.00000000000E+00 -0.00000000000E+00 -0.66323247405E+03  0.66323247405E+03  0.00000000000E+00 0. -1.
         23    2    1    2    0    0  0.40920312012E+02 -0.23041560874E+02 -0.44894410462E+03  0.46840552048E+03  0.12509011581E+03 0.  0.
          5    1    3    3  502    0 -0.43983570456E+02 -0.15291706104E+02 -0.19387181752E+03  0.19942954840E+03  0.41800000000E+01 0. -1.
         -5    1    3    3    0  502  0.84903882468E+02 -0.77498547707E+01 -0.25507228710E+03  0.26897597208E+03  0.41800000000E+01 0. -1.
        -11    1    1    2    0    0 -0.68189207739E+01 -0.23185457505E+02 -0.79441785523E+01  0.25439596953E+02  0.00000000000E+00 0.  1.
         11    1    1    2    0    0 -0.34101391238E+02  0.46227018380E+02 -0.18347455064E+03  0.19225699687E+03  0.00000000000E+00 0. -1.
</event>
<event>
 7    1  0.5109948E-006  0.1410207E+03  0.7561462E-02  0.1211962E+00
         -4   -1    0    0    0  501 -0.00000000000E+00  0.00000000000E+00  0.25431016213E+03  0.25431016213E+03  0.00000000000E+00 0.  1.
          4   -1    0    0  501    0  0.00000000000E+00 -0.00000000000E+00 -0.12326920040E+03  0.12326920040E+03  0.00000000000E+00 0. -1.
         23    2    1    2    0    0 -0.65038608900E+02 -0.86611902733E+02  0.16341137340E+03  0.23255612780E+03  0.12508970092E+03 0.  0.
          5    1    3    3  502    0  0.22454701923E+02 -0.21271473019E+01  0.84394540451E+02  0.87456556369E+02  0.41800000000E+01 0. -1.
         -5    1    3    3    0  502 -0.87493310824E+02 -0.84484755431E+02  0.79016832953E+02  0.14509957143E+03  0.41800000000E+01 0. -1.
        -11    1    1    2    0    0  0.83518031582E+02  0.52613405472E+02 -0.38293508517E+02  0.10587646022E+03  0.00000000000E+00 0.  1.
         11    1    1    2    0    0 -0.18479422682E+02  0.33998497262E+02  0.59230968418E+01  0.39146774515E+02  0.00000000000E+00 0. -1.
</event>
<event>
 7    1  0.5109948E-006  0.1176993E+03  0.7561462E-02  0.1246941E+00
         -2   -1    0    0    0  501 -0.00000000000E+00  0.00000000000E+00  0.69143016635E+02  0.69143016635E+02  0.00000000000E+00 0. -1.
          2   -1    0    0  501    0  0.00000000000E+00 -0.00000000000E+00 -0.26306777432E+03  0.26306777432E+03  0.00000000000E+00 0.  1.
         23    2    1    2    0    0 -0.49648381536E+02 -0.17219162133E+02 -0.34715279171E+02  0.14005101134E+03  0.12509066246E+03 0.  0.
          5    1    3    3  502    0 -0.20443972509E+02  0.54060432841E+02 -0.84621643741E+01  0.58562505384E+02  0.41800000000E+01 0. -1.
         -5    1    3    3    0  502 -0.29204409027E+02 -0.71279594974E+02 -0.26253114797E+02  0.81488505956E+02  0.41800000000E+01 0. -1.
        -11    1    1    2    0    0  0.40432922901E+02 -0.31167034393E+02 -0.46077606462E+02  0.68770277769E+02  0.00000000000E+00 0.  1.
         11    1    1    2    0    0  0.92154586357E+01  0.48386196527E+02 -0.11313187205E+03  0.12338950185E+03  0.00000000000E+00 0. -1.
</event>
<event>
 7    1  0.5109948E-006  0.2341880E+03  0.7561462E-02  0.1123726E+00
          1   -1    0    0  501    0  0.00000000000E+00  0.00000000000E+00  0.44036955919E+03  0.44036955919E+03  0.00000000000E+00 0. -1.
         -1   -1    0    0    0  501 -0.00000000000E+00 -0.00000000000E+00 -0.15549084788E+03  0.15549084788E+03  0.00000000000E+00 0.  1.
         23    2    1    2    0    0  0.18355660117E+03  0.10843479345E+03  0.26957056994E+03  0.36575471844E+03  0.12512830064E+03 0.  0.
          5    1    3    3  502    0  0.99120814244E+02 -0.52731171414E+01  0.72299798114E+02  0.12287178190E+03  0.41800000000E+01 0. -1.
         -5    1    3    3    0  502  0.84435786926E+02  0.11370791059E+03  0.19727077182E+03  0.24288293653E+03  0.41800000000E+01 0. -1.
        -11    1    1    2    0    0 -0.20529205865E+02 -0.50173160730E+02 -0.10046362887E+02  0.55133689866E+02  0.00000000000E+00 0.  1.
         11    1    1    2    0    0 -0.16302739531E+03 -0.58261632716E+02  0.25354504253E+02  0.17497199877E+03  0.00000000000E+00 0. -1.
</event>
<event>
 7    1  0.5109948E-006  0.3280713E+03  0.7561462E-02  0.1071993E+00
         -2   -1    0    0    0  501 -0.00000000000E+00  0.00000000000E+00  0.84680697181E+02  0.84680697181E+02  0.00000000000E+00 0.  1.
          2   -1    0    0  501    0  0.00000000000E+00 -0.00000000000E+00 -0.13256431967E+04  0.13256431967E+04  0.00000000000E+00 0. -1.
         23    2    1    2    0    0  0.25738189461E+03 -0.18022646408E+03 -0.53972833147E+03  0.63693060390E+03  0.12508758676E+03 0.  0.
          5    1    3    3  502    0  0.18722582414E+03 -0.18447427224E+03 -0.37674626873E+03  0.45939034572E+03  0.41800000000E+01 0.  1.
         -5    1    3    3    0  502  0.70156070473E+02  0.42478081524E+01 -0.16298206274E+03  0.17754025818E+03  0.41800000000E+01 0.  1.
        -11    1    1    2    0    0 -0.12138717178E+03  0.13006896445E+03 -0.33076841583E+03  0.37558025227E+03  0.00000000000E+00 0. -1.
         11    1    1    2    0    0 -0.13599472283E+03  0.50157499638E+02 -0.37046575222E+03  0.39781303771E+03  0.00000000000E+00 0.  1.
</event>
<event>
 7    1  0.5109948E-006  0.1099806E+03  0.7561462E-02  0.1260606E+00
          3   -1    0    0  501    0  0.00000000000E+00  0.00000000000E+00  0.37444122151E+02  0.37444122151E+02  0.00000000000E+00 0. -1.
         -3   -1    0    0    0  501 -0.00000000000E+00 -0.00000000000E+00 -0.48666583292E+03  0.48666583292E+03  0.00000000000E+00 0.  1.
         23    2    1    2    0    0 -0.92273617884E+01  0.61033006955E+02 -0.35338764448E+03  0.37992208723E+03  0.12509113855E+03 0.  0.
          5    1    3    3  502    0 -0.43662475294E+02  0.72980650986E+02 -0.31705046703E+03  0.32828502587E+03  0.41800000000E+01 0. -1.
         -5    1    3    3    0  502  0.34435113506E+02 -0.11947644031E+02 -0.36337177455E+02  0.51637061356E+02  0.41800000000E+01 0. -1.
        -11    1    1    2    0    0  0.34237045707E+02 -0.64356314516E+02 -0.40542718263E+02  0.83412364317E+02  0.00000000000E+00 0. -1.
         11    1    1    2    0    0 -0.25009683918E+02  0.33233075614E+01 -0.55291348019E+02  0.60775503524E+02  0.00000000000E+00 0.  1.
</event>
<event>
 7    1  0.5109948E-006  0.8346070E+02  0.7561462E-02  0.1319508E+00
         -2   -1    0    0    0  501 -0.00000000000E+00  0.00000000000E+00  0.71302278630E+02  0.71302278630E+02  0.00000000000E+00 0.  1.
          2   -1    0    0  501    0  0.00000000000E+00 -0.00000000000E+00 -0.39161992995E+03  0.39161992995E+03  0.00000000000E+00 0. -1.
         23    2    1    2    0    0 -0.64835446769E+02  0.39052190308E+02 -0.19344527575E+02  0.14119699389E+03  0.11761662982E+03 0.  0.
          5    1    3    3  502    0 -0.44405907276E+02  0.31440904748E+02 -0.68312290213E+02  0.87432582522E+02  0.41800000000E+01 0. -1.
         -5    1    3    3    0  502 -0.20429539493E+02  0.76112855594E+01  0.48967762638E+02  0.53764411366E+02  0.41800000000E+01 0.  1.
        -11    1    1    2    0    0  0.33469509213E+02 -0.47090825123E+02 -0.27265748326E+03  0.27871106371E+03  0.00000000000E+00 0. -1.
         11    1    1    2    0    0  0.31365937555E+02  0.80386348153E+01 -0.28315640485E+02  0.43014150980E+02  0.00000000000E+00 0.  1.
</event>
<event>
 7    1  0.5109948E-006  0.1450991E+03  0.7561462E-02  0.1206628E+00
         -2   -1    0    0    0  501 -0.00000000000E+00  0.00000000000E+00  0.52521954097E+02  0.52521954097E+02  0.00000000000E+00 0.  1.
          2   -1    0    0  501    0  0.00000000000E+00 -0.00000000000E+00 -0.50276419547E+03  0.50276419547E+03  0.00000000000E+00 0. -1.
         23    2    1    2    0    0  0.10029344823E+03  0.65598593968E+02 -0.26442358101E+03  0.31611397040E+03  0.12508501429E+03 0.  0.
          5    1    3    3  502    0 -0.99642821657E+01  0.14986064196E+02 -0.14380238224E+03  0.14498436666E+03  0.41800000000E+01 0. -1.
         -5    1    3    3    0  502  0.11025773040E+03  0.50612529772E+02 -0.12062119877E+03  0.17112960374E+03  0.41800000000E+01 0. -1.
        -11    1    1    2    0    0 -0.88250514961E+02 -0.48317365989E+01 -0.11597320735E+03  0.14581249566E+03  0.00000000000E+00 0.  1.
         11    1    1    2    0    0 -0.12042933273E+02 -0.60766857369E+02 -0.69845453016E+02  0.93359683500E+02  0.00000000000E+00 0. -1.
</event>
<event>
 7    1  0.5109948E-006  0.2235650E+03  0.7561462E-02  0.1131253E+00
          2   -1    0    0  501    0  0.00000000000E+00  0.00000000000E+00  0.19573866169E+03  0.19573866169E+03  0.00000000000E+00 0. -1.
         -2   -1    0    0    0  501 -0.00000000000E+00 -0.00000000000E+00 -0.33480537682E+03  0.33480537682E+03  0.00000000000E+00 0.  1.
         23    2    1    2    0    0 -0.17659088988E+03  0.10353891030E+03 -0.18429430842E+03  0.30251679103E+03  0.12508944163E+03 0.  0.
          5    1    3    3  502    0 -0.81979608047E+02  0.10649512056E+03 -0.15075542229E+03  0.20200627859E+03  0.41800000000E+01 0.  1.
         -5    1    3    3    0  502 -0.94611281834E+02 -0.29562102629E+01 -0.33538886128E+02  0.10051051245E+03  0.41800000000E+01 0.  1.
        -11    1    1    2    0    0  0.95215295551E+02 -0.97564824089E+02  0.34750419719E+01  0.13637053686E+03  0.00000000000E+00 0.  1.
         11    1    1    2    0    0  0.81375594330E+02 -0.59740862074E+01  0.41752551320E+02  0.91656710612E+02  0.00000000000E+00 0. -1.
</event>
<event>
 7    1  0.5109948E-006  0.2413720E+03  0.7561462E-02  0.1118882E+00
         -1   -1    0    0    0  501 -0.00000000000E+00  0.00000000000E+00  0.10150671086E+03  0.10150671086E+03  0.00000000000E+00 0.  1.
          1   -1    0    0  501    0  0.00000000000E+00 -0.00000000000E+00 -0.69473306005E+03  0.69473306005E+03  0.00000000000E+00 0. -1.
         23    2    1    2    0    0  0.22771264938E+03  0.77403160491E+02 -0.26532399049E+03  0.37932595226E+03  0.12508820164E+03 0.  0.
          5    1    3    3  502    0  0.18314053854E+03  0.53262286497E+02 -0.26733457536E+03  0.32842438339E+03  0.41800000000E+01 0.  1.
         -5    1    3    3    0  502  0.44572110847E+02  0.24140873994E+02  0.20105848757E+01  0.50901568876E+02  0.41800000000E+01 0.  1.
        -11    1    1    2    0    0 -0.39430994952E+02 -0.20346299764E+02 -0.13207120481E+03  0.13932544066E+03  0.00000000000E+00 0. -1.
         11    1    1    2    0    0 -0.18828165443E+03 -0.57056860726E+02 -0.19583115390E+03  0.27758837798E+03  0.00000000000E+00 0.  1.
</event>
<event>
 7    1  0.5109948E-006  0.1123265E+03  0.7561462E-02  0.1256321E+00
          4   -1    0    0  501    0  0.00000000000E+00  0.00000000000E+00  0.71501658759E+02  0.71501658759E+02  0.00000000000E+00 0. -1.
         -4   -1    0    0    0  501 -0.00000000000E+00 -0.00000000000E+00 -0.23300982073E+03  0.23300982073E+03  0.00000000000E+00 0.  1.
         23    2    1    2    0    0  0.13553434647E+02 -0.64969611684E+02 -0.11458296853E+03  0.18215921439E+03  0.12509187294E+03 0.  0.
          5    1    3    3  502    0  0.65296260433E+02 -0.54351990900E+02 -0.50170761027E+02  0.98753826271E+02  0.41800000000E+01 0.  1.
         -5    1    3    3    0  502 -0.51742825786E+02 -0.10617620784E+02 -0.64412207505E+02  0.83405388118E+02  0.41800000000E+01 0.  1.
        -11    1    1    2    0    0 -0.24700961047E+02  0.44865145886E+01 -0.54868905953E+02  0.60339565214E+02  0.00000000000E+00 0.  1.
         11    1    1    2    0    0  0.11147526400E+02  0.60483097095E+02  0.79437125108E+01  0.62012699889E+02  0.00000000000E+00 0. -1.
</event>
<event>
 7    1  0.5109948E-006  0.2237295E+03  0.7561462E-02  0.1131133E+00
         -1   -1    0    0    0  501 -0.00000000000E+00  0.00000000000E+00  0.83382376603E+02  0.83382376603E+02  0.00000000000E+00 0.  1.
          1   -1    0    0  501    0  0.00000000000E+00 -0.00000000000E+00 -0.73181278730E+03  0.73181278730E+03  0.00000000000E+00 0. -1.
         23    2    1    2    0    0 -0.32584735367E+02 -0.21887472817E+03 -0.32682207772E+03  0.41403829086E+03  0.12508846549E+03 0.  0.
          5    1    3    3  502    0 -0.19090350028E+02 -0.19015672850E+03 -0.33052284610E+03  0.38182043824E+03  0.41800000000E+01 0.  1.
         -5    1    3    3    0  502 -0.13494385340E+02 -0.28717999671E+02  0.37007683825E+01  0.32217852620E+02  0.41800000000E+01 0.  1.
        -11    1    1    2    0    0  0.37854384947E+02  0.13361644978E+03 -0.12520989314E+03  0.18698616914E+03  0.00000000000E+00 0.  1.
         11    1    1    2    0    0 -0.52696495796E+01  0.85258278394E+02 -0.19639843983E+03  0.21417070390E+03  0.00000000000E+00 0. -1.
</event>
<event>
 7    1  0.5109948E-006  0.1104613E+03  0.7561462E-02  0.1259718E+00
          1   -1    0    0  501    0  0.00000000000E+00  0.00000000000E+00  0.59519992073E+03  0.59519992073E+03  0.00000000000E+00 0. -1.
         -1   -1    0    0    0  501 -0.00000000000E+00 -0.00000000000E+00 -0.24633466130E+02  0.24633466130E+02  0.00000000000E+00 0.  1.
         23    2    1    2    0    0  0.43438595176E+02 -0.33771427277E+02  0.30340168911E+03  0.33275858461E+03  0.12509304467E+03 0.  0.
          5    1    3    3  502    0  0.30774838152E+02 -0.78560357226E+02  0.23663842617E+03  0.25126487525E+03  0.41800000000E+01 0. -1.
         -5    1    3    3    0  502  0.12663757024E+02  0.44788929949E+02  0.66763262938E+02  0.81493709365E+02  0.41800000000E+01 0. -1.
        -11    1    1    2    0    0 -0.50644447627E+02 -0.44308902435E+01  0.72388259255E+02  0.88456503106E+02  0.00000000000E+00 0.  1.
         11    1    1    2    0    0  0.72058524513E+01  0.38202317520E+02  0.19477650623E+03  0.19861829914E+03  0.00000000000E+00 0. -1.
</event>
<event>
 7    1  0.5109948E-006  0.2765124E+03  0.7561462E-02  0.1097609E+00
         -1   -1    0    0    0  501 -0.00000000000E+00  0.00000000000E+00  0.43752403199E+03  0.43752403199E+03  0.00000000000E+00 0.  1.
          1   -1    0    0  501    0  0.00000000000E+00 -0.00000000000E+00 -0.37276310815E+03  0.37276310815E+03  0.00000000000E+00 0. -1.
         23    2    1    2    0    0 -0.17396704646E+03  0.21232105944E+03  0.30960543262E+03  0.43225892538E+03  0.12508992418E+03 0.  0.
          5    1    3    3  502    0 -0.73678116494E+02  0.82802735769E+02  0.21784282456E+03  0.24445393536E+03  0.41800000000E+01 0. -1.
         -5    1    3    3    0  502 -0.10028892997E+03  0.12951832367E+03  0.91762608060E+02  0.18780499002E+03  0.41800000000E+01 0. -1.
        -11    1    1    2    0    0  0.61034207370E+02 -0.11028543229E+03 -0.16030133548E+03  0.20392294917E+03  0.00000000000E+00 0.  1.
         11    1    1    2    0    0  0.11293283909E+03 -0.10203562715E+03 -0.84543173299E+02  0.17410526559E+03  0.00000000000E+00 0. -1.
</event>
<event>
 7    1  0.5109948E-006  0.1325407E+03  0.7561462E-02  0.1223734E+00
          2   -1    0    0  501    0  0.00000000000E+00  0.00000000000E+00  0.42968441336E+03  0.42968441336E+03  0.00000000000E+00 0. -1.
         -2   -1    0    0    0  501 -0.00000000000E+00 -0.00000000000E+00 -0.42364595238E+02  0.42364595238E+02  0.00000000000E+00 0.  1.
         23    2    1    2    0    0  0.32224330215E+02 -0.64419043962E+02  0.17902795574E+03  0.22997075262E+03  0.12508923790E+03 0.  0.
          5    1    3    3  502    0  0.78466206338E+02 -0.24573444234E+02  0.90363397849E+02  0.12224490079E+03  0.41800000000E+01 0.  1.
         -5    1    3    3    0  502 -0.46241876123E+02 -0.39845599729E+02  0.88664557892E+02  0.10772585182E+03  0.41800000000E+01 0.  1.
        -11    1    1    2    0    0 -0.66681223083E+02  0.53285329748E+02  0.12620711701E+03  0.15236124265E+03  0.00000000000E+00 0. -1.
         11    1    1    2    0    0  0.34456892868E+02  0.11133714215E+02  0.82084745378E+02  0.89717013337E+02  0.00000000000E+00 0.  1.
</event>
<event>
 7    1  0.5109948E-006  0.1458947E+03  0.7561462E-02  0.1205610E+00
         -1   -1    0    0    0  501 -0.00000000000E+00  0.00000000000E+00  0.18704591088E+03  0.18704591088E+03  0.00000000000E+00 0.  1.
          1   -1    0    0  501    0  0.00000000000E+00 -0.00000000000E+00 -0.14650924015E+03  0.14650924015E+03  0.00000000000E+00 0. -1.
         23    2    1    2    0    0  0.12364467977E+03  0.99375113707E+00  0.38016989360E+02  0.17994871535E+03  0.12508898553E+03 0.  0.
          5    1    3    3  502    0  0.11465391620E+03  0.25650803785E+02 -0.17061215845E+02  0.11879411485E+03  0.41800000000E+01 0.  1.
         -5    1    3    3    0  502  0.89907635681E+01 -0.24657052648E+02  0.55078205205E+02  0.61154600509E+02  0.41800000000E+01 0.  1.
        -11    1    1    2    0    0 -0.13191815231E+03  0.11767919545E+02 -0.11475484569E+02  0.13293821718E+03  0.00000000000E+00 0. -1.
         11    1    1    2    0    0  0.82734725392E+01 -0.12761670682E+02  0.13995165932E+02  0.20668218499E+02  0.00000000000E+00 0.  1.
</event>
<event>
 7    1  0.5109948E-006  0.9447670E+02  0.7561462E-02  0.1292359E+00
         -2   -1    0    0    0  501 -0.00000000000E+00  0.00000000000E+00  0.30054828575E+02  0.30054828575E+02  0.00000000000E+00 0.  1.
          2   -1    0    0  501    0  0.00000000000E+00 -0.00000000000E+00 -0.50809901200E+03  0.50809901200E+03  0.00000000000E+00 0. -1.
         23    2    1    2    0    0  0.31833831203E+02 -0.23999998615E+02 -0.17459743028E+03  0.21845503304E+03  0.12509574755E+03 0.  0.
          5    1    3    3  502    0  0.11962146266E+02  0.48739538010E+02 -0.40790952337E+02  0.64807481831E+02  0.41800000000E+01 0.  1.
         -5    1    3    3    0  502  0.19871684937E+02 -0.72739536625E+02 -0.13380647795E+03  0.15364755121E+03  0.41800000000E+01 0.  1.
        -11    1    1    2    0    0 -0.38791685180E+02  0.33529164261E+02 -0.30359952924E+03  0.30789880456E+03  0.00000000000E+00 0. -1.
         11    1    1    2    0    0  0.69578539765E+01 -0.95291656459E+01  0.15277609506E+00  0.11800002983E+02  0.00000000000E+00 0.  1.
</event>
<event>
 7    1  0.5109948E-006  0.7857613E+02  0.7561462E-02  0.1333141E+00
         -3   -1    0    0    0  501 -0.00000000000E+00  0.00000000000E+00  0.23476339159E+03  0.23476339159E+03  0.00000000000E+00 0.  1.
          3   -1    0    0  501    0  0.00000000000E+00 -0.00000000000E+00 -0.59426524234E+02  0.59426524234E+02  0.00000000000E+00 0. -1.
         23    2    1    2    0    0 -0.42513997266E+02 -0.26366194355E+02  0.10934143652E+03  0.17353800653E+03  0.12512902861E+03 0.  0.
          5    1    3    3  502    0  0.22930532367E+02 -0.53626338607E+01  0.10144623033E+03  0.10422752613E+03  0.41800000000E+01 0. -1.
         -5    1    3    3    0  502 -0.65444529632E+02 -0.21003560494E+02  0.78952061964E+01  0.69310480399E+02  0.41800000000E+01 0. -1.
        -11    1    1    2    0    0  0.92805814862E+01  0.29566117059E+02  0.78969940119E+02  0.84832398959E+02  0.00000000000E+00 0.  1.
         11    1    1    2    0    0  0.33233415779E+02 -0.31999227042E+01 -0.12974509282E+02  0.35819510337E+02  0.00000000000E+00 0. -1.
</event>
<event>
 7    1  0.5109948E-006  0.1641895E+03  0.7561462E-02  0.1184046E+00
          1   -1    0    0  501    0  0.00000000000E+00  0.00000000000E+00  0.14946265905E+03  0.14946265905E+03  0.00000000000E+00 0. -1.
         -1   -1    0    0    0  501 -0.00000000000E+00 -0.00000000000E+00 -0.19127915706E+03  0.19127915706E+03  0.00000000000E+00 0.  1.
         23    2    1    2    0    0  0.10989680573E+03  0.10087126361E+02 -0.59047698133E+02  0.17333029557E+03  0.11990705851E+03 0.  0.
          5    1    3    3  502    0 -0.22220080988E+02  0.19096084995E+02 -0.40168676262E+01  0.29866370499E+02  0.41800000000E+01 0. -1.
         -5    1    3    3    0  502  0.13211688672E+03 -0.90089586335E+01 -0.55030830507E+02  0.14346392507E+03  0.41800000000E+01 0.  1.
        -11    1    1    2    0    0 -0.81821476722E+02  0.52831700516E+02  0.57730589203E+01  0.97566750698E+02  0.00000000000E+00 0.  1.
         11    1    1    2    0    0 -0.28075329006E+02 -0.62918826877E+02  0.11458141196E+02  0.69844769841E+02  0.00000000000E+00 0. -1.
</event>
<event>
 7    1  0.5109948E-006  0.1221922E+03  0.7561462E-02  0.1239524E+00
         -1   -1    0    0    0  501 -0.00000000000E+00  0.00000000000E+00  0.17334317876E+03  0.17334317876E+03  0.00000000000E+00 0.  1.
          1   -1    0    0  501    0  0.00000000000E+00 -0.00000000000E+00 -0.12246034694E+03  0.12246034694E+03  0.00000000000E+00 0. -1.
         23    2    1    2    0    0 -0.80459487319E+02 -0.55436813469E+02  0.14074860195E+02  0.15935047286E+03  0.12508997612E+03 0.  0.
          5    1    3    3  502    0 -0.89480983750E+02 -0.79658486032E+02  0.36039610722E+02  0.12517446541E+03  0.41800000000E+01 0. -1.
         -5    1    3    3    0  502  0.90214964311E+01  0.24221672563E+02 -0.21964750527E+02  0.34176007452E+02  0.41800000000E+01 0. -1.
        -11    1    1    2    0    0  0.45176985601E+02  0.37682411846E+02  0.65193859125E+02  0.87813230541E+02  0.00000000000E+00 0.  1.
         11    1    1    2    0    0  0.35282501718E+02  0.17754401623E+02 -0.28385887491E+02  0.48639822297E+02  0.00000000000E+00 0. -1.
</event>
<event>
 7    1  0.5109948E-006  0.1329711E+03  0.7561462E-02  0.1223113E+00
         -1   -1    0    0    0  501 -0.00000000000E+00  0.00000000000E+00  0.30977688109E+02  0.30977688109E+02  0.00000000000E+00 0.  1.
          1   -1    0    0  501    0  0.00000000000E+00 -0.00000000000E+00 -0.64143855155E+03  0.64143855155E+03  0.00000000000E+00 0. -1.
         23    2    1    2    0    0 -0.77719510639E+02 -0.40209714946E+02 -0.31380882951E+03  0.34897083598E+03  0.12509004507E+03 0.  0.
          5    1    3    3  502    0 -0.74564262283E+01 -0.72610069972E+02 -0.12390793018E+03  0.14386962193E+03  0.41800000000E+01 0.  1.
         -5    1    3    3    0  502 -0.70263084411E+02  0.32400355026E+02 -0.18990089933E+03  0.20510121405E+03  0.41800000000E+01 0.  1.
        -11    1    1    2    0    0  0.64577405578E+02 -0.82791908359E+01 -0.23534017071E+03  0.24417981543E+03  0.00000000000E+00 0. -1.
         11    1    1    2    0    0  0.13142105061E+02  0.48488905782E+02 -0.61311863216E+02  0.79265588249E+02  0.00000000000E+00 0.  1.
</event>
<event>
 7    1  0.5109948E-006  0.5635876E+02  0.7561462E-02  0.1413780E+00
         -2   -1    0    0    0  501 -0.00000000000E+00  0.00000000000E+00  0.20765165415E+03  0.20765165415E+03  0.00000000000E+00 0.  1.
          2   -1    0    0  501    0  0.00000000000E+00 -0.00000000000E+00 -0.65108545322E+02  0.65108545322E+02  0.00000000000E+00 0. -1.
         23    2    1    2    0    0 -0.74552637744E+01 -0.10035536948E+02  0.12816324927E+03  0.17953086053E+03  0.12509683633E+03 0.  0.
          5    1    3    3  502    0 -0.12158833620E+02 -0.12050494110E+02  0.15290755287E+03  0.15391960164E+03  0.41800000000E+01 0.  1.
         -5    1    3    3    0  502  0.47035698451E+01  0.20149571616E+01 -0.24744303599E+02  0.25611258896E+02  0.41800000000E+01 0.  1.
        -11    1    1    2    0    0 -0.93188613952E+01 -0.37207105040E+02  0.19149232816E+02  0.42870770469E+02  0.00000000000E+00 0. -1.
         11    1    1    2    0    0  0.16774125170E+02  0.47242641988E+02 -0.47693732580E+01  0.50358568472E+02  0.00000000000E+00 0.  1.
</event>
<event>
 7    1  0.5109948E-006  0.1122528E+03  0.7561462E-02  0.1256454E+00
         -2   -1    0    0    0  501 -0.00000000000E+00  0.00000000000E+00  0.32212004631E+02  0.32212004631E+02  0.00000000000E+00 0.  1.
          2   -1    0    0  501    0  0.00000000000E+00 -0.00000000000E+00 -0.41426605931E+03  0.41426605931E+03  0.00000000000E+00 0. -1.
         23    2    1    2    0    0 -0.13850592941E+02 -0.40286460607E+02 -0.19360374488E+03  0.23440242589E+03  0.12508896593E+03 0.  0.
          5    1    3    3  502    0  0.24351752954E+01  0.43804760937E+02 -0.87538998912E+02  0.98006815528E+02  0.41800000000E+01 0. -1.
         -5    1    3    3    0  502 -0.16285768237E+02 -0.84091221544E+02 -0.10606474597E+03  0.13639561036E+03  0.41800000000E+01 0. -1.
        -11    1    1    2    0    0 -0.29151712809E+02  0.42594005216E+02 -0.12652988518E+03  0.13665241851E+03  0.00000000000E+00 0.  1.
         11    1    1    2    0    0  0.43002305750E+02 -0.23075446090E+01 -0.61920424618E+02  0.75423219547E+02  0.00000000000E+00 0. -1.
</event>
<event>
 7    1  0.5109948E-006  0.1124849E+03  0.7561462E-02  0.1256036E+00
         -1   -1    0    0    0  501 -0.00000000000E+00  0.00000000000E+00  0.57848637544E+03  0.57848637544E+03  0.00000000000E+00 0.  1.
          1   -1    0    0  501    0  0.00000000000E+00 -0.00000000000E+00 -0.27232606585E+02  0.27232606585E+02  0.00000000000E+00 0. -1.
         23    2    1    2    0    0 -0.53874219548E+02 -0.21358105951E+02  0.37370973575E+03  0.39875817351E+03  0.12645360464E+03 0.  0.
          5    1    3    3  502    0 -0.52205928070E+02 -0.65676838187E+02  0.16279011063E+03  0.18318569409E+03  0.41800000000E+01 0. -1.
         -5    1    3    3    0  502 -0.16682914780E+01  0.44318732236E+02  0.21091962512E+03  0.21557247942E+03  0.41800000000E+01 0.  1.
        -11    1    1    2    0    0  0.67800919075E+02 -0.35390839424E+01  0.77998345441E+02  0.10340808302E+03  0.00000000000E+00 0. -1.
         11    1    1    2    0    0 -0.13926699527E+02  0.24897189893E+02  0.99545687667E+02  0.10355272549E+03  0.00000000000E+00 0.  1.
</event>
<event>
 7    1  0.5109948E-006  0.1357062E+03  0.7561462E-02  0.1219226E+00
          1   -1    0    0  501    0  0.00000000000E+00  0.00000000000E+00  0.37966743316E+03  0.37966743316E+03  0.00000000000E+00 0. -1.
         -1   -1    0    0    0  501 -0.00000000000E+00 -0.00000000000E+00 -0.51627017342E+02  0.51627017342E+02  0.00000000000E+00 0.  1.
         23    2    1    2    0    0 -0.25226994273E+02 -0.79664988044E+02  0.13393745202E+03  0.20141346733E+03  0.12508090265E+03 0.  0.
          5    1    3    3  502    0 -0.58049092183E+02  0.43367146327E+01  0.37819649576E+02  0.69543529470E+02  0.41800000000E+01 0.  1.
         -5    1    3    3    0  502  0.32822097910E+02 -0.84001702676E+02  0.96117802448E+02  0.13186993786E+03  0.41800000000E+01 0.  1.
        -11    1    1    2    0    0  0.94824369662E+01  0.98081725825E+02  0.16275601910E+03  0.19026156549E+03  0.00000000000E+00 0.  1.
         11    1    1    2    0    0  0.15744557307E+02 -0.18416737782E+02  0.31346944694E+02  0.39619417675E+02  0.00000000000E+00 0. -1.
</event>
<event>
 7    1  0.5109948E-006  0.7829862E+02  0.7561462E-02  0.1333950E+00
         -1   -1    0    0    0  501 -0.00000000000E+00  0.00000000000E+00  0.50992718668E+02  0.50992718668E+02  0.00000000000E+00 0.  1.
          1   -1    0    0  501    0  0.00000000000E+00 -0.00000000000E+00 -0.31212725725E+03  0.31212725725E+03  0.00000000000E+00 0. -1.
         23    2    1    2    0    0 -0.48098078507E+02 -0.11392406648E+02 -0.78231944361E+02  0.15559851751E+03  0.12508976556E+03 0.  0.
          5    1    3    3  502    0 -0.20038482589E+02  0.34731944365E+02  0.18796983568E+02  0.44481993381E+02  0.41800000000E+01 0. -1.
         -5    1    3    3    0  502 -0.28059595918E+02 -0.46124351013E+02 -0.97028927928E+02  0.11111652413E+03  0.41800000000E+01 0. -1.
        -11    1    1    2    0    0  0.25854473005E+02 -0.13152034085E+02 -0.88246173903E+01  0.30320020565E+02  0.00000000000E+00 0.  1.
         11    1    1    2    0    0  0.22243605501E+02  0.24544440732E+02 -0.17407797683E+03  0.17720143785E+03  0.00000000000E+00 0. -1.
</event>
<event>
 7    1  0.5207210E-006  0.1083185E+03  0.7561462E-02  0.1263716E+00
          2   -1    0    0  501    0  0.00000000000E+00  0.00000000000E+00  0.11549090469E+03  0.11549090469E+03  0.00000000000E+00 0. -1.
         -2   -1    0    0    0  501 -0.00000000000E+00 -0.00000000000E+00 -0.17275115341E+03  0.17275115341E+03  0.00000000000E+00 0.  1.
         23    2    1    2    0    0  0.27431313774E+02 -0.78686869336E+02 -0.67514952461E+02  0.16477220438E+03  0.12509000818E+03 0.  0.
          5    1    3    3  502    0 -0.38511280446E+02 -0.22535247092E+02  0.12771074500E+02  0.46599665525E+02  0.41800000000E+01 0.  1.
         -5    1    3    3    0  502  0.65942594221E+02 -0.56151622244E+02 -0.80286026961E+02  0.11817253885E+03  0.41800000000E+01 0.  1.
        -11    1    1    2    0    0  0.53573040686E+00  0.20943430927E+02 -0.37862239106E+02  0.43271970792E+02  0.00000000000E+00 0.  1.
         11    1    1    2    0    0 -0.27967044181E+02  0.57743438409E+02  0.48116942845E+02  0.80197882941E+02  0.00000000000E+00 0. -1.
</event>
<event>
 7    1  0.5109948E-006  0.1431922E+03  0.7561462E-02  0.1209097E+00
         -3   -1    0    0    0  501 -0.00000000000E+00  0.00000000000E+00  0.81137604493E+02  0.81137604493E+02  0.00000000000E+00 0.  1.
          3   -1    0    0  501    0  0.00000000000E+00 -0.00000000000E+00 -0.28696099359E+03  0.28696099359E+03  0.00000000000E+00 0. -1.
         23    2    1    2    0    0 -0.10768500669E+03  0.11101026310E+02 -0.10377754747E+03  0.19528706697E+03  0.12509182913E+03 0.  0.
          5    1    3    3  502    0 -0.67758735675E+02 -0.52983140487E+02 -0.75587708163E+02  0.11458373995E+03  0.41800000000E+01 0. -1.
         -5    1    3    3    0  502 -0.39926271013E+02  0.64084166797E+02 -0.28189839306E+02  0.80703327015E+02  0.41800000000E+01 0. -1.
        -11    1    1    2    0    0  0.22432781353E+00  0.14239009976E+02  0.84909453143E+01  0.16579984330E+02  0.00000000000E+00 0.  1.
         11    1    1    2    0    0  0.10746067887E+03 -0.25340036286E+02 -0.11053678694E+03  0.15623154678E+03  0.00000000000E+00 0. -1.
</event>
<event>
 7    1  0.5109948E-006  0.1093967E+03  0.7561462E-02  0.1261691E+00
         -2   -1    0    0    0  501 -0.00000000000E+00  0.00000000000E+00  0.13080984544E+02  0.13080984544E+02  0.00000000000E+00 0.  1.
          2   -1    0    0  501    0  0.00000000000E+00 -0.00000000000E+00 -0.14450814254E+04  0.14450814254E+04  0.00000000000E+00 0. -1.
         23    2    1    2    0    0  0.98227381818E+01 -0.81097332910E+02 -0.80467543548E+03  0.81842736621E+03  0.12509010237E+03 0.  0.
          5    1    3    3  502    0  0.25200085842E+02 -0.68425591904E+02 -0.19214176142E+03  0.20555543008E+03  0.41800000000E+01 0. -1.
         -5    1    3    3    0  502 -0.15377347660E+02 -0.12671741005E+02 -0.61253367405E+03  0.61287193613E+03  0.41800000000E+01 0. -1.
        -11    1    1    2    0    0 -0.36986062929E+02  0.89599232304E+02 -0.48400453801E+03  0.49361562383E+03  0.00000000000E+00 0.  1.
         11    1    1    2    0    0  0.27163324747E+02 -0.85018993949E+01 -0.14332046733E+03  0.14611941986E+03  0.00000000000E+00 0. -1.
</event>
<event>
 7    1  0.5109948E-006  0.5409600E+02  0.7561462E-02  0.1424423E+00
         -1   -1    0    0    0  501 -0.00000000000E+00  0.00000000000E+00  0.51803317215E+03  0.51803317215E+03  0.00000000000E+00 0.  1.
          1   -1    0    0  501    0  0.00000000000E+00 -0.00000000000E+00 -0.42153424983E+02  0.42153424983E+02  0.00000000000E+00 0. -1.
         23    2    1    2    0    0 -0.19105068395E+02  0.20449892974E+02  0.44000084133E+03  0.45829226364E+03  0.12509139371E+03 0.  0.
          5    1    3    3  502    0 -0.36287004688E+02 -0.34229374287E+01  0.42192440298E+03  0.42351639572E+03  0.41800000000E+01 0. -1.
         -5    1    3    3    0  502  0.17181936293E+02  0.23872830402E+02  0.18076438344E+02  0.34775867917E+02  0.41800000000E+01 0. -1.
        -11    1    1    2    0    0  0.25184972529E+02 -0.56707557440E+01 -0.26799370262E+02  0.37210839260E+02  0.00000000000E+00 0. -1.
         11    1    1    2    0    0 -0.60799041348E+01 -0.14779137230E+02  0.62678276097E+02  0.64683494232E+02  0.00000000000E+00 0.  1.
</event>
<event>
 7    1  0.5109948E-006  0.1414983E+03  0.7561462E-02  0.1211327E+00
         -2   -1    0    0    0  501 -0.00000000000E+00  0.00000000000E+00  0.54598076030E+02  0.54598076030E+02  0.00000000000E+00 0. -1.
          2   -1    0    0  501    0  0.00000000000E+00 -0.00000000000E+00 -0.46326860724E+03  0.46326860724E+03  0.00000000000E+00 0.  1.
         23    2    1    2    0    0 -0.10572326627E+03  0.20185673583E+02 -0.28060351638E+03  0.32553220658E+03  0.12509202079E+03 0.  0.
          5    1    3    3  502    0 -0.79902349007E+02 -0.41454684011E+02 -0.20845538388E+03  0.22709908778E+03  0.41800000000E+01 0. -1.
         -5    1    3    3    0  502 -0.25820917267E+02  0.61640357594E+02 -0.72148132500E+02  0.98433118797E+02  0.41800000000E+01 0. -1.
        -11    1    1    2    0    0  0.34409088014E+00 -0.20540273689E+02  0.63793085860E+01  0.21510853535E+02  0.00000000000E+00 0. -1.
         11    1    1    2    0    0  0.10537917539E+03  0.35460010590E+00 -0.13444632342E+03  0.17082362316E+03  0.00000000000E+00 0.  1.
</event>
<event>
 7    1  0.5109948E-006  0.1073626E+03  0.7561462E-02  0.1265533E+00
          3   -1    0    0  501    0  0.00000000000E+00  0.00000000000E+00  0.11756168376E+02  0.11756168376E+02  0.00000000000E+00 0. -1.
         -3   -1    0    0    0  501 -0.00000000000E+00 -0.00000000000E+00 -0.10889777559E+04  0.10889777559E+04  0.00000000000E+00 0.  1.
         23    2    1    2    0    0  0.70619838919E+01  0.30112890315E+02 -0.67517487318E+03  0.68735764219E+03  0.12507102432E+03 0.  0.
          5    1    3    3  502    0 -0.36789792748E+02 -0.34290086383E+02 -0.29016306487E+03  0.29451888817E+03  0.41800000000E+01 0.  1.
         -5    1    3    3    0  502  0.43851776640E+02  0.64402976699E+02 -0.38501180830E+03  0.39283875401E+03  0.41800000000E+01 0.  1.
        -11    1    1    2    0    0 -0.68877549050E+01  0.27637141219E+02 -0.59149414073E+02  0.65649873782E+02  0.00000000000E+00 0. -1.
         11    1    1    2    0    0 -0.17422898687E+00 -0.57750031535E+02 -0.34289730032E+03  0.34772640835E+03  0.00000000000E+00 0.  1.
</event>
<event>
 7    1  0.5109948E-006  0.1002137E+03  0.7561462E-02  0.1279847E+00
          3   -1    0    0  501    0  0.00000000000E+00  0.00000000000E+00  0.15530145161E+02  0.15530145161E+02  0.00000000000E+00 0. -1.
         -3   -1    0    0    0  501 -0.00000000000E+00 -0.00000000000E+00 -0.88825246417E+03  0.88825246417E+03  0.00000000000E+00 0.  1.
         23    2    1    2    0    0 -0.64935147010E+01  0.28153159634E+02 -0.63251221366E+03  0.64541002577E+03  0.12509050645E+03 0.  0.
          5    1    3    3  502    0  0.11307379233E+02 -0.48296251731E+02 -0.24541882782E+03  0.25041617002E+03  0.41800000000E+01 0. -1.
         -5    1    3    3    0  502 -0.17800893934E+02  0.76449411365E+02 -0.38709338584E+03  0.39499385576E+03  0.41800000000E+01 0. -1.
        -11    1    1    2    0    0  0.34035808097E+02 -0.28661910578E+02 -0.21935227114E+03  0.22381992808E+03  0.00000000000E+00 0.  1.
         11    1    1    2    0    0 -0.27542293396E+02  0.50875094473E+00 -0.20857834209E+02  0.34552655483E+02  0.00000000000E+00 0. -1.
</event>
<event>
 7    1  0.5109948E-006  0.1589008E+03  0.7561462E-02  0.1189943E+00
         -2   -1    0    0    0  501 -0.00000000000E+00  0.00000000000E+00  0.74698577271E+03  0.74698577271E+03  0.00000000000E+00 0.  1.
          2   -1    0    0  501    0  0.00000000000E+00 -0.00000000000E+00 -0.35469357090E+02  0.35469357090E+02  0.00000000000E+00 0. -1.
         23    2    1    2    0    0  0.85915263000E+02  0.75813033012E+02  0.45293231997E+03  0.48365784892E+03  0.12509268546E+03 0.  0.
          5    1    3    3  502    0  0.41779234735E+02 -0.31286951848E+02  0.17067053190E+03  0.17852249345E+03  0.41800000000E+01 0.  1.
         -5    1    3    3    0  502  0.44136028265E+02  0.10709998486E+03  0.28226178808E+03  0.30513535547E+03  0.41800000000E+01 0.  1.
        -11    1    1    2    0    0 -0.24096451397E+02  0.22776891195E+02  0.63737591005E+02  0.71846407353E+02  0.00000000000E+00 0.  1.
         11    1    1    2    0    0 -0.61818811602E+02 -0.98589924207E+02  0.19484650464E+03  0.22695087352E+03  0.00000000000E+00 0. -1.
</event>
<event>
 7    1  0.5109948E-006  0.1011523E+03  0.7561462E-02  0.1277891E+00
         -1   -1    0    0    0  501 -0.00000000000E+00  0.00000000000E+00  0.74416300009E+03  0.74416300009E+03  0.00000000000E+00 0.  1.
          1   -1    0    0  501    0  0.00000000000E+00 -0.00000000000E+00 -0.23262813068E+02  0.23262813068E+02  0.00000000000E+00 0. -1.
         23    2    1    2    0    0  0.38954705669E+02 -0.55263656835E+02  0.47186957647E+03  0.49282979542E+03  0.12509504064E+03 0.  0.
          5    1    3    3  502    0 -0.10274821780E+02 -0.28254180652E+02  0.17606641933E+02  0.35090410757E+02  0.41800000000E+01 0. -1.
         -5    1    3    3    0  502  0.49229527449E+02 -0.27009476183E+02  0.45426293454E+03  0.45773938467E+03  0.41800000000E+01 0. -1.
        -11    1    1    2    0    0 -0.45871899040E+02 -0.12486688028E+02  0.98140585731E+02  0.10904917729E+03  0.00000000000E+00 0. -1.
         11    1    1    2    0    0  0.69171933703E+01  0.67750344863E+02  0.15089002482E+03  0.16554684045E+03  0.00000000000E+00 0.  1.
</event>
<event>
 7    1  0.5109948E-006  0.9251443E+02  0.7561462E-02  0.1296874E+00
         -2   -1    0    0    0  501 -0.00000000000E+00  0.00000000000E+00  0.17471573711E+02  0.17471573711E+02  0.00000000000E+00 0.  1.
          2   -1    0    0  501    0  0.00000000000E+00 -0.00000000000E+00 -0.71144099694E+03  0.71144099694E+03  0.00000000000E+00 0. -1.
         23    2    1    2    0    0 -0.50854892773E+01  0.25696359432E+02 -0.35217461412E+03  0.37464754526E+03  0.12509060414E+03 0.  0.
          5    1    3    3  502    0  0.36025596851E+02 -0.96712375977E+01 -0.28838289397E+03  0.29081530633E+03  0.41800000000E+01 0.  1.
         -5    1    3    3    0  502 -0.41111086129E+02  0.35367597030E+02 -0.63791720158E+02  0.83832238925E+02  0.41800000000E+01 0.  1.
        -11    1    1    2    0    0  0.22452375264E+02  0.28448137936E+02 -0.12669088366E+03  0.13177247706E+03  0.00000000000E+00 0. -1.
         11    1    1    2    0    0 -0.17366885987E+02 -0.54144497369E+02 -0.21510392544E+03  0.22249254834E+03  0.00000000000E+00 0.  1.
</event>
<event>
 7    1  0.5109948E-006  0.9865618E+02  0.7561462E-02  0.1283147E+00
          2   -1    0    0  501    0  0.00000000000E+00  0.00000000000E+00  0.12846109264E+04  0.12846109264E+04  0.00000000000E+00 0. -1.
         -2   -1    0    0    0  501 -0.00000000000E+00 -0.00000000000E+00 -0.15089612225E+02  0.15089612225E+02  0.00000000000E+00 0.  1.
         23    2    1    2    0    0  0.31525547904E+02  0.78877037057E+02  0.72493958349E+03  0.74054103750E+03  0.12509269112E+03 0.  0.
          5    1    3    3  502    0  0.55920634447E+01  0.43646610778E+02  0.66367379849E+03  0.66514410545E+03  0.41800000000E+01 0. -1.
         -5    1    3    3    0  502  0.25933484459E+02  0.35230426280E+02  0.61265784994E+02  0.75396932053E+02  0.41800000000E+01 0. -1.
        -11    1    1    2    0    0 -0.23847908036E+02 -0.91408989265E+02  0.53036168463E+03  0.53870942313E+03  0.00000000000E+00 0. -1.
         11    1    1    2    0    0 -0.76776398679E+01  0.12531952208E+02  0.14220046029E+02  0.20450077974E+02  0.00000000000E+00 0.  1.
</event>
<event>
 7    1  0.5109948E-006  0.1214314E+03  0.7561462E-02  0.1240754E+00
         -1   -1    0    0    0  501 -0.00000000000E+00  0.00000000000E+00  0.56047937588E+02  0.56047937588E+02  0.00000000000E+00 0.  1.
          1   -1    0    0  501    0  0.00000000000E+00 -0.00000000000E+00 -0.45453905142E+03  0.45453905142E+03  0.00000000000E+00 0. -1.
         23    2    1    2    0    0  0.79682023313E+02 -0.83848038543E+02 -0.26109821334E+03  0.31176920922E+03  0.12509214364E+03 0.  0.
          5    1    3    3  502    0  0.20268110955E+02 -0.17662400266E+02 -0.20441624910E+03  0.20621889341E+03  0.41800000000E+01 0.  1.
         -5    1    3    3    0  502  0.59413912359E+02 -0.66185638277E+02 -0.56681964241E+02  0.10555031580E+03  0.41800000000E+01 0. -1.
        -11    1    1    2    0    0 -0.39147125371E+02  0.75768395175E+02 -0.42442398507E+02  0.95261242503E+02  0.00000000000E+00 0.  1.
         11    1    1    2    0    0 -0.40534897942E+02  0.80796433684E+01 -0.94950501985E+02  0.10355653729E+03  0.00000000000E+00 0. -1.
</event>
<event>
 7    1  0.5109948E-006  0.1389529E+03  0.7561462E-02  0.1214745E+00
         -2   -1    0    0    0  501 -0.00000000000E+00  0.00000000000E+00  0.26848673278E+02  0.26848673278E+02  0.00000000000E+00 0. -1.
          2   -1    0    0  501    0  0.00000000000E+00 -0.00000000000E+00 -0.81418015175E+03  0.81418015175E+03  0.00000000000E+00 0.  1.
         23    2    1    2    0    0  0.38358262891E+02 -0.89845745581E+02 -0.37099507503E+03  0.40351924434E+03  0.12508725164E+03 0.  0.
          5    1    3    3  502    0  0.75127338589E+02 -0.60300395923E+02 -0.31871299048E+03  0.33298002561E+03  0.41800000000E+01 0. -1.
         -5    1    3    3    0  502 -0.36769075698E+02 -0.29545349658E+02 -0.52282084549E+02  0.70539218729E+02  0.41800000000E+01 0. -1.
        -11    1    1    2    0    0 -0.22608299148E+00 -0.18894114345E+02 -0.70057600351E+02  0.72561050415E+02  0.00000000000E+00 0.  1.
         11    1    1    2    0    0 -0.38132179899E+02  0.10873985993E+03 -0.34627880309E+03  0.36494853027E+03  0.00000000000E+00 0. -1.
</event>
<event>
 7    1  0.5109948E-006  0.1639412E+03  0.7561462E-02  0.1184318E+00
         -2   -1    0    0    0  501 -0.00000000000E+00  0.00000000000E+00  0.57151921179E+02  0.57151921179E+02  0.00000000000E+00 0.  1.
          2   -1    0    0  501    0  0.00000000000E+00 -0.00000000000E+00 -0.54265886439E+03  0.54265886439E+03  0.00000000000E+00 0. -1.
         23    2    1    2    0    0  0.12733052457E+03  0.53239123625E+02 -0.23975040385E+03  0.30360280131E+03  0.12508772141E+03 0.  0.
          5    1    3    3  502    0  0.13223841919E+03  0.28536853324E+01 -0.14654207332E+03  0.19745175280E+03  0.41800000000E+01 0.  1.
         -5    1    3    3    0  502 -0.49078946190E+01  0.50385438293E+02 -0.93208330520E+02  0.10615104851E+03  0.41800000000E+01 0.  1.
        -11    1    1    2    0    0 -0.87861224272E+02 -0.57573722861E+02 -0.23115195105E+03  0.25390067501E+03  0.00000000000E+00 0. -1.
         11    1    1    2    0    0 -0.39469300296E+02  0.43345992362E+01 -0.14604588318E+02  0.42307309255E+02  0.00000000000E+00 0.  1.
</event>
<event>
 7    1  0.5109948E-006  0.1032900E+03  0.7561462E-02  0.1273526E+00
         -1   -1    0    0    0  501 -0.00000000000E+00  0.00000000000E+00  0.18668798208E+02  0.18668798208E+02  0.00000000000E+00 0. -1.
          1   -1    0    0  501    0  0.00000000000E+00 -0.00000000000E+00 -0.78020780017E+03  0.78020780017E+03  0.00000000000E+00 0.  1.
         23    2    1    2    0    0  0.27460379569E+01 -0.40929021058E+02 -0.31390551216E+03  0.34039274545E+03  0.12509126711E+03 0.  0.
          5    1    3    3  502    0 -0.13480725508E+02 -0.71680287634E+02 -0.10114933978E+03  0.12477361473E+03  0.41800000000E+01 0. -1.
         -5    1    3    3    0  502  0.16226763465E+02  0.30751266576E+02 -0.21275617238E+03  0.21561913072E+03  0.41800000000E+01 0. -1.
        -11    1    1    2    0    0  0.39126044565E+02 -0.11466210112E+01 -0.15278847449E+03  0.15772279493E+03  0.00000000000E+00 0.  1.
         11    1    1    2    0    0 -0.41872082522E+02  0.42075642069E+02 -0.29484501531E+03  0.30076105799E+03  0.00000000000E+00 0. -1.
</event>
<event>
 7    1  0.5109948E-006  0.1429522E+03  0.7561462E-02  0.1209411E+00
          1   -1    0    0  501    0  0.00000000000E+00  0.00000000000E+00  0.37565766135E+03  0.37565766135E+03  0.00000000000E+00 0. -1.
         -1   -1    0    0    0  501 -0.00000000000E+00 -0.00000000000E+00 -0.83670465148E+02  0.83670465148E+02  0.00000000000E+00 0.  1.
         23    2    1    2    0    0  0.16986602748E+00  0.11913812368E+03  0.59000174733E+02  0.18254460035E+03  0.12509032388E+03 0.  0.
          5    1    3    3  502    0 -0.32563143437E+02  0.10460681561E+03  0.84466390038E+02  0.13840154489E+03  0.41800000000E+01 0.  1.
         -5    1    3    3    0  502  0.32733009464E+02  0.14531308075E+02 -0.25466215305E+02  0.44143055455E+02  0.41800000000E+01 0.  1.
        -11    1    1    2    0    0 -0.36191927885E+02 -0.44705638208E+02  0.14522892119E+03  0.15620463912E+03  0.00000000000E+00 0. -1.
         11    1    1    2    0    0  0.36022061857E+02 -0.74432485474E+02  0.87758100278E+02  0.12057888704E+03  0.00000000000E+00 0.  1.
</event>
<event>
 7    1  0.5109948E-006  0.8479336E+02  0.7561462E-02  0.1315974E+00
         -2   -1    0    0    0  501 -0.00000000000E+00  0.00000000000E+00  0.53835802227E+02  0.53835802227E+02  0.00000000000E+00 0.  1.
          2   -1    0    0  501    0  0.00000000000E+00 -0.00000000000E+00 -0.23204955208E+03  0.23204955208E+03  0.00000000000E+00 0. -1.
         23    2    1    2    0    0  0.17681544262E+02  0.15784049477E+02 -0.86255634567E+02  0.15377282379E+03  0.12507707071E+03 0.  0.
          5    1    3    3  502    0  0.31996530132E+02  0.61807140031E+02 -0.78128640764E+02  0.10471607998E+03  0.41800000000E+01 0. -1.
         -5    1    3    3    0  502 -0.14314985870E+02 -0.46023090555E+02 -0.81269938036E+01  0.49056743807E+02  0.41800000000E+01 0. -1.
        -11    1    1    2    0    0  0.10639597335E+00  0.15498073272E+02  0.13581039873E+02  0.20606946384E+02  0.00000000000E+00 0.  1.
         11    1    1    2    0    0 -0.17787940236E+02 -0.31282122749E+02 -0.10553915516E+03  0.11150558414E+03  0.00000000000E+00 0. -1.
</event>
<event>
 7    1  0.5109948E-006  0.7300537E+02  0.7561462E-02  0.1350161E+00
         -3   -1    0    0    0  501 -0.00000000000E+00  0.00000000000E+00  0.89199763971E+03  0.89199763971E+03  0.00000000000E+00 0.  1.
          3   -1    0    0  501    0  0.00000000000E+00 -0.00000000000E+00 -0.21833148309E+02  0.21833148309E+02  0.00000000000E+00 0. -1.
         23    2    1    2    0    0  0.36550326548E+02  0.23513895404E+02  0.72508523623E+03  0.73707883585E+03  0.12509109005E+03 0.  0.
          5    1    3    3  502    0  0.24221697646E+02  0.73041460959E+01  0.71211123732E+03  0.71257275271E+03  0.41800000000E+01 0.  1.
         -5    1    3    3    0  502  0.12328628902E+02  0.16209749308E+02  0.12973998915E+02  0.24506083144E+02  0.41800000000E+01 0.  1.
        -11    1    1    2    0    0 -0.90821184285E+01  0.34347744592E+02  0.38343736814E+02  0.52273268375E+02  0.00000000000E+00 0. -1.
         11    1    1    2    0    0 -0.27468208120E+02 -0.57861639996E+02  0.10673551836E+03  0.12447868379E+03  0.00000000000E+00 0.  1.
</event>
<event>
 7    1  0.5109948E-006  0.7527323E+02  0.7561462E-02  0.1343027E+00
         -3   -1    0    0    0  501 -0.00000000000E+00  0.00000000000E+00  0.22731777279E+03  0.22731777279E+03  0.00000000000E+00 0.  1.
          3   -1    0    0  501    0  0.00000000000E+00 -0.00000000000E+00 -0.76010872662E+02  0.76010872662E+02  0.00000000000E+00 0. -1.
         23    2    1    2    0    0  0.36734733379E+02 -0.50063180389E+01  0.15584270860E+03  0.20324743301E+03  0.12509222734E+03 0.  0.
          5    1    3    3  502    0  0.33648897152E+02  0.37086151722E+02  0.98339711350E+01  0.51203616253E+02  0.41800000000E+01 0.  1.
         -5    1    3    3    0  502  0.30858362268E+01 -0.42092469761E+02  0.14600873747E+03  0.15204381675E+03  0.41800000000E+01 0.  1.
        -11    1    1    2    0    0  0.24865506520E+01 -0.14057146536E+02  0.37122394140E+02  0.39772584145E+02  0.00000000000E+00 0.  1.
         11    1    1    2    0    0 -0.39221284031E+02  0.19063464575E+02 -0.41658202614E+02  0.60308628302E+02  0.00000000000E+00 0. -1.
</event>
<event>
 7    1  0.5109948E-006  0.8652717E+02  0.7561462E-02  0.1311486E+00
          1   -1    0    0  501    0  0.00000000000E+00  0.00000000000E+00  0.45928274427E+03  0.45928274427E+03  0.00000000000E+00 0. -1.
         -1   -1    0    0    0  501 -0.00000000000E+00 -0.00000000000E+00 -0.26693614838E+02  0.26693614838E+02  0.00000000000E+00 0.  1.
         23    2    1    2    0    0  0.68582679986E+01 -0.62519646325E+01  0.21627023919E+03  0.25001127476E+03  0.12508676289E+03 0.  0.
          5    1    3    3  502    0  0.32858334345E+02  0.27843770124E+02  0.17583585488E+02  0.46707606974E+02  0.41800000000E+01 0. -1.
         -5    1    3    3    0  502 -0.26000066346E+02 -0.34095734757E+02  0.19868665370E+03  0.20330366779E+03  0.41800000000E+01 0. -1.
        -11    1    1    2    0    0 -0.46435239161E+02  0.78418843378E+01  0.16221274415E+03  0.16891033406E+03  0.00000000000E+00 0.  1.
         11    1    1    2    0    0  0.39576971163E+02 -0.15899197053E+01  0.54106146097E+02  0.67054750291E+02  0.00000000000E+00 0. -1.
</event>
<event>
 7    1  0.5109948E-006  0.1133397E+03  0.7561462E-02  0.1254507E+00
         -1   -1    0    0    0  501 -0.00000000000E+00  0.00000000000E+00  0.15834415554E+02  0.15834415554E+02  0.00000000000E+00 0.  1.
          1   -1    0    0  501    0  0.00000000000E+00 -0.00000000000E+00 -0.11781371258E+04  0.11781371258E+04  0.00000000000E+00 0. -1.
         23    2    1    2    0    0 -0.17728339062E+02 -0.79197588606E+02 -0.58262173698E+03  0.60140183946E+03  0.12509808974E+03 0.  0.
          5    1    3    3  502    0  0.31673491227E+01 -0.82565516516E+02 -0.17889342847E+03  0.19709750827E+03  0.41800000000E+01 0.  1.
         -5    1    3    3    0  502 -0.20895688185E+02  0.33679279096E+01 -0.40372830852E+03  0.40430433119E+03  0.41800000000E+01 0.  1.
        -11    1    1    2    0    0  0.16393298660E+02 -0.18470429893E+02 -0.14093342833E+03  0.14308084513E+03  0.00000000000E+00 0. -1.
         11    1    1    2    0    0  0.13350404020E+01  0.97668018499E+02 -0.43874754496E+03  0.44948885679E+03  0.00000000000E+00 0.  1.
</event>
<event>
 7    1  0.5109948E-006  0.9530100E+02  0.7561462E-02  0.1290500E+00
          1   -1    0    0  501    0  0.00000000000E+00  0.00000000000E+00  0.23221580288E+03  0.23221580288E+03  0.00000000000E+00 0. -1.
         -1   -1    0    0    0  501 -0.00000000000E+00 -0.00000000000E+00 -0.96128801698E+02  0.96128801698E+02  0.00000000000E+00 0.  1.
         23    2    1    2    0    0 -0.33216421279E+02 -0.61043441397E+02 -0.99675567678E+01  0.14344539215E+03  0.12509035119E+03 0.  0.
          5    1    3    3  502    0 -0.66906272324E+02 -0.54312515704E+02  0.29287185462E+02  0.91112624101E+02  0.41800000000E+01 0. -1.
         -5    1    3    3    0  502  0.33689851045E+02 -0.67309256939E+01 -0.39254742230E+02  0.52332768049E+02  0.41800000000E+01 0. -1.
        -11    1    1    2    0    0  0.16095807930E+02  0.23877751975E+02 -0.42644144850E+01  0.29110261133E+02  0.00000000000E+00 0.  1.
         11    1    1    2    0    0  0.17120613349E+02  0.37165689422E+02  0.15031897243E+03  0.15578895129E+03  0.00000000000E+00 0. -1.
</event>
<event>
 7    1  0.5109948E-006  0.1882820E+03  0.7561462E-02  0.1160020E+00
          2   -1    0    0  501    0  0.00000000000E+00  0.00000000000E+00  0.89341315457E+03  0.89341315457E+03  0.00000000000E+00 0. -1.
         -2   -1    0    0    0  501 -0.00000000000E+00 -0.00000000000E+00 -0.79604685379E+02  0.79604685379E+02  0.00000000000E+00 0.  1.
         23    2    1    2    0    0 -0.16227396245E+03  0.33418809797E+02  0.92562450409E+02  0.22729788710E+03  0.12508743549E+03 0.  0.
          5    1    3    3  502    0 -0.63027031788E+02  0.76442313594E+02  0.49012813196E+02  0.11061447600E+03  0.41800000000E+01 0.  1.
         -5    1    3    3    0  502 -0.99246930665E+02 -0.43023503797E+02  0.43549637214E+02  0.11668341110E+03  0.41800000000E+01 0.  1.
        -11    1    1    2    0    0  0.71137350263E+02  0.25210546146E+01  0.14877542296E+03  0.16492727123E+03  0.00000000000E+00 0.  1.
         11    1    1    2    0    0  0.91136612190E+02 -0.35939864412E+02  0.57247059582E+03  0.58079268161E+03  0.00000000000E+00 0. -1.
</event>
<event>
 7    1  0.5109948E-006  0.1161203E+03  0.7561462E-02  0.1249638E+00
         -1   -1    0    0    0  501 -0.00000000000E+00  0.00000000000E+00  0.21731941870E+02  0.21731941870E+02  0.00000000000E+00 0.  1.
          1   -1    0    0  501    0  0.00000000000E+00 -0.00000000000E+00 -0.69360042273E+03  0.69360042273E+03  0.00000000000E+00 0. -1.
         23    2    1    2    0    0 -0.23721810093E+01 -0.51086372353E+02 -0.30166507337E+03  0.33054887716E+03  0.12508116972E+03 0.  0.
          5    1    3    3  502    0  0.55199610143E+02 -0.41629304184E+02 -0.21588312719E+03  0.22672228151E+03  0.41800000000E+01 0.  1.
         -5    1    3    3    0  502 -0.57571791152E+02 -0.94570681689E+01 -0.85781946185E+02  0.10382659566E+03  0.41800000000E+01 0.  1.
        -11    1    1    2    0    0 -0.21192080662E+02  0.70710734085E+02 -0.27685317579E+03  0.28652537958E+03  0.00000000000E+00 0.  1.
         11    1    1    2    0    0  0.23564261671E+02 -0.19624361732E+02 -0.93350231700E+02  0.98258107859E+02  0.00000000000E+00 0. -1.
</event>
<event>
 7    1  0.5109948E-006  0.1065747E+03  0.7561462E-02  0.1267048E+00
          1   -1    0    0  501    0  0.00000000000E+00  0.00000000000E+00  0.33975915589E+03  0.33975915589E+03  0.00000000000E+00 0. -1.
         -1   -1    0    0    0  501 -0.00000000000E+00 -0.00000000000E+00 -0.78125243210E+02  0.78125243210E+02  0.00000000000E+00 0.  1.
         23    2    1    2    0    0  0.39219235194E+02  0.29846751160E+02  0.43501993084E+01  0.13048205924E+03  0.12073800804E+03 0.  0.
          5    1    3    3  502    0 -0.23330630204E+02  0.43101983409E+02  0.34083952260E+02  0.59843859177E+02  0.41800000000E+01 0. -1.
         -5    1    3    3    0  502  0.62549865398E+02 -0.13255232250E+02 -0.29733752951E+02  0.70638200061E+02  0.41800000000E+01 0.  1.
        -11    1    1    2    0    0  0.89573494846E+01  0.25193348000E+02  0.84520871536E+01  0.28042408429E+02  0.00000000000E+00 0.  1.
         11    1    1    2    0    0 -0.48176584679E+02 -0.55040099160E+02  0.24883162622E+03  0.25935993143E+03  0.00000000000E+00 0. -1.
</event>
<event>
 7    1  0.5109948E-006  0.7185348E+02  0.7561462E-02  0.1353901E+00
         -1   -1    0    0    0  501 -0.00000000000E+00  0.00000000000E+00  0.23102737217E+03  0.23102737217E+03  0.00000000000E+00 0.  1.
          1   -1    0    0  501    0  0.00000000000E+00 -0.00000000000E+00 -0.60520374152E+02  0.60520374152E+02  0.00000000000E+00 0. -1.
         23    2    1    2    0    0 -0.13237911116E+02 -0.27900140280E+02  0.13689839808E+03  0.18800192421E+03  0.12509952834E+03 0.  0.
          5    1    3    3  502    0 -0.23641740318E+02 -0.12165365145E+02 -0.17692018593E+02  0.32208817369E+02  0.41800000000E+01 0. -1.
         -5    1    3    3    0  502  0.10403829202E+02 -0.15734775135E+02  0.15459041668E+03  0.15579310684E+03  0.41800000000E+01 0. -1.
        -11    1    1    2    0    0 -0.31290765263E+02 -0.15824245671E+02  0.72793282721E+01  0.35812111944E+02  0.00000000000E+00 0. -1.
         11    1    1    2    0    0  0.44528676379E+02  0.43724385951E+02  0.26329271658E+02  0.67733710166E+02  0.00000000000E+00 0.  1.
</event>
<event>
 7    1  0.5109948E-006  0.2562678E+03  0.7561462E-02  0.1109407E+00
         -2   -1    0    0    0  501 -0.00000000000E+00  0.00000000000E+00  0.14338416327E+03  0.14338416327E+03  0.00000000000E+00 0.  1.
          2   -1    0    0  501    0  0.00000000000E+00 -0.00000000000E+00 -0.46770066474E+03  0.46770066474E+03  0.00000000000E+00 0. -1.
         23    2    1    2    0    0 -0.14179125942E+03 -0.18568044511E+03 -0.14168169220E+03  0.30050921996E+03  0.12510036145E+03 0.  0.
          5    1    3    3  502    0 -0.15361894247E+03 -0.12087919741E+03 -0.12620773573E+03  0.23271532998E+03  0.41800000000E+01 0. -1.
         -5    1    3    3    0  502  0.11827683051E+02 -0.64801247697E+02 -0.15473956472E+02  0.67793889978E+02  0.41800000000E+01 0. -1.
        -11    1    1    2    0    0  0.11229697361E+03  0.71602293996E+02 -0.90881126194E+02  0.16123547341E+03  0.00000000000E+00 0.  1.
         11    1    1    2    0    0  0.29494285805E+02  0.11407815111E+03 -0.91753683075E+02  0.14934013464E+03  0.00000000000E+00 0. -1.
</event>
<event>
 7    1  0.5109948E-006  0.1085046E+03  0.7561462E-02  0.1263364E+00
          1   -1    0    0  501    0  0.00000000000E+00  0.00000000000E+00  0.43400349915E+03  0.43400349915E+03  0.00000000000E+00 0. -1.
         -1   -1    0    0    0  501 -0.00000000000E+00 -0.00000000000E+00 -0.32103643431E+02  0.32103643431E+02  0.00000000000E+00 0.  1.
         23    2    1    2    0    0  0.98593658434E+01 -0.70960912703E+02  0.24343102106E+03  0.28291296871E+03  0.12509367540E+03 0.  0.
          5    1    3    3  502    0  0.62362199169E+02 -0.37425834213E+02  0.81247760103E+02  0.10912565177E+03  0.41800000000E+01 0. -1.
         -5    1    3    3    0  502 -0.52502833326E+02 -0.33535078490E+02  0.16218326096E+03  0.17378731695E+03  0.41800000000E+01 0. -1.
        -11    1    1    2    0    0  0.15054429389E+02  0.33542471422E+02  0.11471504983E+03  0.12046275727E+03  0.00000000000E+00 0. -1.
         11    1    1    2    0    0 -0.24913795233E+02  0.37418441281E+02  0.43753784831E+02  0.62731416593E+02  0.00000000000E+00 0.  1.
</event>
<event>
 7    1  0.5109948E-006  0.1940833E+03  0.7561462E-02  0.1154829E+00
         -2   -1    0    0    0  501 -0.00000000000E+00  0.00000000000E+00  0.62470086598E+02  0.62470086598E+02  0.00000000000E+00 0.  1.
          2   -1    0    0  501    0  0.00000000000E+00 -0.00000000000E+00 -0.70878736784E+03  0.70878736784E+03  0.00000000000E+00 0. -1.
         23    2    1    2    0    0  0.16367232158E+03 -0.72339995486E+02 -0.36865851434E+03  0.42846166127E+03  0.12509432916E+03 0.  0.
          5    1    3    3  502    0  0.10726894433E+03 -0.97868190031E+02 -0.31315711953E+03  0.34520959278E+03  0.41800000000E+01 0.  1.
         -5    1    3    3    0  502  0.56403377252E+02  0.25528194545E+02 -0.55501394807E+02  0.83252068489E+02  0.41800000000E+01 0.  1.
        -11    1    1    2    0    0 -0.29589045684E+02  0.24730412251E+02 -0.10270523906E+02  0.39907249666E+02  0.00000000000E+00 0.  1.
         11    1    1    2    0    0 -0.13408327589E+03  0.47609583236E+02 -0.26738824300E+03  0.30288854350E+03  0.00000000000E+00 0. -1.
</event>
<event>
 7    1  0.5109948E-006  0.1945129E+03  0.7561462E-02  0.1154453E+00
          1   -1    0    0  501    0  0.00000000000E+00  0.00000000000E+00  0.32215757302E+03  0.32215757302E+03  0.00000000000E+00 0. -1.
         -1   -1    0    0    0  501 -0.00000000000E+00 -0.00000000000E+00 -0.13311007367E+03  0.13311007367E+03  0.00000000000E+00 0.  1.
         23    2    1    2    0    0 -0.12757807953E+03 -0.10835358982E+03  0.25108184824E+02  0.21046566729E+03  0.12509480148E+03 0.  0.
          5    1    3    3  502    0 -0.11921399388E+03 -0.13533152068E+03  0.22400329549E+02  0.18178515888E+03  0.41800000000E+01 0. -1.
         -5    1    3    3    0  502 -0.83640856594E+01  0.26977930860E+02  0.27078552750E+01  0.28680508409E+02  0.41800000000E+01 0. -1.
        -11    1    1    2    0    0  0.69819914315E+02  0.99631706437E+02  0.94429689723E+02  0.15400734938E+03  0.00000000000E+00 0. -1.
         11    1    1    2    0    0  0.57758165220E+02  0.87218833822E+01  0.69509624807E+02  0.90794630018E+02  0.00000000000E+00 0.  1.
</event>
<event>
 7    1  0.5109948E-006  0.9977330E+02  0.7561462E-02  0.1280773E+00
         -1   -1    0    0    0  501 -0.00000000000E+00  0.00000000000E+00  0.63082628774E+02  0.63082628774E+02  0.00000000000E+00 0.  1.
          1   -1    0    0  501    0  0.00000000000E+00 -0.00000000000E+00 -0.22102482093E+03  0.22102482093E+03  0.00000000000E+00 0. -1.
         23    2    1    2    0    0  0.35311194646E+02 -0.29834987210E+02 -0.63710476960E+02  0.14779570337E+03  0.12509012004E+03 0.  0.
          5    1    3    3  502    0 -0.14804679237E+02  0.34710219337E+02  0.82245686908E+01  0.38847056309E+02  0.41800000000E+01 0. -1.
         -5    1    3    3    0  502  0.50115873883E+02 -0.64545206547E+02 -0.71935045651E+02  0.10894864706E+03  0.41800000000E+01 0. -1.
        -11    1    1    2    0    0 -0.42570294870E+02 -0.61803792836E+01 -0.89458235652E+02  0.99263301473E+02  0.00000000000E+00 0. -1.
         11    1    1    2    0    0  0.72591002240E+01  0.36015366493E+02 -0.47734795425E+01  0.37048444861E+02  0.00000000000E+00 0.  1.
</event>
<event>
 7    1  0.5109948E-006  0.1352709E+03  0.7561462E-02  0.1219838E+00
         -1   -1    0    0    0  501 -0.00000000000E+00  0.00000000000E+00  0.22382488331E+03  0.22382488331E+03  0.00000000000E+00 0.  1.
          1   -1    0    0  501    0  0.00000000000E+00 -0.00000000000E+00 -0.10081495034E+03  0.10081495034E+03  0.00000000000E+00 0. -1.
         23    2    1    2    0    0 -0.60271295609E+01  0.10326132285E+03  0.63875987747E+02  0.17443191730E+03  0.12508846820E+03 0.  0.
          5    1    3    3  502    0 -0.52597319981E+02  0.81587162982E+02  0.73720285892E+02  0.12196350349E+03  0.41800000000E+01 0.  1.
         -5    1    3    3    0  502  0.46570190420E+02  0.21674159864E+02 -0.98442981445E+01  0.52468413808E+02  0.41800000000E+01 0.  1.
        -11    1    1    2    0    0  0.35350995107E+02 -0.56692003453E+02  0.66996915464E+02  0.94616398115E+02  0.00000000000E+00 0. -1.
         11    1    1    2    0    0 -0.29323865546E+02 -0.46569319394E+02 -0.78629702410E+01  0.55591518241E+02  0.00000000000E+00 0.  1.
</event>
<event>
 7    1  0.5109948E-006  0.1115861E+03  0.7561462E-02  0.1257660E+00
          1   -1    0    0  501    0  0.00000000000E+00  0.00000000000E+00  0.35451322857E+03  0.35451322857E+03  0.00000000000E+00 0. -1.
         -1   -1    0    0    0  501 -0.00000000000E+00 -0.00000000000E+00 -0.38441655431E+02  0.38441655431E+02  0.00000000000E+00 0.  1.
         23    2    1    2    0    0 -0.27183536551E+02  0.23456757462E+02  0.13441714469E+03  0.18710004314E+03  0.12509713518E+03 0.  0.
          5    1    3    3  502    0 -0.40817498858E+02 -0.42929304942E+02  0.43433940433E+02  0.73572909535E+02  0.41800000000E+01 0.  1.
         -5    1    3    3    0  502  0.13633962307E+02  0.66386062403E+02  0.90983204253E+02  0.11352713361E+03  0.41800000000E+01 0.  1.
        -11    1    1    2    0    0  0.48817435741E+02 -0.44245303929E+02  0.11078055451E+03  0.12889189350E+03  0.00000000000E+00 0.  1.
         11    1    1    2    0    0 -0.21633899190E+02  0.20788546467E+02  0.70873873945E+02  0.76962947361E+02  0.00000000000E+00 0. -1.
</event>
<event>
 7    1  0.5109948E-006  0.9342963E+02  0.7561462E-02  0.1294753E+00
          1   -1    0    0  501    0  0.00000000000E+00  0.00000000000E+00  0.83373694772E+02  0.83373694772E+02  0.00000000000E+00 0. -1.
         -1   -1    0    0    0  501 -0.00000000000E+00 -0.00000000000E+00 -0.39805533798E+03  0.39805533798E+03  0.00000000000E+00 0.  1.
         23    2    1    2    0    0  0.84198646766E+02 -0.56505656085E+01 -0.32346177019E+03  0.35692655429E+03  0.12509079650E+03 0.  0.
          5    1    3    3  502    0  0.13614291752E+02  0.19301604946E+02 -0.25267208481E+03  0.25380810809E+03  0.41800000000E+01 0.  1.
         -5    1    3    3    0  502  0.70584355015E+02 -0.24952170554E+02 -0.70789685388E+02  0.10311844619E+03  0.41800000000E+01 0.  1.
        -11    1    1    2    0    0 -0.41337909921E+02 -0.95279598934E+01  0.48282043700E+02  0.64270993148E+02  0.00000000000E+00 0. -1.
         11    1    1    2    0    0 -0.42860736845E+02  0.15178525502E+02 -0.39501916712E+02  0.60231485315E+02  0.00000000000E+00 0.  1.
</event>
<event>
 7    1  0.5109948E-006  0.1229345E+03  0.7561462E-02  0.1238333E+00
          1   -1    0    0  501    0  0.00000000000E+00  0.00000000000E+00  0.15931537929E+03  0.15931537929E+03  0.00000000000E+00 0. -1.
         -1   -1    0    0    0  501 -0.00000000000E+00 -0.00000000000E+00 -0.15179390534E+03  0.15179390534E+03  0.00000000000E+00 0.  1.
         23    2    1    2    0    0  0.10786476596E+03 -0.25658664301E+02  0.22601833121E+02  0.16867534645E+03  0.12508938744E+03 0.  0.
          5    1    3    3  502    0  0.11465234070E+03 -0.24996280441E+02 -0.25296306973E+02  0.12011389932E+03  0.41800000000E+01 0.  1.
         -5    1    3    3    0  502 -0.67875747319E+01 -0.66238386029E+00  0.47898140094E+02  0.48561447133E+02  0.41800000000E+01 0.  1.
        -11    1    1    2    0    0 -0.68989113975E+02  0.39121270138E+02 -0.45347922949E+02  0.91358665380E+02  0.00000000000E+00 0.  1.
         11    1    1    2    0    0 -0.38875651990E+02 -0.13462605837E+02  0.30267563778E+02  0.51075272790E+02  0.00000000000E+00 0. -1.
</event>
<event>
 7    1  0.5109948E-006  0.1288852E+03  0.7561462E-02  0.1229119E+00
         -1   -1    0    0    0  501 -0.00000000000E+00  0.00000000000E+00  0.15590629693E+03  0.15590629693E+03  0.00000000000E+00 0.  1.
          1   -1    0    0  501    0  0.00000000000E+00 -0.00000000000E+00 -0.12496800255E+03  0.12496800255E+03  0.00000000000E+00 0. -1.
         23    2    1    2    0    0 -0.26072349165E+02  0.80741638565E+02  0.15231740899E+02  0.15191599716E+03  0.12508990636E+03 0.  0.
          5    1    3    3  502    0 -0.45636786818E+02  0.10421192992E+03  0.29989300946E+02  0.11772711336E+03  0.41800000000E+01 0. -1.
         -5    1    3    3    0  502  0.19564437653E+02 -0.23470291353E+02 -0.14757560047E+02  0.34188883800E+02  0.41800000000E+01 0. -1.
        -11    1    1    2    0    0  0.38201258736E+02 -0.90037066708E+02 -0.10760939079E+02  0.98396175537E+02  0.00000000000E+00 0. -1.
         11    1    1    2    0    0 -0.12128909571E+02  0.92954281427E+01  0.26467492560E+02  0.30562126794E+02  0.00000000000E+00 0.  1.
</event>
<event>
 7    1  0.5109948E-006  0.1702213E+03  0.7561462E-02  0.1177617E+00
          1   -1    0    0  501    0  0.00000000000E+00  0.00000000000E+00  0.19655125268E+03  0.19655125268E+03  0.00000000000E+00 0. -1.
         -1   -1    0    0    0  501 -0.00000000000E+00 -0.00000000000E+00 -0.19740182294E+03  0.19740182294E+03  0.00000000000E+00 0.  1.
         23    2    1    2    0    0  0.67844769062E+02  0.13237227402E+03 -0.69741336025E+02  0.20648583246E+03  0.12508882219E+03 0.  0.
          5    1    3    3  502    0  0.96347604231E+02  0.67034265722E+02 -0.66585077661E+02  0.13500925372E+03  0.41800000000E+01 0.  1.
         -5    1    3    3    0  502 -0.28502835169E+02  0.65338008303E+02 -0.31562583642E+01  0.71476578742E+02  0.41800000000E+01 0.  1.
        -11    1    1    2    0    0 -0.58100467314E+02 -0.83317008575E+02 -0.93364265433E+00  0.10157883593E+03  0.00000000000E+00 0.  1.
         11    1    1    2    0    0 -0.97443017480E+01 -0.49055265450E+02  0.69824408419E+02  0.85888407227E+02  0.00000000000E+00 0. -1.
</event>
<event>
 7    1  0.5109948E-006  0.1036198E+03  0.7561462E-02  0.1272863E+00
          2   -1    0    0  501    0  0.00000000000E+00  0.00000000000E+00  0.47647180687E+03  0.47647180687E+03  0.00000000000E+00 0. -1.
         -2   -1    0    0    0  501 -0.00000000000E+00 -0.00000000000E+00 -0.34067462792E+02  0.34067462792E+02  0.00000000000E+00 0.  1.
         23    2    1    2    0    0  0.35222715769E+02 -0.42061990959E+02  0.16553104256E+03  0.21461104593E+03  0.12509006433E+03 0.  0.
          5    1    3    3  502    0  0.45926711529E+02  0.12814939692E+02  0.14848664493E+03  0.15601038950E+03  0.41800000000E+01 0.  1.
         -5    1    3    3    0  502 -0.10703995759E+02 -0.54876930651E+02  0.17044397637E+02  0.58600656427E+02  0.41800000000E+01 0.  1.
        -11    1    1    2    0    0  0.12022074603E+02  0.53388207820E+02  0.12448817629E+03  0.13598579723E+03  0.00000000000E+00 0.  1.
         11    1    1    2    0    0 -0.47244790372E+02 -0.11326216862E+02  0.15238512523E+03  0.15994242651E+03  0.00000000000E+00 0. -1.
</event>
<event>
 7    1  0.5109948E-006  0.1002005E+03  0.7561462E-02  0.1279875E+00
         -1   -1    0    0    0  501 -0.00000000000E+00  0.00000000000E+00  0.43498274658E+02  0.43498274658E+02  0.00000000000E+00 0.  1.
          1   -1    0    0  501    0  0.00000000000E+00 -0.00000000000E+00 -0.32127000858E+03  0.32127000858E+03  0.00000000000E+00 0. -1.
         23    2    1    2    0    0  0.18483689974E+02  0.19226261834E+02 -0.95967821841E+02  0.15989540566E+03  0.12508166125E+03 0.  0.
          5    1    3    3  502    0  0.55967425561E+02  0.44194357546E+02 -0.24892104835E+02  0.75647757706E+02  0.41800000000E+01 0. -1.
         -5    1    3    3    0  502 -0.37483735587E+02 -0.24968095712E+02 -0.71075717007E+02  0.84247647950E+02  0.41800000000E+01 0. -1.
        -11    1    1    2    0    0  0.26669046608E+02 -0.26962276044E+02 -0.36951849277E+02  0.52949424373E+02  0.00000000000E+00 0.  1.
         11    1    1    2    0    0 -0.45152736581E+02  0.77360142094E+01 -0.14485206281E+03  0.15192345321E+03  0.00000000000E+00 0. -1.
</event>
<event>
 7    1  0.5109948E-006  0.7310532E+02  0.7561462E-02  0.1349841E+00
         -2   -1    0    0    0  501 -0.00000000000E+00  0.00000000000E+00  0.11638661848E+03  0.11638661848E+03  0.00000000000E+00 0.  1.
          2   -1    0    0  501    0  0.00000000000E+00 -0.00000000000E+00 -0.15029408418E+03  0.15029408418E+03  0.00000000000E+00 0. -1.
         23    2    1    2    0    0 -0.53196044643E+02  0.55240499249E+01  0.34451786139E+02  0.14033761547E+03  0.12508951377E+03 0.  0.
          5    1    3    3  502    0  0.55348140352E+01 -0.33900991548E+01  0.70370941777E+02  0.70793140807E+02  0.41800000000E+01 0.  1.
         -5    1    3    3    0  502 -0.58730858678E+02  0.89141490796E+01 -0.35919155638E+02  0.69544474666E+02  0.41800000000E+01 0.  1.
        -11    1    1    2    0    0  0.40648492136E+02 -0.30614214238E+02  0.16587563715E+01  0.50914452752E+02  0.00000000000E+00 0.  1.
         11    1    1    2    0    0  0.12547552507E+02  0.25090164313E+02 -0.70018008210E+02  0.75428634436E+02  0.00000000000E+00 0. -1.
</event>
<event>
 7    1  0.5109948E-006  0.1041812E+03  0.7561462E-02  0.1271741E+00
          2   -1    0    0  501    0  0.00000000000E+00  0.00000000000E+00  0.44485791112E+03  0.44485791112E+03  0.00000000000E+00 0. -1.
         -2   -1    0    0    0  501 -0.00000000000E+00 -0.00000000000E+00 -0.31978892654E+02  0.31978892654E+02  0.00000000000E+00 0.  1.
         23    2    1    2    0    0  0.34364900530E+02  0.33573763471E+02  0.21201006552E+03  0.25080631443E+03  0.12508954992E+03 0.  0.
          5    1    3    3  502    0  0.56360055379E+02  0.51280469109E+02  0.20852461513E+03  0.22204983646E+03  0.41800000000E+01 0.  1.
         -5    1    3    3    0  502 -0.21995154848E+02 -0.17706705639E+02  0.34854503842E+01  0.28756477979E+02  0.41800000000E+01 0.  1.
        -11    1    1    2    0    0 -0.42050399027E+02  0.21962145756E+02  0.97846008915E+02  0.10874011847E+03  0.00000000000E+00 0.  1.
         11    1    1    2    0    0  0.76854984961E+01 -0.55535909226E+02  0.10302294404E+03  0.11729037087E+03  0.00000000000E+00 0. -1.
</event>
<event>
 7    1  0.5109948E-006  0.1006408E+03  0.7561462E-02  0.1278954E+00
          1   -1    0    0  501    0  0.00000000000E+00  0.00000000000E+00  0.55312025855E+02  0.55312025855E+02  0.00000000000E+00 0. -1.
         -1   -1    0    0    0  501 -0.00000000000E+00 -0.00000000000E+00 -0.24499410057E+03  0.24499410057E+03  0.00000000000E+00 0.  1.
         23    2    1    2    0    0 -0.44780293305E+02 -0.11095866708E+02 -0.15803025663E+03  0.20675579135E+03  0.12508398105E+03 0.  0.
          5    1    3    3  502    0  0.17416231268E+02 -0.40887772329E+02 -0.11968425577E+03  0.12773773334E+03  0.41800000000E+01 0.  1.
         -5    1    3    3    0  502 -0.62196524574E+02  0.29791905621E+02 -0.38346000861E+02  0.79018058010E+02  0.41800000000E+01 0.  1.
        -11    1    1    2    0    0 -0.63135181270E+01 -0.24488124180E+02 -0.47870778024E+01  0.25738004019E+02  0.00000000000E+00 0. -1.
         11    1    1    2    0    0  0.51093811432E+02  0.35583990888E+02 -0.26864740282E+02  0.67812331066E+02  0.00000000000E+00 0.  1.
</event>
<event>
 7    1  0.1047514E-005  0.3161496E+03  0.7561462E-02  0.1077435E+00
          1   -1    0    0  501    0  0.00000000000E+00  0.00000000000E+00  0.88648702918E+03  0.88648702918E+03  0.00000000000E+00 0. -1.
         -1   -1    0    0    0  501 -0.00000000000E+00 -0.00000000000E+00 -0.11782521249E+03  0.11782521249E+03  0.00000000000E+00 0.  1.
         23    2    1    2    0    0 -0.75726401029E+02  0.28952353631E+03  0.31347558437E+03  0.45107945374E+03  0.12508943083E+03 0.  0.
          5    1    3    3  502    0  0.23411476031E+02  0.15275263372E+03  0.16550126156E+03  0.22647208282E+03  0.41800000000E+01 0. -1.
         -5    1    3    3    0  502 -0.99137877060E+02  0.13677090258E+03  0.14797432280E+03  0.22460737092E+03  0.41800000000E+01 0. -1.
        -11    1    1    2    0    0  0.26036514638E+01 -0.15978744217E+03  0.18289994884E+03  0.24288103459E+03  0.00000000000E+00 0. -1.
         11    1    1    2    0    0  0.73122749566E+02 -0.12973609413E+03  0.27228628349E+03  0.31035175334E+03  0.00000000000E+00 0.  1.
</event>
<event>
 7    1  0.5109948E-006  0.9549838E+02  0.7561462E-02  0.1290058E+00
          1   -1    0    0  501    0  0.00000000000E+00  0.00000000000E+00  0.34284420968E+03  0.34284420968E+03  0.00000000000E+00 0. -1.
         -1   -1    0    0    0  501 -0.00000000000E+00 -0.00000000000E+00 -0.53069330219E+02  0.53069330219E+02  0.00000000000E+00 0.  1.
         23    2    1    2    0    0  0.39415804356E+02 -0.13637771951E+02  0.59884443975E+02  0.14481941339E+03  0.12508765490E+03 0.  0.
          5    1    3    3  502    0 -0.76624788560E+01  0.49770576676E+02  0.36550705545E+02  0.62363854601E+02  0.41800000000E+01 0. -1.
         -5    1    3    3    0  502  0.47078283212E+02 -0.63408348627E+02  0.23333738430E+02  0.82455558787E+02  0.41800000000E+01 0. -1.
        -11    1    1    2    0    0  0.63825034506E+01 -0.84057677695E+01 -0.43404983790E+01  0.11411976528E+02  0.00000000000E+00 0.  1.
         11    1    1    2    0    0 -0.45798307806E+02  0.22043539720E+02  0.23423093387E+03  0.23968214998E+03  0.00000000000E+00 0. -1.
</event>
<event>
 7    1  0.5109948E-006  0.1932420E+03  0.7561462E-02  0.1155569E+00
         -1   -1    0    0    0  501 -0.00000000000E+00  0.00000000000E+00  0.50596059361E+02  0.50596059361E+02  0.00000000000E+00 0.  1.
          1   -1    0    0  501    0  0.00000000000E+00 -0.00000000000E+00 -0.84760058801E+03  0.84760058801E+03  0.00000000000E+00 0. -1.
         23    2    1    2    0    0  0.10312994987E+03  0.14018130680E+03 -0.36038795423E+03  0.41930189860E+03  0.12509204321E+03 0.  0.
          5    1    3    3  502    0  0.12062822354E+03  0.69162412884E+02 -0.20820428925E+03  0.25040188923E+03  0.41800000000E+01 0. -1.
         -5    1    3    3    0  502 -0.17498273671E+02  0.71018893913E+02 -0.15218366499E+03  0.16890000936E+03  0.41800000000E+01 0. -1.
        -11    1    1    2    0    0 -0.51994037876E+02 -0.75109537195E+02 -0.33813079312E+03  0.35025313105E+03  0.00000000000E+00 0. -1.
         11    1    1    2    0    0 -0.51135911993E+02 -0.65071769602E+02 -0.98485781298E+02  0.12864161773E+03  0.00000000000E+00 0.  1.
</event>
<event>
 7    1  0.5109948E-006  0.1064355E+03  0.7561462E-02  0.1267317E+00
          4   -1    0    0  501    0  0.00000000000E+00  0.00000000000E+00  0.40614623503E+02  0.40614623503E+02  0.00000000000E+00 0. -1.
         -4   -1    0    0    0  501 -0.00000000000E+00 -0.00000000000E+00 -0.40403011242E+03  0.40403011242E+03  0.00000000000E+00 0.  1.
         23    2    1    2    0    0 -0.32211097446E+02 -0.21256644665E+02 -0.30550199712E+03  0.33236669278E+03  0.12508696367E+03 0.  0.
          5    1    3    3  502    0  0.41469464922E+02  0.75743193573E+01 -0.17185588155E+03  0.17700000920E+03  0.41800000000E+01 0. -1.
         -5    1    3    3    0  502 -0.73680562368E+02 -0.28830964022E+02 -0.13364611558E+03  0.15536668358E+03  0.41800000000E+01 0. -1.
        -11    1    1    2    0    0 -0.24333093580E+02  0.24643426671E+02 -0.39907795821E+02  0.52839663971E+02  0.00000000000E+00 0.  1.
         11    1    1    2    0    0  0.56544191026E+02 -0.33867820063E+01 -0.18005695970E+02  0.59438379171E+02  0.00000000000E+00 0. -1.
</event>
<event>
 7    1  0.5109948E-006  0.2385329E+03  0.7561462E-02  0.1120774E+00
         -1   -1    0    0    0  501 -0.00000000000E+00  0.00000000000E+00  0.76031020630E+03  0.76031020630E+03  0.00000000000E+00 0.  1.
          1   -1    0    0  501    0  0.00000000000E+00 -0.00000000000E+00 -0.85886375899E+02  0.85886375899E+02  0.00000000000E+00 0. -1.
         23    2    1    2    0    0 -0.18321857429E+03  0.14077563626E+03  0.37662331134E+03  0.45921617788E+03  0.12509018208E+03 0.  0.
          5    1    3    3  502    0 -0.89025270680E+02  0.84546778008E+02  0.30321306575E+03  0.32715331595E+03  0.41800000000E+01 0. -1.
         -5    1    3    3    0  502 -0.94193303609E+02  0.56228858254E+02  0.73410245589E+02  0.13206286194E+03  0.41800000000E+01 0. -1.
        -11    1    1    2    0    0  0.61022022139E+02 -0.97081410290E+02  0.16826409660E+03  0.20362046463E+03  0.00000000000E+00 0.  1.
         11    1    1    2    0    0  0.12219655215E+03 -0.43694225972E+02  0.12953642246E+03  0.18335993969E+03  0.00000000000E+00 0. -1.
</event>
<event>
 7    1  0.5109948E-006  0.1052349E+03  0.7561462E-02  0.1269657E+00
          1   -1    0    0  501    0  0.00000000000E+00  0.00000000000E+00  0.41550949101E+03  0.41550949101E+03  0.00000000000E+00 0. -1.
         -1   -1    0    0    0  501 -0.00000000000E+00 -0.00000000000E+00 -0.33737502723E+02  0.33737502723E+02  0.00000000000E+00 0.  1.
         23    2    1    2    0    0 -0.54357975461E+02  0.33379319054E+02  0.20829944752E+03  0.24408187601E+03  0.11008330447E+03 0.  0.
          5    1    3    3  502    0 -0.75564239237E+02  0.16571711126E+02  0.20148523333E+03  0.21586650391E+03  0.41800000000E+01 0. -1.
         -5    1    3    3    0  502  0.21206263777E+02  0.16807607928E+02  0.68142141903E+01  0.28215372098E+02  0.41800000000E+01 0.  1.
        -11    1    1    2    0    0 -0.48076541224E+01 -0.45054433907E+02  0.48321273002E+02  0.66241686100E+02  0.00000000000E+00 0. -1.
         11    1    1    2    0    0  0.59165629583E+02  0.11675114853E+02  0.12515126776E+03  0.13892343162E+03  0.00000000000E+00 0.  1.
</event>
<event>
 7    1  0.5109948E-006  0.1074025E+03  0.7561462E-02  0.1265457E+00
          3   -1    0    0  501    0  0.00000000000E+00  0.00000000000E+00  0.67266478287E+02  0.67266478287E+02  0.00000000000E+00 0. -1.
         -3   -1    0    0    0  501 -0.00000000000E+00 -0.00000000000E+00 -0.19509459709E+03  0.19509459709E+03  0.00000000000E+00 0.  1.
         23    2    1    2    0    0 -0.14396265771E+02 -0.20701573797E+02 -0.10649617838E+03  0.16621048646E+03  0.12509469283E+03 0.  0.
          5    1    3    3  502    0 -0.60628402720E+02  0.18313310882E+02 -0.73724259990E+02  0.97282678226E+02  0.41800000000E+01 0. -1.
         -5    1    3    3    0  502  0.46232136949E+02 -0.39014884679E+02 -0.32771918389E+02  0.68927808236E+02  0.41800000000E+01 0. -1.
        -11    1    1    2    0    0  0.50779339996E+02  0.48568343817E+01  0.17998201314E+00  0.51011396806E+02  0.00000000000E+00 0. -1.
         11    1    1    2    0    0 -0.36383074225E+02  0.15844739415E+02 -0.21511922437E+02  0.45139192107E+02  0.00000000000E+00 0.  1.
</event>
<event>
 7    1  0.5109948E-006  0.3024025E+03  0.7561462E-02  0.1084046E+00
         -1   -1    0    0    0  501 -0.00000000000E+00  0.00000000000E+00  0.17127630945E+03  0.17127630945E+03  0.00000000000E+00 0.  1.
          1   -1    0    0  501    0  0.00000000000E+00 -0.00000000000E+00 -0.57094071368E+03  0.57094071368E+03  0.00000000000E+00 0. -1.
         23    2    1    2    0    0 -0.12256218257E+03  0.25925171814E+03 -0.13071325249E+03  0.33906666501E+03  0.12508919615E+03 0.  0.
          5    1    3    3  502    0  0.97474694650E+01  0.98275537383E+02 -0.72780776471E+02  0.12275018628E+03  0.41800000000E+01 0.  1.
         -5    1    3    3    0  502 -0.13230965203E+03  0.16097618075E+03 -0.57932476015E+02  0.21631647873E+03  0.41800000000E+01 0.  1.
        -11    1    1    2    0    0  0.10396197394E+03 -0.12762271181E+03 -0.17574302749E+03  0.24079298226E+03  0.00000000000E+00 0. -1.
         11    1    1    2    0    0  0.18600208630E+02 -0.13162900633E+03 -0.93208124257E+02  0.16235737586E+03  0.00000000000E+00 0.  1.
</event>
<event>
 7    1  0.5109948E-006  0.1539973E+03  0.7561462E-02  0.1195645E+00
         -2   -1    0    0    0  501 -0.00000000000E+00  0.00000000000E+00  0.44154179534E+02  0.44154179534E+02  0.00000000000E+00 0. -1.
          2   -1    0    0  501    0  0.00000000000E+00 -0.00000000000E+00 -0.65251891723E+03  0.65251891723E+03  0.00000000000E+00 0.  1.
         23    2    1    2    0    0  0.15836754545E+01  0.12824282483E+03 -0.28042638149E+03  0.33276957032E+03  0.12509157184E+03 0.  0.
          5    1    3    3  502    0  0.38117762803E+02  0.39023889274E+01 -0.23948269650E+02  0.45378238173E+02  0.41800000000E+01 0. -1.
         -5    1    3    3    0  502 -0.36534087349E+02  0.12434043590E+03 -0.25647811184E+03  0.28739133215E+03  0.41800000000E+01 0. -1.
        -11    1    1    2    0    0  0.22589585128E+02 -0.24754828989E+02 -0.17174624218E+03  0.17498532115E+03  0.00000000000E+00 0.  1.
         11    1    1    2    0    0 -0.24173260582E+02 -0.10348799584E+03 -0.15619211401E+03  0.18891820529E+03  0.00000000000E+00 0. -1.
</event>
<event>
 7    1  0.5109948E-006  0.1054700E+03  0.7561462E-02  0.1269196E+00
         -2   -1    0    0    0  501 -0.00000000000E+00  0.00000000000E+00  0.52785819104E+02  0.52785819104E+02  0.00000000000E+00 0. -1.
          2   -1    0    0  501    0  0.00000000000E+00 -0.00000000000E+00 -0.27732035295E+03  0.27732035295E+03  0.00000000000E+00 0.  1.
         23    2    1    2    0    0 -0.55025169020E+02 -0.76354586780E+01 -0.12166779007E+03  0.18313207147E+03  0.12509290549E+03 0.  0.
          5    1    3    3  502    0 -0.76079609291E+01 -0.52719897841E+02 -0.10121736702E+03  0.11445390550E+03  0.41800000000E+01 0.  1.
         -5    1    3    3    0  502 -0.47417208091E+02  0.45084439163E+02 -0.20450423051E+02  0.68678165968E+02  0.41800000000E+01 0.  1.
        -11    1    1    2    0    0  0.57968882495E+02  0.32804313060E+02 -0.36540315346E+02  0.75971764087E+02  0.00000000000E+00 0. -1.
         11    1    1    2    0    0 -0.29437134747E+01 -0.25168854382E+02 -0.66326428426E+02  0.71002336494E+02  0.00000000000E+00 0.  1.
</event>
<event>
 7    1  0.5109948E-006  0.1097967E+03  0.7561462E-02  0.1260947E+00
          1   -1    0    0  501    0  0.00000000000E+00  0.00000000000E+00  0.74194587199E+02  0.74194587199E+02  0.00000000000E+00 0. -1.
         -1   -1    0    0    0  501 -0.00000000000E+00 -0.00000000000E+00 -0.18943160951E+03  0.18943160951E+03  0.00000000000E+00 0.  1.
         23    2    1    2    0    0 -0.42179771378E+02  0.36191369353E+02 -0.74536792140E+02  0.15585997877E+03  0.12509057227E+03 0.  0.
          5    1    3    3  502    0  0.35113761963E+02  0.45627816778E+02 -0.21721763927E+02  0.61678046104E+02  0.41800000000E+01 0. -1.
         -5    1    3    3    0  502 -0.77293533341E+02 -0.94364474251E+01 -0.52815028213E+02  0.94181932670E+02  0.41800000000E+01 0. -1.
        -11    1    1    2    0    0  0.57407769948E+02 -0.17999737847E+02 -0.53761677944E+02  0.80684327031E+02  0.00000000000E+00 0.  1.
         11    1    1    2    0    0 -0.15227998570E+02 -0.18191631506E+02  0.13061447770E+02  0.27081890908E+02  0.00000000000E+00 0. -1.
</event>
<event>
 7    1  0.5109948E-006  0.1576536E+03  0.7561462E-02  0.1191372E+00
          1   -1    0    0  501    0  0.00000000000E+00  0.00000000000E+00  0.85330670115E+02  0.85330670115E+02  0.00000000000E+00 0.  1.
         -1   -1    0    0    0  501 -0.00000000000E+00 -0.00000000000E+00 -0.42077298155E+03  0.42077298155E+03  0.00000000000E+00 0. -1.
         23    2    1    2    0    0 -0.14969263735E+03 -0.32002036282E+02 -0.21997077314E+03  0.29574357045E+03  0.12508038385E+03 0.  0.
          5    1    3    3  502    0 -0.55740701521E+02 -0.16566026266E+02 -0.25540779740E+01  0.58356274269E+02  0.41800000000E+01 0.  1.
         -5    1    3    3    0  502 -0.93951935825E+02 -0.15436010016E+02 -0.21741669516E+03  0.23738729618E+03  0.41800000000E+01 0.  1.
        -11    1    1    2    0    0  0.12578976371E+03  0.53506787141E+01 -0.49468461751E+02  0.13527314266E+03  0.00000000000E+00 0.  1.
         11    1    1    2    0    0  0.23902873632E+02  0.26651357568E+02 -0.66003076543E+02  0.75086938553E+02  0.00000000000E+00 0. -1.
</event>
<event>
 7    1  0.5109948E-006  0.1013865E+03  0.7561462E-02  0.1277407E+00
          2   -1    0    0  501    0  0.00000000000E+00  0.00000000000E+00  0.29515403321E+02  0.29515403321E+02  0.00000000000E+00 0. -1.
         -2   -1    0    0    0  501 -0.00000000000E+00 -0.00000000000E+00 -0.42450565792E+03  0.42450565792E+03  0.00000000000E+00 0.  1.
         23    2    1    2    0    0 -0.71394719563E+01  0.25559858582E+02 -0.24546691130E+03  0.27677800459E+03  0.12509109021E+03 0.  0.
          5    1    3    3  502    0 -0.52872670169E+02  0.34506920993E+02 -0.66486435350E+02  0.91783251919E+02  0.41800000000E+01 0.  1.
         -5    1    3    3    0  502  0.45733198212E+02 -0.89470624109E+01 -0.17898047595E+03  0.18499475267E+03  0.41800000000E+01 0.  1.
        -11    1    1    2    0    0  0.44735082583E+02 -0.31412541181E+02 -0.10719446407E+03  0.12032717267E+03  0.00000000000E+00 0.  1.
         11    1    1    2    0    0 -0.37595610626E+02  0.58526825989E+01 -0.42328879233E+02  0.56915883979E+02  0.00000000000E+00 0. -1.
</event>
<event>
 7    1  0.5109948E-006  0.1111516E+03  0.7561462E-02  0.1258452E+00
          1   -1    0    0  501    0  0.00000000000E+00  0.00000000000E+00  0.12143790136E+03  0.12143790136E+03  0.00000000000E+00 0. -1.
         -1   -1    0    0    0  501 -0.00000000000E+00 -0.00000000000E+00 -0.10677470776E+03  0.10677470776E+03  0.00000000000E+00 0.  1.
         23    2    1    2    0    0  0.14612638326E+02  0.31618052857E+02  0.10320913358E+02  0.13025820336E+03  0.12508975907E+03 0.  0.
          5    1    3    3  502    0 -0.50022818648E+02  0.33393610566E+02  0.22456985193E+02  0.64336647381E+02  0.41800000000E+01 0. -1.
         -5    1    3    3    0  502  0.64635456975E+02 -0.17755577094E+01 -0.12136071836E+02  0.65921555982E+02  0.41800000000E+01 0. -1.
        -11    1    1    2    0    0 -0.12366269877E+02 -0.63785202556E+02  0.81616639431E+01  0.65483505206E+02  0.00000000000E+00 0.  1.
         11    1    1    2    0    0 -0.22463684496E+01  0.32167149699E+02 -0.38193836942E+01  0.32470900554E+02  0.00000000000E+00 0. -1.
</event>
<event>
 7    1  0.5109948E-006  0.8666030E+02  0.7561462E-02  0.1311147E+00
         -2   -1    0    0    0  501 -0.00000000000E+00  0.00000000000E+00  0.11210784989E+03  0.11210784989E+03  0.00000000000E+00 0.  1.
          2   -1    0    0  501    0  0.00000000000E+00 -0.00000000000E+00 -0.11904879443E+03  0.11904879443E+03  0.00000000000E+00 0. -1.
         23    2    1    2    0    0  0.35564745923E+02 -0.22911031645E+02 -0.42274304168E+01  0.13211876619E+03  0.12509088971E+03 0.  0.
          5    1    3    3  502    0  0.14117782128E+02  0.34592853689E+02 -0.44757009625E+02  0.58452028272E+02  0.41800000000E+01 0.  1.
         -5    1    3    3    0  502  0.21446963795E+02 -0.57503885334E+02  0.40529579208E+02  0.73666737917E+02  0.41800000000E+01 0.  1.
        -11    1    1    2    0    0  0.84159554885E+01  0.28645658457E+02  0.31215897772E+02  0.43195304478E+02  0.00000000000E+00 0.  1.
         11    1    1    2    0    0 -0.43980701412E+02 -0.57346268124E+01 -0.33929411893E+02  0.55842573658E+02  0.00000000000E+00 0. -1.
</event>
<event>
 7    1  0.5109948E-006  0.1815111E+03  0.7561462E-02  0.1166349E+00
          1   -1    0    0  501    0  0.00000000000E+00  0.00000000000E+00  0.49647227935E+03  0.49647227935E+03  0.00000000000E+00 0. -1.
         -1   -1    0    0    0  501 -0.00000000000E+00 -0.00000000000E+00 -0.70391811949E+02  0.70391811949E+02  0.00000000000E+00 0.  1.
         23    2    1    2    0    0  0.11955286795E+02 -0.14590003522E+03  0.16602307396E+03  0.25424508420E+03  0.12508857898E+03 0.  0.
          5    1    3    3  502    0  0.63868936954E+02 -0.45985824881E+02  0.81653588191E+02  0.11348443974E+03  0.41800000000E+01 0. -1.
         -5    1    3    3    0  502 -0.51913650159E+02 -0.99914210341E+02  0.84369485769E+02  0.14076064446E+03  0.41800000000E+01 0. -1.
        -11    1    1    2    0    0 -0.42847106765E+02  0.12982319861E+03  0.18656350171E+03  0.23129175867E+03  0.00000000000E+00 0.  1.
         11    1    1    2    0    0  0.30891819970E+02  0.16076836613E+02  0.73493891727E+02  0.81327248433E+02  0.00000000000E+00 0. -1.
</event>
<event>
 7    1  0.5109948E-006  0.1074607E+03  0.7561462E-02  0.1265346E+00
          3   -1    0    0  501    0  0.00000000000E+00  0.00000000000E+00  0.26396244024E+03  0.26396244024E+03  0.00000000000E+00 0. -1.
         -3   -1    0    0    0  501 -0.00000000000E+00 -0.00000000000E+00 -0.54615036250E+02  0.54615036250E+02  0.00000000000E+00 0.  1.
         23    2    1    2    0    0  0.27840126785E+02  0.42361702563E+02  0.12962161092E+03  0.18713323186E+03  0.12508995941E+03 0.  0.
          5    1    3    3  502    0 -0.47089115423E+02 -0.18877708957E-01  0.32968020953E+02  0.57634607253E+02  0.41800000000E+01 0. -1.
         -5    1    3    3    0  502  0.74929242207E+02  0.42380580272E+02  0.96653589969E+02  0.12949862461E+03  0.41800000000E+01 0. -1.
        -11    1    1    2    0    0 -0.48276473230E+02 -0.23672926945E+02  0.87482685398E+02  0.10268517703E+03  0.00000000000E+00 0. -1.
         11    1    1    2    0    0  0.20436346446E+02 -0.18688775618E+02 -0.77568923313E+01  0.28759067593E+02  0.00000000000E+00 0.  1.
</event>
<event>
 7    1  0.5109948E-006  0.6821515E+02  0.7561462E-02  0.1366270E+00
          2   -1    0    0  501    0  0.00000000000E+00  0.00000000000E+00  0.81807464203E+02  0.81807464203E+02  0.00000000000E+00 0. -1.
         -2   -1    0    0    0  501 -0.00000000000E+00 -0.00000000000E+00 -0.18841784435E+03  0.18841784435E+03  0.00000000000E+00 0.  1.
         23    2    1    2    0    0 -0.18877912083E+02 -0.59802457257E+02 -0.66900751689E+02  0.15509761458E+03  0.12508736952E+03 0.  0.
          5    1    3    3  502    0  0.25205600877E+01  0.32526867244E+01 -0.85606135825E+02  0.85806853368E+02  0.41800000000E+01 0.  1.
         -5    1    3    3    0  502 -0.21398472171E+02 -0.63055143981E+02  0.18705384135E+02  0.69290761213E+02  0.41800000000E+01 0.  1.
        -11    1    1    2    0    0  0.17621486312E+02  0.36714373872E+02 -0.67587711345E+02  0.78908559444E+02  0.00000000000E+00 0.  1.
         11    1    1    2    0    0  0.12564257716E+01  0.23088083385E+02  0.27878082891E+02  0.36219134526E+02  0.00000000000E+00 0. -1.
</event>
<event>
 7    1  0.5109948E-006  0.2345584E+03  0.7561462E-02  0.1123472E+00
          1   -1    0    0  501    0  0.00000000000E+00  0.00000000000E+00  0.72092708604E+03  0.72092708604E+03  0.00000000000E+00 0. -1.
         -1   -1    0    0    0  501 -0.00000000000E+00 -0.00000000000E+00 -0.86487028971E+02  0.86487028971E+02  0.00000000000E+00 0.  1.
         23    2    1    2    0    0  0.85075524664E+00 -0.21110148225E+03  0.20139258312E+03  0.31744440993E+03  0.12508965291E+03 0.  0.
          5    1    3    3  502    0  0.50742224407E+02 -0.50635707927E+02  0.92745394134E+02  0.11729419759E+03  0.41800000000E+01 0.  1.
         -5    1    3    3    0  502 -0.49891469160E+02 -0.16046577433E+03  0.10864718899E+03  0.20015021234E+03  0.41800000000E+01 0.  1.
        -11    1    1    2    0    0 -0.32860840070E+02  0.27515718430E+02  0.80326291487E+02  0.91045387993E+02  0.00000000000E+00 0.  1.
         11    1    1    2    0    0  0.32010084823E+02  0.18358576382E+03  0.35272118246E+03  0.39892431709E+03  0.00000000000E+00 0. -1.
</event>
<event>
 7    1  0.5109948E-006  0.1281050E+03  0.7561462E-02  0.1230295E+00
          2   -1    0    0  501    0  0.00000000000E+00  0.00000000000E+00  0.12870398323E+04  0.12870398323E+04  0.00000000000E+00 0. -1.
         -2   -1    0    0    0  501 -0.00000000000E+00 -0.00000000000E+00 -0.15250734541E+02  0.15250734541E+02  0.00000000000E+00 0.  1.
         23    2    1    2    0    0 -0.19655034816E+02  0.86081456577E+02  0.67822478726E+03  0.69529354749E+03  0.12509163669E+03 0.  0.
          5    1    3    3  502    0  0.29514896817E+02 -0.14362663919E+02  0.26953061840E+03  0.27155412334E+03  0.41800000000E+01 0.  1.
         -5    1    3    3    0  502 -0.49169931633E+02  0.10044412050E+03  0.40869416885E+03  0.42373942414E+03  0.41800000000E+01 0.  1.
        -11    1    1    2    0    0 -0.32976173068E+01  0.10983427500E+02  0.10780020174E+02  0.15739084932E+02  0.00000000000E+00 0.  1.
         11    1    1    2    0    0  0.22952652123E+02 -0.97064884077E+02  0.58278429035E+03  0.59125793444E+03  0.00000000000E+00 0. -1.
</event>
<event>
 7    1  0.5109948E-006  0.1666138E+03  0.7561462E-02  0.1181426E+00
         -1   -1    0    0    0  501 -0.00000000000E+00  0.00000000000E+00  0.76362392144E+02  0.76362392144E+02  0.00000000000E+00 0.  1.
          1   -1    0    0  501    0  0.00000000000E+00 -0.00000000000E+00 -0.45012211715E+03  0.45012211715E+03  0.00000000000E+00 0. -1.
         23    2    1    2    0    0 -0.78280211795E+02 -0.10711036918E+03 -0.94970263323E+02  0.20558787622E+03  0.12508637490E+03 0.  0.
          5    1    3    3  502    0 -0.55618091129E+02 -0.13462125625E+03 -0.68625443767E+02  0.16106886300E+03  0.41800000000E+01 0.  1.
         -5    1    3    3    0  502 -0.22662120665E+02  0.27510887069E+02 -0.26344819556E+02  0.44519013217E+02  0.41800000000E+01 0.  1.
        -11    1    1    2    0    0  0.37934172112E+02  0.10452256023E+03 -0.24162036948E+03  0.26597813812E+03  0.00000000000E+00 0.  1.
         11    1    1    2    0    0  0.40346039683E+02  0.25878089561E+01 -0.37169092201E+02  0.54918494957E+02  0.00000000000E+00 0. -1.
</event>
<event>
 7    1  0.5109948E-006  0.1343856E+03  0.7561462E-02  0.1221090E+00
          2   -1    0    0  501    0  0.00000000000E+00  0.00000000000E+00  0.11405407390E+04  0.11405407390E+04  0.00000000000E+00 0. -1.
         -2   -1    0    0    0  501 -0.00000000000E+00 -0.00000000000E+00 -0.22518771930E+02  0.22518771930E+02  0.00000000000E+00 0.  1.
         23    2    1    2    0    0 -0.10885343054E+03  0.29862514070E+02  0.47253073972E+03  0.50167066340E+03  0.12508922992E+03 0.  0.
          5    1    3    3  502    0 -0.24792146795E+02  0.31712152572E+02  0.27934832624E+02  0.49174571042E+02  0.41800000000E+01 0.  1.
         -5    1    3    3    0  502 -0.84061283747E+02 -0.18496385021E+01  0.44459590710E+03  0.45249609235E+03  0.41800000000E+01 0.  1.
        -11    1    1    2    0    0  0.76060604741E+02 -0.62054484563E+02  0.44521370308E+03  0.45590702568E+03  0.00000000000E+00 0. -1.
         11    1    1    2    0    0  0.32792825801E+02  0.32191970494E+02  0.20027752428E+03  0.20548182187E+03  0.00000000000E+00 0.  1.
</event>
<event>
 7    1  0.5109948E-006  0.9441424E+02  0.7561462E-02  0.1292501E+00
          2   -1    0    0  501    0  0.00000000000E+00  0.00000000000E+00  0.15621846133E+03  0.15621846133E+03  0.00000000000E+00 0.  1.
         -2   -1    0    0    0  501 -0.00000000000E+00 -0.00000000000E+00 -0.10687298521E+03  0.10687298521E+03  0.00000000000E+00 0. -1.
         23    2    1    2    0    0  0.34247241772E+02  0.49274953278E+02 -0.92873339347E+01  0.13904517768E+03  0.12508561977E+03 0.  0.
          5    1    3    3  502    0  0.75868534916E+02  0.39768829677E+02  0.18764050918E+02  0.87790411840E+02  0.41800000000E+01 0.  1.
         -5    1    3    3    0  502 -0.41621293144E+02  0.95061236016E+01 -0.28051384853E+02  0.51254765837E+02  0.41800000000E+01 0.  1.
        -11    1    1    2    0    0 -0.25076235132E+02 -0.39306175322E+02  0.83553764301E+02  0.95681892309E+02  0.00000000000E+00 0.  1.
         11    1    1    2    0    0 -0.91710066404E+01 -0.99687779559E+01 -0.24920954244E+02  0.28364376552E+02  0.00000000000E+00 0. -1.
</event>
<event>
 7    1  0.5109948E-006  0.1007044E+03  0.7561462E-02  0.1278822E+00
         -2   -1    0    0    0  501 -0.00000000000E+00  0.00000000000E+00  0.90804329336E+02  0.90804329336E+02  0.00000000000E+00 0. -1.
          2   -1    0    0  501    0  0.00000000000E+00 -0.00000000000E+00 -0.17684906126E+03  0.17684906126E+03  0.00000000000E+00 0.  1.
         23    2    1    2    0    0  0.57769586149E+02  0.30648794358E+02 -0.49244645741E+02  0.14949652479E+03  0.12508997606E+03 0.  0.
          5    1    3    3  502    0  0.55843295226E+02 -0.35680565450E+02  0.59224264123E+00  0.66403309585E+02  0.41800000000E+01 0.  1.
         -5    1    3    3    0  502  0.19262909230E+01  0.66329359808E+02 -0.49836888383E+02  0.83093215204E+02  0.41800000000E+01 0.  1.
        -11    1    1    2    0    0 -0.38455901208E+02 -0.30697274336E+02  0.23723867492E+02  0.54626009173E+02  0.00000000000E+00 0. -1.
         11    1    1    2    0    0 -0.19313684941E+02  0.48479977729E-01 -0.60523953671E+02  0.63530856631E+02  0.00000000000E+00 0.  1.
</event>
<event>
 7    1  0.5109948E-006  0.1290575E+03  0.7561462E-02  0.1228861E+00
          2   -1    0    0  501    0  0.00000000000E+00  0.00000000000E+00  0.56044369285E+03  0.56044369285E+03  0.00000000000E+00 0. -1.
         -2   -1    0    0    0  501 -0.00000000000E+00 -0.00000000000E+00 -0.34551216913E+02  0.34551216913E+02  0.00000000000E+00 0.  1.
         23    2    1    2    0    0 -0.62750509918E+02  0.43742494805E+02  0.20165888733E+03  0.24932857537E+03  0.12508956516E+03 0.  0.
          5    1    3    3  502    0 -0.23610917027E+02 -0.43910718387E+02  0.79099510128E+02  0.93593971465E+02  0.41800000000E+01 0.  1.
         -5    1    3    3    0  502 -0.39139592891E+02  0.87653213191E+02  0.12255937720E+03  0.15573460391E+03  0.41800000000E+01 0.  1.
        -11    1    1    2    0    0  0.27953195831E+02 -0.65322868020E+02  0.14072470061E+03  0.15764485277E+03  0.00000000000E+00 0.  1.
         11    1    1    2    0    0  0.34797314087E+02  0.21580373215E+02  0.18350888800E+03  0.18802148162E+03  0.00000000000E+00 0. -1.
</event>
<event>
 7    1  0.5109948E-006  0.1105035E+03  0.7561462E-02  0.1259640E+00
         -4   -1    0    0    0  501 -0.00000000000E+00  0.00000000000E+00  0.99086073676E+02  0.99086073676E+02  0.00000000000E+00 0.  1.
          4   -1    0    0  501    0  0.00000000000E+00 -0.00000000000E+00 -0.21640202422E+03  0.21640202422E+03  0.00000000000E+00 0. -1.
         23    2    1    2    0    0  0.10111120939E+03  0.23462569291E+02 -0.51954083391E+02  0.17064743050E+03  0.12508936778E+03 0.  0.
          5    1    3    3  502    0  0.34230291626E+02  0.33056690779E+02 -0.83317426589E+02  0.96040218885E+02  0.41800000000E+01 0. -1.
         -5    1    3    3    0  502  0.66880917765E+02 -0.95941214883E+01  0.31363343198E+02  0.74607211613E+02  0.41800000000E+01 0. -1.
        -11    1    1    2    0    0 -0.55441514505E+02 -0.22583502869E+02  0.59437584894E+01  0.60158992656E+02  0.00000000000E+00 0.  1.
         11    1    1    2    0    0 -0.45669694886E+02 -0.87906642159E+00 -0.71305625644E+02  0.84681674742E+02  0.00000000000E+00 0. -1.
</event>
<event>
 7    1  0.5109948E-006  0.1144558E+03  0.7561462E-02  0.1252534E+00
         -2   -1    0    0    0  501 -0.00000000000E+00  0.00000000000E+00  0.62662865679E+02  0.62662865679E+02  0.00000000000E+00 0. -1.
          2   -1    0    0  501    0  0.00000000000E+00 -0.00000000000E+00 -0.27496616968E+03  0.27496616968E+03  0.00000000000E+00 0.  1.
         23    2    1    2    0    0 -0.54992230026E+02 -0.27945652145E+02 -0.64625033317E+02  0.15371466530E+03  0.12508676413E+03 0.  0.
          5    1    3    3  502    0 -0.84480370426E+02  0.95247794217E+01 -0.18217542375E+02  0.87045997384E+02  0.41800000000E+01 0. -1.
         -5    1    3    3    0  502  0.29488140401E+02 -0.37470431567E+02 -0.46407490942E+02  0.66668667916E+02  0.41800000000E+01 0. -1.
        -11    1    1    2    0    0  0.55401989418E+02 -0.11414769831E+02 -0.40035142537E+02  0.69300000287E+02  0.00000000000E+00 0. -1.
         11    1    1    2    0    0 -0.40975939221E+00  0.39360421976E+02 -0.10764312814E+03  0.11461436977E+03  0.00000000000E+00 0.  1.
</event>
<event>
 7    1  0.5109948E-006  0.1738840E+03  0.7561462E-02  0.1173857E+00
          2   -1    0    0  501    0  0.00000000000E+00  0.00000000000E+00  0.70896942799E+02  0.70896942799E+02  0.00000000000E+00 0. -1.
         -2   -1    0    0    0  501 -0.00000000000E+00 -0.00000000000E+00 -0.56774131742E+03  0.56774131742E+03  0.00000000000E+00 0.  1.
         23    2    1    2    0    0 -0.71190009536E+02 -0.15188574427E+03 -0.27765206776E+03  0.34767764626E+03  0.12510706699E+03 0.  0.
          5    1    3    3  502    0 -0.10439485023E+02 -0.27237790018E+02  0.76422066564E+01  0.30442663734E+02  0.41800000000E+01 0.  1.
         -5    1    3    3    0  502 -0.60750524513E+02 -0.12464795425E+03 -0.28529427441E+03  0.31723498253E+03  0.41800000000E+01 0.  1.
        -11    1    1    2    0    0  0.77489004499E+02  0.96176764860E+02 -0.98835045828E+02  0.15818622633E+03  0.00000000000E+00 0.  1.
         11    1    1    2    0    0 -0.62989949634E+01  0.55708979411E+02 -0.12035726104E+03  0.13277438763E+03  0.00000000000E+00 0. -1.
</event>
<event>
 7    1  0.5109948E-006  0.1500233E+03  0.7561462E-02  0.1200444E+00
         -2   -1    0    0    0  501 -0.00000000000E+00  0.00000000000E+00  0.32741339898E+02  0.32741339898E+02  0.00000000000E+00 0. -1.
          2   -1    0    0  501    0  0.00000000000E+00 -0.00000000000E+00 -0.76977148206E+03  0.76977148206E+03  0.00000000000E+00 0.  1.
         23    2    1    2    0    0 -0.10128083607E+03 -0.57093377734E+02 -0.34097761082E+03  0.38135501797E+03  0.12509379327E+03 0.  0.
          5    1    3    3  502    0 -0.49931290661E+01 -0.71027863333E+02 -0.17407434874E+03  0.18812028066E+03  0.41800000000E+01 0.  1.
         -5    1    3    3    0  502 -0.96287707006E+02  0.13934485599E+02 -0.16690326208E+03  0.19323473731E+03  0.41800000000E+01 0.  1.
        -11    1    1    2    0    0  0.79079349790E+02  0.10558975701E+02 -0.15143269712E+03  0.17116336433E+03  0.00000000000E+00 0. -1.
         11    1    1    2    0    0  0.22201486281E+02  0.46534402033E+02 -0.24461983423E+03  0.24999443966E+03  0.00000000000E+00 0.  1.
</event>
<event>
 7    1  0.5109948E-006  0.1780711E+03  0.7561462E-02  0.1169683E+00
         -1   -1    0    0    0  501 -0.00000000000E+00  0.00000000000E+00  0.80362136353E+03  0.80362136353E+03  0.00000000000E+00 0.  1.
          1   -1    0    0  501    0  0.00000000000E+00 -0.00000000000E+00 -0.43357291885E+02  0.43357291885E+02  0.00000000000E+00 0. -1.
         23    2    1    2    0    0  0.49078700985E+01 -0.93344013776E+02  0.43143282849E+03  0.45882348600E+03  0.12509002241E+03 0.  0.
          5    1    3    3  502    0 -0.46469834128E+02 -0.91705791489E+02  0.31763285658E+03  0.33388246683E+03  0.41800000000E+01 0. -1.
         -5    1    3    3    0  502  0.51377704227E+02 -0.16382222875E+01  0.11379997191E+03  0.12494101916E+03  0.41800000000E+01 0. -1.
        -11    1    1    2    0    0 -0.85648439681E+02  0.10999295327E+02  0.18202447206E+03  0.20146847928E+03  0.00000000000E+00 0.  1.
         11    1    1    2    0    0  0.80740569582E+02  0.82344718450E+02  0.14680677110E+03  0.18668669013E+03  0.00000000000E+00 0. -1.
</event>
<event>
 6    1  0.5109948E-006  0.1804822E+03  0.7561462E-02  0.1167337E+00
         -1   -1    0    0    0  501 -0.00000000000E+00  0.00000000000E+00  0.26298639155E+02  0.26298639155E+02  0.00000000000E+00 0.  1.
          1   -1    0    0  501    0  0.00000000000E+00 -0.00000000000E+00 -0.13403028194E+04  0.13403028194E+04  0.00000000000E+00 0. -1.
          5    1    1    2  502    0  0.66006600312E+02  0.63915501313E+01 -0.16469642568E+03  0.17759534969E+03  0.41800000000E+01 0. -1.
         -5    1    1    2    0  502 -0.16127324317E+03  0.77793406503E+01 -0.49631547494E+03  0.52193495779E+03  0.41800000000E+01 0.  1.
        -11    1    1    2    0    0  0.89952964398E+02 -0.45792201592E+02 -0.55059918390E+03  0.55977488586E+03  0.00000000000E+00 0.  1.
         11    1    1    2    0    0  0.53136784619E+01  0.31621310810E+02 -0.10239309568E+03  0.10729626517E+03  0.00000000000E+00 0. -1.
</event>
<event>
 7    1  0.5109948E-006  0.1036607E+03  0.7561462E-02  0.1272781E+00
         -2   -1    0    0    0  501 -0.00000000000E+00  0.00000000000E+00  0.20869233992E+03  0.20869233992E+03  0.00000000000E+00 0.  1.
          2   -1    0    0  501    0  0.00000000000E+00 -0.00000000000E+00 -0.86863684734E+02  0.86863684734E+02  0.00000000000E+00 0. -1.
         23    2    1    2    0    0 -0.27976529188E+02  0.27979034451E+02  0.14292867609E+03  0.19397924939E+03  0.12503531577E+03 0.  0.
          5    1    3    3  502    0 -0.68250644440E+02  0.49047834324E+01  0.36212487151E+02  0.77530793835E+02  0.41800000000E+01 0. -1.
         -5    1    3    3    0  502  0.40274115252E+02  0.23074251018E+02  0.10671618894E+03  0.11644845555E+03  0.41800000000E+01 0. -1.
        -11    1    1    2    0    0  0.94941645876E+01 -0.56984539076E+02  0.55930591681E+01  0.58040151325E+02  0.00000000000E+00 0.  1.
         11    1    1    2    0    0  0.18482364600E+02  0.29005504626E+02 -0.26693080076E+02  0.43536623936E+02  0.00000000000E+00 0. -1.
</event>
<event>
 7    1  0.5109948E-006  0.1191013E+03  0.7561462E-02  0.1244587E+00
          2   -1    0    0  501    0  0.00000000000E+00  0.00000000000E+00  0.88010154500E+03  0.88010154500E+03  0.00000000000E+00 0. -1.
         -2   -1    0    0    0  501 -0.00000000000E+00 -0.00000000000E+00 -0.22780645919E+02  0.22780645919E+02  0.00000000000E+00 0.  1.
         23    2    1    2    0    0  0.43697477293E+02 -0.47946917285E+02  0.25989975365E+03  0.29563894899E+03  0.12508449070E+03 0.  0.
          5    1    3    3  502    0  0.81784835153E+02 -0.29847586268E+02  0.11276721696E+03  0.14252563029E+03  0.41800000000E+01 0.  1.
         -5    1    3    3    0  502 -0.38087357860E+02 -0.18099331017E+02  0.14713253668E+03  0.15311331870E+03  0.41800000000E+01 0.  1.
        -11    1    1    2    0    0  0.26789111840E+02  0.98526862423E+01  0.14514052954E+03  0.14792060456E+03  0.00000000000E+00 0.  1.
         11    1    1    2    0    0 -0.70486589133E+02  0.38094231043E+02  0.45228061589E+03  0.45932263737E+03  0.00000000000E+00 0. -1.
</event>
<event>
 6    1  0.5109948E-006  0.2164789E+03  0.7561462E-02  0.1136536E+00
          1   -1    0    0  501    0  0.00000000000E+00  0.00000000000E+00  0.22650300872E+04  0.22650300872E+04  0.00000000000E+00 0. -1.
         -1   -1    0    0    0  501 -0.00000000000E+00 -0.00000000000E+00 -0.36081355517E+02  0.36081355517E+02  0.00000000000E+00 0.  1.
          5    1    1    2  502    0 -0.16319831072E+03  0.90589749951E+02  0.15930777079E+04  0.16039807503E+04  0.41800000000E+01 0. -1.
         -5    1    1    2    0  502 -0.19954914905E+02 -0.37654106789E+02  0.22479695333E+02  0.48361549698E+02  0.41800000000E+01 0.  1.
        -11    1    1    2    0    0  0.11945333347E+03 -0.68720276272E+02  0.49001160031E+03  0.50902155523E+03  0.00000000000E+00 0.  1.
         11    1    1    2    0    0  0.63699892156E+02  0.15784633110E+02  0.12337972814E+03  0.13974758753E+03  0.00000000000E+00 0. -1.
</event>
<event>
 7    1  0.5109948E-006  0.1032773E+03  0.7561462E-02  0.1273551E+00
          1   -1    0    0  501    0  0.00000000000E+00  0.00000000000E+00  0.23061244656E+02  0.23061244656E+02  0.00000000000E+00 0. -1.
         -1   -1    0    0    0  501 -0.00000000000E+00 -0.00000000000E+00 -0.54670091978E+03  0.54670091978E+03  0.00000000000E+00 0.  1.
         23    2    1    2    0    0  0.41947134100E+01 -0.30019375519E+02 -0.32793385495E+03  0.35228917387E+03  0.12509312642E+03 0.  0.
          5    1    3    3  502    0  0.33453982894E+02  0.39534414737E+02 -0.15757284227E+03  0.16591808804E+03  0.41800000000E+01 0. -1.
         -5    1    3    3    0  502 -0.29259269484E+02 -0.69553790257E+02 -0.17036101268E+03  0.18637108582E+03  0.41800000000E+01 0. -1.
        -11    1    1    2    0    0  0.24504677875E+02 -0.12668173357E+02 -0.19161021243E+02  0.33587298031E+02  0.00000000000E+00 0. -1.
         11    1    1    2    0    0 -0.28699391285E+02  0.42687548876E+02 -0.17654479893E+03  0.18388569254E+03  0.00000000000E+00 0.  1.
</event>
<event>
 7    1  0.5109948E-006  0.1458649E+03  0.7561462E-02  0.1205648E+00
          2   -1    0    0  501    0  0.00000000000E+00  0.00000000000E+00  0.61878834153E+03  0.61878834153E+03  0.00000000000E+00 0. -1.
         -2   -1    0    0    0  501 -0.00000000000E+00 -0.00000000000E+00 -0.51703275347E+02  0.51703275347E+02  0.00000000000E+00 0.  1.
         23    2    1    2    0    0 -0.37208429880E+02 -0.12821522964E+03  0.38955800914E+03  0.43037950554E+03  0.12508982349E+03 0.  0.
          5    1    3    3  502    0 -0.37944816401E+02 -0.16530113433E+02  0.23800947582E+02  0.47927145206E+02  0.41800000000E+01 0. -1.
         -5    1    3    3    0  502  0.73638652108E+00 -0.11168511621E+03  0.36575706156E+03  0.38245236033E+03  0.41800000000E+01 0. -1.
        -11    1    1    2    0    0  0.99636275521E+01  0.94468814626E+02  0.17186816469E+03  0.19637285160E+03  0.00000000000E+00 0. -1.
         11    1    1    2    0    0  0.27244802328E+02  0.33746415014E+02  0.56588923605E+01  0.43739259743E+02  0.00000000000E+00 0.  1.
</event>
<event>
 7    1  0.5109948E-006  0.1048741E+03  0.7561462E-02  0.1270368E+00
         -2   -1    0    0    0  501 -0.00000000000E+00  0.00000000000E+00  0.34408118264E+03  0.34408118264E+03  0.00000000000E+00 0. -1.
          2   -1    0    0  501    0  0.00000000000E+00 -0.00000000000E+00 -0.48931781962E+02  0.48931781962E+02  0.00000000000E+00 0.  1.
         23    2    1    2    0    0  0.18815700312E+02 -0.40990754473E+02  0.24081131254E+03  0.27508530756E+03  0.12509023006E+03 0.  0.
          5    1    3    3  502    0  0.58383631118E+02 -0.21898492263E+01  0.52206746405E+02  0.78463116127E+02  0.41800000000E+01 0.  1.
         -5    1    3    3    0  502 -0.39567930806E+02 -0.38800905246E+02  0.18860456614E+03  0.19662219144E+03  0.41800000000E+01 0.  1.
        -11    1    1    2    0    0 -0.40173523422E+02  0.56412571667E+02  0.15451639190E+02  0.70958039572E+02  0.00000000000E+00 0.  1.
         11    1    1    2    0    0  0.21357823110E+02 -0.15421817195E+02  0.38886448941E+02  0.46969617465E+02  0.00000000000E+00 0. -1.
</event>
<event>
 7    1  0.5109948E-006  0.1289477E+03  0.7561462E-02  0.1229026E+00
          1   -1    0    0  501    0  0.00000000000E+00  0.00000000000E+00  0.70001362328E+02  0.70001362328E+02  0.00000000000E+00 0. -1.
         -1   -1    0    0    0  501 -0.00000000000E+00 -0.00000000000E+00 -0.34062327173E+03  0.34062327173E+03  0.00000000000E+00 0.  1.
         23    2    1    2    0    0  0.11198141413E+02  0.86920586904E+02 -0.23317229733E+03  0.27874242578E+03  0.12508969937E+03 0.  0.
          5    1    3    3  502    0 -0.26379613534E+01  0.11315663376E+03 -0.13562811715E+03  0.17670269145E+03  0.41800000000E+01 0.  1.
         -5    1    3    3    0  502  0.13836102766E+02 -0.26236046861E+02 -0.97544180177E+02  0.10203973432E+03  0.41800000000E+01 0.  1.
        -11    1    1    2    0    0 -0.39240975996E+02 -0.24538862770E+02  0.11604611850E+02  0.47714536562E+02  0.00000000000E+00 0. -1.
         11    1    1    2    0    0  0.28042834584E+02 -0.62381724134E+02 -0.49054223925E+02  0.84167671718E+02  0.00000000000E+00 0.  1.
</event>
<event>
 7    1  0.5109948E-006  0.9323764E+02  0.7561462E-02  0.1295195E+00
          2   -1    0    0  501    0  0.00000000000E+00  0.00000000000E+00  0.63231926102E+02  0.63231926102E+02  0.00000000000E+00 0. -1.
         -2   -1    0    0    0  501 -0.00000000000E+00 -0.00000000000E+00 -0.37393574020E+03  0.37393574020E+03  0.00000000000E+00 0.  1.
         23    2    1    2    0    0  0.17833510514E+02 -0.40080848425E+02 -0.30533523969E+03  0.33286819897E+03  0.12508845183E+03 0.  0.
          5    1    3    3  502    0 -0.37728532689E+02 -0.49078814019E+02 -0.23299536034E+03  0.24111508146E+03  0.41800000000E+01 0. -1.
         -5    1    3    3    0  502  0.55562043203E+02  0.89979655945E+01 -0.72339879344E+02  0.91753117513E+02  0.41800000000E+01 0. -1.
        -11    1    1    2    0    0 -0.19342827441E+02 -0.72330071343E+01  0.35954163261E+02  0.41462793217E+02  0.00000000000E+00 0. -1.
         11    1    1    2    0    0  0.15093169267E+01  0.47313855559E+02 -0.41322737673E+02  0.62836674119E+02  0.00000000000E+00 0.  1.
</event>
<event>
 7    1  0.5109948E-006  0.3117669E+03  0.7561462E-02  0.1079502E+00
          1   -1    0    0  501    0  0.00000000000E+00  0.00000000000E+00  0.22973546439E+04  0.22973546439E+04  0.00000000000E+00 0. -1.
         -1   -1    0    0    0  501 -0.00000000000E+00 -0.00000000000E+00 -0.48502443677E+02  0.48502443677E+02  0.00000000000E+00 0.  1.
         23    2    1    2    0    0 -0.17429706905E+03 -0.24046844129E+03  0.75917206253E+03  0.82473874485E+03  0.12508891714E+03 0.  0.
          5    1    3    3  502    0 -0.14236557434E+03 -0.92021230974E+02  0.37149344450E+03  0.40836345994E+03  0.41800000000E+01 0.  1.
         -5    1    3    3    0  502 -0.31931494711E+02 -0.14844721032E+03  0.38767861803E+03  0.41637528491E+03  0.41800000000E+01 0.  1.
        -11    1    1    2    0    0 -0.23400219934E+00  0.24000877604E+02  0.59520958072E+02  0.64178199824E+02  0.00000000000E+00 0. -1.
         11    1    1    2    0    0  0.17453107125E+03  0.21646756369E+03  0.14301591796E+04  0.14569401429E+04  0.00000000000E+00 0.  1.
</event>
<event>
 7    1  0.5109948E-006  0.1799269E+03  0.7561462E-02  0.1167874E+00
         -2   -1    0    0    0  501 -0.00000000000E+00  0.00000000000E+00  0.19038340694E+03  0.19038340694E+03  0.00000000000E+00 0.  1.
          2   -1    0    0  501    0  0.00000000000E+00 -0.00000000000E+00 -0.27867785815E+03  0.27867785815E+03  0.00000000000E+00 0. -1.
         23    2    1    2    0    0 -0.15847297183E+03  0.45036656503E+02  0.73974535458E+02  0.21968542605E+03  0.12508985287E+03 0.  0.
          5    1    3    3  502    0 -0.86701071689E+02  0.92740132666E+00  0.99035765962E+02  0.13169468951E+03  0.41800000000E+01 0. -1.
         -5    1    3    3    0  502 -0.71771900140E+02  0.44109255176E+02 -0.25061230504E+02  0.87990736537E+02  0.41800000000E+01 0. -1.
        -11    1    1    2    0    0  0.12855043191E+03  0.69277369338E+01 -0.10081595659E+03  0.16351472162E+03  0.00000000000E+00 0. -1.
         11    1    1    2    0    0  0.29922539923E+02 -0.51964393437E+02 -0.61453030078E+02  0.85861117431E+02  0.00000000000E+00 0.  1.
</event>
<event>
 7    1  0.5109948E-006  0.1649017E+03  0.7561462E-02  0.1183271E+00
          1   -1    0    0  501    0  0.00000000000E+00  0.00000000000E+00  0.71167978572E+03  0.71167978572E+03  0.00000000000E+00 0. -1.
         -1   -1    0    0    0  501 -0.00000000000E+00 -0.00000000000E+00 -0.50167696305E+02  0.50167696305E+02  0.00000000000E+00 0.  1.
         23    2    1    2    0    0  0.13287917928E+03 -0.50503079286E+02  0.22894194199E+03  0.29710075401E+03  0.12508800074E+03 0.  0.
          5    1    3    3  502    0  0.14444194312E+03 -0.39957843489E+02  0.23586820328E+03  0.27948414250E+03  0.41800000000E+01 0.  1.
         -5    1    3    3    0  502 -0.11562763842E+02 -0.10545235797E+02 -0.69262612917E+01  0.17616611512E+02  0.41800000000E+01 0.  1.
        -11    1    1    2    0    0 -0.47897391671E+02 -0.21305505199E+02  0.85613908218E+02  0.10038837563E+03  0.00000000000E+00 0. -1.
         11    1    1    2    0    0 -0.84981787607E+02  0.71808584485E+02  0.34695623921E+03  0.36435835239E+03  0.00000000000E+00 0.  1.
</event>
<event>
 7    1  0.5109948E-006  0.1012291E+03  0.7561462E-02  0.1277732E+00
          2   -1    0    0  501    0  0.00000000000E+00  0.00000000000E+00  0.25094360294E+03  0.25094360294E+03  0.00000000000E+00 0.  1.
         -2   -1    0    0    0  501 -0.00000000000E+00 -0.00000000000E+00 -0.97590358554E+02  0.97590358554E+02  0.00000000000E+00 0. -1.
         23    2    1    2    0    0  0.82664417011E+02  0.29100968753E+02  0.45498483680E+01  0.15280460183E+03  0.12509305736E+03 0.  0.
          5    1    3    3  502    0  0.74081261498E+02 -0.93963309118E+01  0.51901439530E+02  0.91036015758E+02  0.41800000000E+01 0. -1.
         -5    1    3    3    0  502  0.85831555125E+01  0.38497299665E+02 -0.47351591162E+02  0.61768586074E+02  0.41800000000E+01 0. -1.
        -11    1    1    2    0    0 -0.48552976490E+02 -0.21251271624E+02  0.11763532070E+02  0.54289858707E+02  0.00000000000E+00 0.  1.
         11    1    1    2    0    0 -0.34111440520E+02 -0.78496971285E+01  0.13703986394E+03  0.14143950095E+03  0.00000000000E+00 0. -1.
</event>
<event>
 7    1  0.5109948E-006  0.9547756E+02  0.7561462E-02  0.1290104E+00
          3   -1    0    0  501    0  0.00000000000E+00  0.00000000000E+00  0.29607519841E+03  0.29607519841E+03  0.00000000000E+00 0. -1.
         -3   -1    0    0    0  501 -0.00000000000E+00 -0.00000000000E+00 -0.61533528381E+02  0.61533528381E+02  0.00000000000E+00 0.  1.
         23    2    1    2    0    0  0.69131107600E+02 -0.23569674040E+02  0.83699458039E+02  0.16729564190E+03  0.12509033915E+03 0.  0.
          5    1    3    3  502    0 -0.20075689066E+01  0.17337389851E+02 -0.25161088595E+02  0.30905795557E+02  0.41800000000E+01 0.  1.
         -5    1    3    3    0  502  0.71138676506E+02 -0.40907063890E+02  0.10886054663E+03  0.13638984634E+03  0.41800000000E+01 0.  1.
        -11    1    1    2    0    0 -0.33629225777E+02  0.39544079338E+02  0.23186318390E+02  0.56853006935E+02  0.00000000000E+00 0.  1.
         11    1    1    2    0    0 -0.35501881822E+02 -0.15974405298E+02  0.12765589360E+03  0.13346007795E+03  0.00000000000E+00 0. -1.
</event>
<event>
 7    1  0.5109948E-006  0.1360297E+03  0.7561462E-02  0.1218773E+00
          2   -1    0    0  501    0  0.00000000000E+00  0.00000000000E+00  0.39084599853E+03  0.39084599853E+03  0.00000000000E+00 0.  1.
         -2   -1    0    0    0  501 -0.00000000000E+00 -0.00000000000E+00 -0.11648847420E+03  0.11648847420E+03  0.00000000000E+00 0. -1.
         23    2    1    2    0    0  0.29436383262E+02 -0.12001338516E+03 -0.18327296951E+02  0.17678359360E+03  0.12508731300E+03 0.  0.
          5    1    3    3  502    0 -0.18757475518E+02 -0.88021576629E+02  0.36279216889E+02  0.97125150286E+02  0.41800000000E+01 0. -1.
         -5    1    3    3    0  502  0.48193858780E+02 -0.31991808535E+02 -0.54606513840E+02  0.79658443314E+02  0.41800000000E+01 0. -1.
        -11    1    1    2    0    0 -0.26816254955E+02  0.91896750542E+02  0.28591068355E+03  0.30151126555E+03  0.00000000000E+00 0.  1.
         11    1    1    2    0    0 -0.26201283071E+01  0.28116634622E+02  0.67741377298E+01  0.29039613579E+02  0.00000000000E+00 0. -1.
</event>
<event>
 7    1  0.5109948E-006  0.8535254E+02  0.7561462E-02  0.1314513E+00
         -1   -1    0    0    0  501 -0.00000000000E+00  0.00000000000E+00  0.31484532395E+03  0.31484532395E+03  0.00000000000E+00 0.  1.
          1   -1    0    0  501    0  0.00000000000E+00 -0.00000000000E+00 -0.28600710947E+02  0.28600710947E+02  0.00000000000E+00 0. -1.
         23    2    1    2    0    0  0.64692213891E+01 -0.93663764776E+01  0.20785314164E+03  0.24285647730E+03  0.12508701068E+03 0.  0.
          5    1    3    3  502    0  0.40353839419E+02 -0.44842252475E+02  0.53154703187E+02  0.80511830396E+02  0.41800000000E+01 0. -1.
         -5    1    3    3    0  502 -0.33884618029E+02  0.35475875998E+02  0.15469843845E+03  0.16234464690E+03  0.41800000000E+01 0. -1.
        -11    1    1    2    0    0  0.52296050139E+01 -0.24560432710E+02  0.20224482122E+02  0.32242724770E+02  0.00000000000E+00 0.  1.
         11    1    1    2    0    0 -0.11698826403E+02  0.33926809187E+02  0.58166989241E+02  0.68346832832E+02  0.00000000000E+00 0. -1.
</event>
<event>
 7    1  0.5109948E-006  0.9710977E+02  0.7561462E-02  0.1286494E+00
          2   -1    0    0  501    0  0.00000000000E+00  0.00000000000E+00  0.36519123778E+03  0.36519123778E+03  0.00000000000E+00 0. -1.
         -2   -1    0    0    0  501 -0.00000000000E+00 -0.00000000000E+00 -0.35212970438E+02  0.35212970438E+02  0.00000000000E+00 0.  1.
         23    2    1    2    0    0 -0.16618789475E+01 -0.35697409088E+02  0.18132638995E+03  0.22316259764E+03  0.12508084759E+03 0.  0.
          5    1    3    3  502    0  0.18001232126E+02  0.28675538988E+02  0.51261830220E+01  0.34497551314E+02  0.41800000000E+01 0. -1.
         -5    1    3    3    0  502 -0.19663111073E+02 -0.64372948077E+02  0.17620020693E+03  0.18866504632E+03  0.41800000000E+01 0. -1.
        -11    1    1    2    0    0  0.28708579842E+02  0.53198932371E+02  0.71474538085E+02  0.93610461789E+02  0.00000000000E+00 0.  1.
         11    1    1    2    0    0 -0.27046700894E+02 -0.17501523282E+02  0.77177339307E+02  0.83631148797E+02  0.00000000000E+00 0. -1.
</event>
<event>
 7    1  0.5109948E-006  0.1707493E+03  0.7561462E-02  0.1177069E+00
         -1   -1    0    0    0  501 -0.00000000000E+00  0.00000000000E+00  0.57840726015E+03  0.57840726015E+03  0.00000000000E+00 0.  1.
          1   -1    0    0  501    0  0.00000000000E+00 -0.00000000000E+00 -0.66285576557E+02  0.66285576557E+02  0.00000000000E+00 0. -1.
         23    2    1    2    0    0 -0.24026409585E+02 -0.14633077825E+03  0.37740086057E+03  0.42434696579E+03  0.12509585442E+03 0.  0.
          5    1    3    3  502    0 -0.49127569279E+02 -0.45340108740E+02  0.25491896061E+03  0.26357236654E+03  0.41800000000E+01 0.  1.
         -5    1    3    3    0  502  0.25101159694E+02 -0.10099066951E+03  0.12248189996E+03  0.16077459925E+03  0.41800000000E+01 0.  1.
        -11    1    1    2    0    0  0.49829945987E+02  0.13145826262E+03  0.12729068739E+03  0.18965025026E+03  0.00000000000E+00 0.  1.
         11    1    1    2    0    0 -0.25803536402E+02  0.14872515635E+02  0.74301356276E+01  0.30695620658E+02  0.00000000000E+00 0. -1.
</event>
<event>
 7    1  0.5109948E-006  0.1123823E+03  0.7561462E-02  0.1256221E+00
          2   -1    0    0  501    0  0.00000000000E+00  0.00000000000E+00  0.61710716189E+03  0.61710716189E+03  0.00000000000E+00 0.  1.
         -2   -1    0    0    0  501 -0.00000000000E+00 -0.00000000000E+00 -0.31933317818E+02  0.31933317818E+02  0.00000000000E+00 0. -1.
         23    2    1    2    0    0 -0.62120606825E+02 -0.25877911519E+02  0.18774301713E+03  0.23542184958E+03  0.12508945073E+03 0.  0.
          5    1    3    3  502    0  0.95936171726E+01 -0.37395180220E+02  0.14698845635E+03  0.15203129840E+03  0.41800000000E+01 0.  1.
         -5    1    3    3    0  502 -0.71714223997E+02  0.11517268701E+02  0.40754560779E+02  0.83390551180E+02  0.41800000000E+01 0.  1.
        -11    1    1    2    0    0  0.56987470539E+02  0.57610623003E+02  0.31164198201E+03  0.32200509411E+03  0.00000000000E+00 0.  1.
         11    1    1    2    0    0  0.51331362853E+01 -0.31732711484E+02  0.85788844930E+02  0.91613536012E+02  0.00000000000E+00 0. -1.
</event>
<event>
 7    1  0.5109948E-006  0.7792961E+02  0.7561462E-02  0.1335032E+00
          1   -1    0    0  501    0  0.00000000000E+00  0.00000000000E+00  0.14121018240E+03  0.14121018240E+03  0.00000000000E+00 0. -1.
         -1   -1    0    0    0  501 -0.00000000000E+00 -0.00000000000E+00 -0.87790454638E+02  0.87790454638E+02  0.00000000000E+00 0.  1.
         23    2    1    2    0    0 -0.39707838337E+01 -0.84196119438E+01  0.93296336996E+01  0.12578081777E+03  0.12508842898E+03 0.  0.
          5    1    3    3  502    0 -0.13321772266E+02 -0.64575800315E+02  0.16908272060E+02  0.68197255565E+02  0.41800000000E+01 0.  1.
         -5    1    3    3    0  502  0.93509884320E+01  0.56156188371E+02 -0.75786383608E+01  0.57583562207E+02  0.41800000000E+01 0.  1.
        -11    1    1    2    0    0  0.15960054257E+02  0.12253299097E+02  0.70847598151E+02  0.73649499892E+02  0.00000000000E+00 0. -1.
         11    1    1    2    0    0 -0.11989270423E+02 -0.38336871535E+01 -0.26757504092E+02  0.29570319371E+02  0.00000000000E+00 0.  1.
</event>
<event>
 7    1  0.5109948E-006  0.1308334E+03  0.7561462E-02  0.1226224E+00
          1   -1    0    0  501    0  0.00000000000E+00  0.00000000000E+00  0.87749824980E+02  0.87749824980E+02  0.00000000000E+00 0. -1.
         -1   -1    0    0    0  501 -0.00000000000E+00 -0.00000000000E+00 -0.49227262937E+03  0.49227262937E+03  0.00000000000E+00 0.  1.
         23    2    1    2    0    0  0.95273595272E+02 -0.29264089638E+02 -0.41388532144E+03  0.44370706568E+03  0.12506580638E+03 0.  0.
          5    1    3    3  502    0  0.20997061776E+02  0.42613888458E+02 -0.20673277984E+03  0.21216204834E+03  0.41800000000E+01 0.  1.
         -5    1    3    3    0  502  0.74276533497E+02 -0.71877978096E+02 -0.20715254160E+03  0.23154501734E+03  0.41800000000E+01 0.  1.
        -11    1    1    2    0    0 -0.14006618314E+02 -0.12843805125E+02  0.36241758949E+02  0.40922045140E+02  0.00000000000E+00 0. -1.
         11    1    1    2    0    0 -0.81266976958E+02  0.42107894762E+02 -0.26879241893E+02  0.95393343531E+02  0.00000000000E+00 0.  1.
</event>
<event>
 7    1  0.5109948E-006  0.6954331E+02  0.7561462E-02  0.1361653E+00
         -1   -1    0    0    0  501 -0.00000000000E+00  0.00000000000E+00  0.11743446143E+03  0.11743446143E+03  0.00000000000E+00 0.  1.
          1   -1    0    0  501    0  0.00000000000E+00 -0.00000000000E+00 -0.13298394642E+03  0.13298394642E+03  0.00000000000E+00 0. -1.
         23    2    1    2    0    0 -0.21674146710E+02  0.16149830702E+02  0.48397718062E+02  0.13682658410E+03  0.12509432176E+03 0.  0.
          5    1    3    3  502    0 -0.52380033533E+02 -0.22794935574E+02 -0.12044476627E+02  0.58530494769E+02  0.41800000000E+01 0. -1.
         -5    1    3    3    0  502  0.30705886823E+02  0.38944766276E+02  0.60442194689E+02  0.78296089332E+02  0.41800000000E+01 0. -1.
        -11    1    1    2    0    0  0.15530514059E+02 -0.85213258932E+00  0.21518216078E+02  0.26551019191E+02  0.00000000000E+00 0.  1.
         11    1    1    2    0    0  0.61436326511E+01 -0.15297698113E+02 -0.85465419137E+02  0.87040804557E+02  0.00000000000E+00 0. -1.
</event>
<event>
 6    1  0.5109948E-006  0.1404140E+03  0.7561462E-02  0.1212773E+00
          1   -1    0    0  501    0  0.00000000000E+00  0.00000000000E+00  0.71697062137E+03  0.71697062137E+03  0.00000000000E+00 0. -1.
         -1   -1    0    0    0  501 -0.00000000000E+00 -0.00000000000E+00 -0.71022484992E+02  0.71022484992E+02  0.00000000000E+00 0.  1.
          5    1    1    2  502    0 -0.17706935782E+02 -0.22496745753E+00  0.82657242664E+02  0.84636152736E+02  0.41800000000E+01 0. -1.
         -5    1    1    2    0  502  0.57764740455E+02 -0.11396489485E+03  0.79465901353E+01  0.12808350086E+03  0.41800000000E+01 0.  1.
        -11    1    1    2    0    0  0.15785197347E+02  0.25430743741E+02  0.43535176541E+02  0.52831872756E+02  0.00000000000E+00 0.  1.
         11    1    1    2    0    0 -0.55843002019E+02  0.88759118565E+02  0.51180912704E+03  0.52244158001E+03  0.00000000000E+00 0. -1.
</event>
<event>
 7    1  0.5109948E-006  0.1052459E+03  0.7561462E-02  0.1269636E+00
          2   -1    0    0  501    0  0.00000000000E+00  0.00000000000E+00  0.12728864064E+03  0.12728864064E+03  0.00000000000E+00 0. -1.
         -2   -1    0    0    0  501 -0.00000000000E+00 -0.00000000000E+00 -0.23826089907E+03  0.23826089907E+03  0.00000000000E+00 0.  1.
         23    2    1    2    0    0 -0.15295013423E+02  0.74297038513E+02 -0.17753018075E+03  0.23003920680E+03  0.12508830568E+03 0.  0.
          5    1    3    3  502    0  0.32561188999E+02 -0.51017873890E+01 -0.42754585096E+01  0.33496435767E+02  0.41800000000E+01 0.  1.
         -5    1    3    3    0  502 -0.47856202422E+02  0.79398825902E+02 -0.17325472224E+03  0.19654277103E+03  0.41800000000E+01 0.  1.
        -11    1    1    2    0    0 -0.11283215158E+02 -0.36921865722E+02  0.79053062813E+02  0.87976825658E+02  0.00000000000E+00 0. -1.
         11    1    1    2    0    0  0.26578228581E+02 -0.37375172792E+02 -0.12495140494E+02  0.47533507252E+02  0.00000000000E+00 0.  1.
</event>
<event>
 6    1  0.5109948E-006  0.9848110E+02  0.7561462E-02  0.1283523E+00
          2   -1    0    0  501    0  0.00000000000E+00  0.00000000000E+00  0.17983702566E+03  0.17983702566E+03  0.00000000000E+00 0. -1.
         -2   -1    0    0    0  501 -0.00000000000E+00 -0.00000000000E+00 -0.11208220385E+03  0.11208220385E+03  0.00000000000E+00 0.  1.
          5    1    1    2  502    0  0.25588437739E+02  0.15189458684E+02  0.62371841605E+02  0.69232989436E+02  0.41800000000E+01 0. -1.
         -5    1    1    2    0  502 -0.43105322220E+02  0.41265239169E+02 -0.66920035072E+02  0.89758856173E+02  0.41800000000E+01 0.  1.
        -11    1    1    2    0    0  0.29030619615E+02 -0.77690481205E+02  0.38646733278E+02  0.91499495836E+02  0.00000000000E+00 0. -1.
         11    1    1    2    0    0 -0.11513735134E+02  0.21235783352E+02  0.33656281998E+02  0.41427888062E+02  0.00000000000E+00 0.  1.
</event>
<event>
 7    1  0.5109948E-006  0.1409249E+03  0.7561462E-02  0.1212090E+00
          1   -1    0    0  501    0  0.00000000000E+00  0.00000000000E+00  0.86856093273E+02  0.86856093273E+02  0.00000000000E+00 0. -1.
         -1   -1    0    0    0  501 -0.00000000000E+00 -0.00000000000E+00 -0.51756807913E+03  0.51756807913E+03  0.00000000000E+00 0.  1.
         23    2    1    2    0    0 -0.11977110229E+03 -0.16542684732E+02 -0.41850828675E+03  0.45322766088E+03  0.12508936466E+03 0.  0.
          5    1    3    3  502    0 -0.68991775685E+01 -0.29191397026E+02 -0.14576673470E+02  0.33610833386E+02  0.41800000000E+01 0. -1.
         -5    1    3    3    0  502 -0.11287192472E+03  0.12648712294E+02 -0.40393161328E+03  0.41961682750E+03  0.41800000000E+01 0. -1.
        -11    1    1    2    0    0  0.12407575989E+02 -0.20814399799E+02 -0.27320809628E+02  0.36518677682E+02  0.00000000000E+00 0.  1.
         11    1    1    2    0    0  0.10736352630E+03  0.37357084531E+02  0.15117110517E+02  0.11467783384E+03  0.00000000000E+00 0. -1.
</event>
<event>
 7    1  0.5109948E-006  0.8711273E+02  0.7561462E-02  0.1309998E+00
          2   -1    0    0  501    0  0.00000000000E+00  0.00000000000E+00  0.25243629139E+02  0.25243629139E+02  0.00000000000E+00 0. -1.
         -2   -1    0    0    0  501 -0.00000000000E+00 -0.00000000000E+00 -0.68124341182E+03  0.68124341182E+03  0.00000000000E+00 0.  1.
         23    2    1    2    0    0  0.39531884596E+02 -0.45213476032E+02 -0.46099304901E+03  0.48142387140E+03  0.12508926575E+03 0.  0.
          5    1    3    3  502    0  0.34416196375E+02 -0.63902200035E+02 -0.12321150196E+03  0.14306121892E+03  0.41800000000E+01 0.  1.
         -5    1    3    3    0  502  0.51156882217E+01  0.18688724003E+02 -0.33778154704E+03  0.33836265248E+03  0.41800000000E+01 0.  1.
        -11    1    1    2    0    0 -0.36424261940E+02  0.42068755395E-01 -0.14903003082E+02  0.39355153773E+02  0.00000000000E+00 0. -1.
         11    1    1    2    0    0 -0.31076226563E+01  0.45171407277E+02 -0.18010373060E+03  0.18570801579E+03  0.00000000000E+00 0.  1.
</event>
<event>
 7    1  0.5109948E-006  0.1480903E+03  0.7561462E-02  0.1202839E+00
         -2   -1    0    0    0  501 -0.00000000000E+00  0.00000000000E+00  0.11055281832E+04  0.11055281832E+04  0.00000000000E+00 0.  1.
          2   -1    0    0  501    0  0.00000000000E+00 -0.00000000000E+00 -0.32770494186E+02  0.32770494186E+02  0.00000000000E+00 0. -1.
         23    2    1    2    0    0 -0.51381203346E+02  0.10978679158E+03  0.87656921741E+03  0.89370646375E+03  0.12507790681E+03 0.  0.
          5    1    3    3  502    0 -0.88082699047E+02  0.74698937977E+02  0.71545786627E+03  0.72473162206E+03  0.41800000000E+01 0. -1.
         -5    1    3    3    0  502  0.36701495701E+02  0.35087853605E+02  0.16111135115E+03  0.16897484169E+03  0.41800000000E+01 0. -1.
        -11    1    1    2    0    0  0.28459294152E+02 -0.15047606184E+02  0.10954521353E+03  0.11417756208E+03  0.00000000000E+00 0. -1.
         11    1    1    2    0    0  0.22921909194E+02 -0.94739185397E+02  0.86643258072E+02  0.13041465155E+03  0.00000000000E+00 0.  1.
</event>
<event>
 7    1  0.5109948E-006  0.1102382E+03  0.7561462E-02  0.1260129E+00
          3   -1    0    0  501    0  0.00000000000E+00  0.00000000000E+00  0.95981393501E+02  0.95981393501E+02  0.00000000000E+00 0. -1.
         -3   -1    0    0    0  501 -0.00000000000E+00 -0.00000000000E+00 -0.17430838029E+03  0.17430838029E+03  0.00000000000E+00 0.  1.
         23    2    1    2    0    0 -0.91042835015E+00 -0.68879010138E+02 -0.29122777955E+02  0.14574376910E+03  0.12509181875E+03 0.  0.
          5    1    3    3  502    0  0.22183932733E+02 -0.10054820640E+03 -0.25504073047E+02  0.10616025067E+03  0.41800000000E+01 0.  1.
         -5    1    3    3    0  502 -0.23094361083E+02  0.31669196260E+02 -0.36187049087E+01  0.39583518424E+02  0.41800000000E+01 0.  1.
        -11    1    1    2    0    0 -0.10508628444E+02  0.65154270820E+02 -0.72681932753E+02  0.98174200412E+02  0.00000000000E+00 0.  1.
         11    1    1    2    0    0  0.11419056794E+02  0.37247393181E+01  0.23477723914E+02  0.26371804285E+02  0.00000000000E+00 0. -1.
</event>
<event>
 7    1  0.5109948E-006  0.1043268E+03  0.7561462E-02  0.1271452E+00
          3   -1    0    0  501    0  0.00000000000E+00  0.00000000000E+00  0.23531690576E+03  0.23531690576E+03  0.00000000000E+00 0. -1.
         -3   -1    0    0    0  501 -0.00000000000E+00 -0.00000000000E+00 -0.84505566537E+02  0.84505566537E+02  0.00000000000E+00 0.  1.
         23    2    1    2    0    0  0.40916927320E+02  0.27444810795E+02 -0.27158441472E+01  0.13445958785E+03  0.12507834495E+03 0.  0.
          5    1    3    3  502    0  0.41434483059E+02  0.60723756938E+02 -0.40417375421E+02  0.83995402725E+02  0.41800000000E+01 0.  1.
         -5    1    3    3    0  502 -0.51755573883E+00 -0.33278946143E+02  0.37701531274E+02  0.50464185129E+02  0.41800000000E+01 0.  1.
        -11    1    1    2    0    0 -0.53364528484E+02  0.16457365726E+02  0.64457510637E+02  0.85284163034E+02  0.00000000000E+00 0.  1.
         11    1    1    2    0    0  0.12447601164E+02 -0.43902176521E+02  0.89069672731E+02  0.10007872141E+03  0.00000000000E+00 0. -1.
</event>
<event>
 7    1  0.5109948E-006  0.1348754E+03  0.7561462E-02  0.1220396E+00
          1   -1    0    0  501    0  0.00000000000E+00  0.00000000000E+00  0.38134501500E+03  0.38134501500E+03  0.00000000000E+00 0. -1.
         -1   -1    0    0    0  501 -0.00000000000E+00 -0.00000000000E+00 -0.57746646512E+02  0.57746646512E+02  0.00000000000E+00 0.  1.
         23    2    1    2    0    0 -0.41693674787E+02  0.69890417388E+02  0.98015179805E+02  0.17854399475E+03  0.12509176484E+03 0.  0.
          5    1    3    3  502    0  0.19617547059E+02 -0.26899252529E+02  0.31348060161E+02  0.45919399115E+02  0.41800000000E+01 0.  1.
         -5    1    3    3    0  502 -0.61311221846E+02  0.96789669917E+02  0.66667119644E+02  0.13262459564E+03  0.41800000000E+01 0.  1.
        -11    1    1    2    0    0  0.56942235342E+02 -0.83526509401E+02  0.14079835806E+03  0.17332995578E+03  0.00000000000E+00 0. -1.
         11    1    1    2    0    0 -0.15248560555E+02  0.13636092012E+02  0.84784830621E+02  0.87217710976E+02  0.00000000000E+00 0.  1.
</event>
<event>
 7    1  0.5109948E-006  0.1204671E+03  0.7561462E-02  0.1242328E+00
         -1   -1    0    0    0  501 -0.00000000000E+00  0.00000000000E+00  0.74718773419E+02  0.74718773419E+02  0.00000000000E+00 0.  1.
          1   -1    0    0  501    0  0.00000000000E+00 -0.00000000000E+00 -0.32487651708E+03  0.32487651708E+03  0.00000000000E+00 0. -1.
         23    2    1    2    0    0  0.10099207713E+03 -0.49074799157E+02 -0.14537686966E+03  0.22223864854E+03  0.12509135509E+03 0.  0.
          5    1    3    3  502    0  0.33656834164E+02 -0.35118667896E+02  0.12145266208E+02  0.50309871914E+02  0.41800000000E+01 0.  1.
         -5    1    3    3    0  502  0.67335242965E+02 -0.13956131261E+02 -0.15752213587E+03  0.17192877663E+03  0.41800000000E+01 0.  1.
        -11    1    1    2    0    0 -0.54130803241E+02  0.53552169492E+02 -0.10570268941E+03  0.13027293374E+03  0.00000000000E+00 0. -1.
         11    1    1    2    0    0 -0.46861273889E+02 -0.44773703357E+01  0.92181540901E+00  0.47083708215E+02  0.00000000000E+00 0.  1.
</event>
<event>
 7    1  0.5109948E-006  0.1082840E+03  0.7561462E-02  0.1263781E+00
         -1   -1    0    0    0  501 -0.00000000000E+00  0.00000000000E+00  0.13124325239E+03  0.13124325239E+03  0.00000000000E+00 0.  1.
          1   -1    0    0  501    0  0.00000000000E+00 -0.00000000000E+00 -0.11360238959E+03  0.11360238959E+03  0.00000000000E+00 0. -1.
         23    2    1    2    0    0 -0.22739826473E+02  0.47231869485E+02  0.28769092455E+02  0.13864805843E+03  0.12509066401E+03 0.  0.
          5    1    3    3  502    0 -0.42309266654E+02  0.73609969566E+02  0.50659527285E+02  0.98956362954E+02  0.41800000000E+01 0.  1.
         -5    1    3    3    0  502  0.19569440181E+02 -0.26378100081E+02 -0.21890434830E+02  0.39691695478E+02  0.41800000000E+01 0.  1.
        -11    1    1    2    0    0 -0.19965117597E+02  0.13578685246E+02  0.13811550442E+02  0.27816281910E+02  0.00000000000E+00 0.  1.
         11    1    1    2    0    0  0.42704944071E+02 -0.60810554731E+02 -0.24939780100E+02  0.78381301636E+02  0.00000000000E+00 0. -1.
</event>
<event>
 7    1  0.5109948E-006  0.1007011E+03  0.7561462E-02  0.1278829E+00
          1   -1    0    0  501    0  0.00000000000E+00  0.00000000000E+00  0.27440562362E+03  0.27440562362E+03  0.00000000000E+00 0. -1.
         -1   -1    0    0    0  501 -0.00000000000E+00 -0.00000000000E+00 -0.57415350383E+02  0.57415350383E+02  0.00000000000E+00 0.  1.
         23    2    1    2    0    0 -0.25204933868E+02 -0.18713201458E+02  0.50197517167E+02  0.13838831894E+03  0.12508422558E+03 0.  0.
          5    1    3    3  502    0  0.27999171854E+02 -0.41356571256E+02 -0.13853596145E+02  0.51997251242E+02  0.41800000000E+01 0.  1.
         -5    1    3    3    0  502 -0.53204105722E+02  0.22643369799E+02  0.64051113312E+02  0.86391067698E+02  0.41800000000E+01 0.  1.
        -11    1    1    2    0    0 -0.30278554560E+02  0.22463184526E+02  0.39926825006E+02  0.54913904253E+02  0.00000000000E+00 0.  1.
         11    1    1    2    0    0  0.55483488428E+02 -0.37499830685E+01  0.12686593106E+03  0.13851875081E+03  0.00000000000E+00 0. -1.
</event>
<event>
 7    1  0.5109948E-006  0.2507887E+03  0.7561462E-02  0.1112807E+00
          2   -1    0    0  501    0  0.00000000000E+00  0.00000000000E+00  0.63457476283E+03  0.63457476283E+03  0.00000000000E+00 0. -1.
         -2   -1    0    0    0  501 -0.00000000000E+00 -0.00000000000E+00 -0.23626215480E+03  0.23626215480E+03  0.00000000000E+00 0.  1.
         23    2    1    2    0    0 -0.11219187553E+03  0.21620167592E+03 -0.11259169358E+03  0.29606788141E+03  0.12509644014E+03 0.  0.
          5    1    3    3  502    0 -0.52109141679E+01 -0.57871507689E+01 -0.37348633726E+02  0.38380171726E+02  0.41800000000E+01 0.  1.
         -5    1    3    3    0  502 -0.10698096136E+03  0.22198882669E+03 -0.75243059852E+02  0.25768770968E+03  0.41800000000E+01 0.  1.
        -11    1    1    2    0    0  0.55490380871E+02 -0.14503637777E+03  0.21517901000E+03  0.26536152621E+03  0.00000000000E+00 0.  1.
         11    1    1    2    0    0  0.56701494654E+02 -0.71165298144E+02  0.29572529161E+03  0.30940751002E+03  0.00000000000E+00 0. -1.
</event>
<event>
 7    1  0.5109948E-006  0.1030756E+03  0.7561462E-02  0.1273958E+00
          1   -1    0    0  501    0  0.00000000000E+00  0.00000000000E+00  0.17932040970E+03  0.17932040970E+03  0.00000000000E+00 0. -1.
         -1   -1    0    0    0  501 -0.00000000000E+00 -0.00000000000E+00 -0.11065994380E+03  0.11065994380E+03  0.00000000000E+00 0.  1.
         23    2    1    2    0    0  0.26483803154E+02 -0.84699610859E+02  0.45979086306E+02  0.16011393556E+03  0.12508788940E+03 0.  0.
          5    1    3    3  502    0 -0.23065141124E+02 -0.13924729584E+02 -0.33123161343E+02  0.42901224299E+02  0.41800000000E+01 0. -1.
         -5    1    3    3    0  502  0.49548944278E+02 -0.70774881276E+02  0.79102247649E+02  0.11721271126E+03  0.41800000000E+01 0. -1.
        -11    1    1    2    0    0 -0.31680614870E+02  0.71513748832E+02  0.54299399062E+02  0.95217132750E+02  0.00000000000E+00 0. -1.
         11    1    1    2    0    0  0.51968117154E+01  0.13185862027E+02 -0.31618019466E+02  0.34649285193E+02  0.00000000000E+00 0.  1.
</event>
<event>
 7    1  0.5109948E-006  0.1132735E+03  0.7561462E-02  0.1254625E+00
          1   -1    0    0  501    0  0.00000000000E+00  0.00000000000E+00  0.34402640600E+02  0.34402640600E+02  0.00000000000E+00 0. -1.
         -1   -1    0    0    0  501 -0.00000000000E+00 -0.00000000000E+00 -0.41765561352E+03  0.41765561352E+03  0.00000000000E+00 0.  1.
         23    2    1    2    0    0  0.97983794393E+01 -0.50860623473E+02 -0.24106868906E+03  0.27648790516E+03  0.12509451464E+03 0.  0.
          5    1    3    3  502    0  0.35134476757E+02 -0.82734560113E+02 -0.12988627261E+03  0.15801061707E+03  0.41800000000E+01 0. -1.
         -5    1    3    3    0  502 -0.25336097317E+02  0.31873936640E+02 -0.11118241645E+03  0.11847728809E+03  0.41800000000E+01 0. -1.
        -11    1    1    2    0    0  0.58534440348E+01 -0.21148073632E+02 -0.66114144371E+02  0.69660490318E+02  0.00000000000E+00 0.  1.
         11    1    1    2    0    0 -0.15651823474E+02  0.72008697105E+02 -0.76070139486E+02  0.10590985864E+03  0.00000000000E+00 0. -1.
</event>
<event>
 6    1  0.5109948E-006  0.1235939E+03  0.7561462E-02  0.1237283E+00
          1   -1    0    0  501    0  0.00000000000E+00  0.00000000000E+00  0.13474199994E+03  0.13474199994E+03  0.00000000000E+00 0. -1.
         -1   -1    0    0    0  501 -0.00000000000E+00 -0.00000000000E+00 -0.25687406479E+03  0.25687406479E+03  0.00000000000E+00 0.  1.
          5    1    1    2  502    0 -0.60594619923E+02 -0.35450121031E+02  0.58237152097E+02  0.91309678179E+02  0.41800000000E+01 0. -1.
         -5    1    1    2    0  502 -0.38346588787E+02  0.50110055743E+02 -0.14950518302E+03  0.16232914313E+03  0.41800000000E+01 0.  1.
        -11    1    1    2    0    0  0.94909629609E+02 -0.28589671762E+02 -0.52317977503E+02  0.11208201414E+03  0.00000000000E+00 0.  1.
         11    1    1    2    0    0  0.40315791006E+01  0.13929737050E+02  0.21453943583E+02  0.25895229282E+02  0.00000000000E+00 0. -1.
</event>
<event>
 7    1  0.5109948E-006  0.1271940E+03  0.7561462E-02  0.1231680E+00
         -2   -1    0    0    0  501 -0.00000000000E+00  0.00000000000E+00  0.46437386528E+03  0.46437386528E+03  0.00000000000E+00 0.  1.
          2   -1    0    0  501    0  0.00000000000E+00 -0.00000000000E+00 -0.36342981414E+02  0.36342981414E+02  0.00000000000E+00 0. -1.
         23    2    1    2    0    0 -0.43054182391E+02  0.57213946556E+02  0.24439538156E+03  0.28372490345E+03  0.12507445786E+03 0.  0.
          5    1    3    3  502    0 -0.33309937265E-01 -0.38546238416E+02  0.58183210556E+02  0.69918323751E+02  0.41800000000E+01 0.  1.
         -5    1    3    3    0  502 -0.43020872454E+02  0.95760184972E+02  0.18621217100E+03  0.21380657970E+03  0.41800000000E+01 0.  1.
        -11    1    1    2    0    0 -0.22095044760E+02 -0.35622929378E+02  0.10237869495E+03  0.11062812156E+03  0.00000000000E+00 0.  1.
         11    1    1    2    0    0  0.65149227151E+02 -0.21591017178E+02  0.81256807351E+02  0.10636382168E+03  0.00000000000E+00 0. -1.
</event>
<event>
 7    1  0.5109948E-006  0.1030310E+03  0.7561462E-02  0.1274048E+00
          2   -1    0    0  501    0  0.00000000000E+00  0.00000000000E+00  0.67060640040E+03  0.67060640040E+03  0.00000000000E+00 0. -1.
         -2   -1    0    0    0  501 -0.00000000000E+00 -0.00000000000E+00 -0.21760491827E+02  0.21760491827E+02  0.00000000000E+00 0.  1.
         23    2    1    2    0    0 -0.93421502501E+00 -0.53742195196E+02  0.34930692124E+03  0.37490867571E+03  0.12510832744E+03 0.  0.
          5    1    3    3  502    0 -0.25358560452E+02 -0.70691331593E+02  0.33166459941E+03  0.34008704747E+03  0.41800000000E+01 0.  1.
         -5    1    3    3    0  502  0.24424345427E+02  0.16949136397E+02  0.17642321830E+02  0.34821628246E+02  0.41800000000E+01 0.  1.
        -11    1    1    2    0    0  0.24459896835E+02  0.68713191726E+02  0.25201443519E+03  0.26235675103E+03  0.00000000000E+00 0.  1.
         11    1    1    2    0    0 -0.23525681810E+02 -0.14970996529E+02  0.47524552140E+02  0.55101465478E+02  0.00000000000E+00 0. -1.
</event>
<event>
 7    1  0.5109948E-006  0.1187143E+03  0.7561462E-02  0.1245233E+00
          1   -1    0    0  501    0  0.00000000000E+00  0.00000000000E+00  0.22870394234E+03  0.22870394234E+03  0.00000000000E+00 0. -1.
         -1   -1    0    0    0  501 -0.00000000000E+00 -0.00000000000E+00 -0.12091062717E+03  0.12091062717E+03  0.00000000000E+00 0.  1.
         23    2    1    2    0    0 -0.17669080911E+02  0.47737967929E+02 -0.62947943624E+02  0.14900187976E+03  0.12509199241E+03 0.  0.
          5    1    3    3  502    0 -0.38129516301E+02  0.82907362814E+02 -0.28989657114E+02  0.95840301761E+02  0.41800000000E+01 0.  1.
         -5    1    3    3    0  502  0.20460435390E+02 -0.35169394885E+02 -0.33958286510E+02  0.53161578002E+02  0.41800000000E+01 0.  1.
        -11    1    1    2    0    0 -0.27711303481E+02  0.11964452326E+02  0.44305009873E+02  0.53609685319E+02  0.00000000000E+00 0. -1.
         11    1    1    2    0    0  0.45380384392E+02 -0.59702420255E+02  0.12643624892E+03  0.14700300443E+03  0.00000000000E+00 0.  1.
</event>
<event>
 7    1  0.5109948E-006  0.3790384E+03  0.7561462E-02  0.1051290E+00
          2   -1    0    0  501    0  0.00000000000E+00  0.00000000000E+00  0.56436647061E+03  0.56436647061E+03  0.00000000000E+00 0. -1.
         -2   -1    0    0    0  501 -0.00000000000E+00 -0.00000000000E+00 -0.27448666187E+03  0.27448666187E+03  0.00000000000E+00 0.  1.
         23    2    1    2    0    0 -0.13424086073E+03  0.35031531149E+03  0.19746033395E+03  0.44201810880E+03  0.12509196166E+03 0.  0.
          5    1    3    3  502    0 -0.66365987955E+02  0.15335055133E+03  0.20041318986E+02  0.16834477365E+03  0.41800000000E+01 0. -1.
         -5    1    3    3    0  502 -0.67874872776E+02  0.19696476016E+03  0.17741901497E+03  0.27367333515E+03  0.41800000000E+01 0. -1.
        -11    1    1    2    0    0 -0.76845503385E+01 -0.47662040220E+02 -0.52973225291E+01  0.48567314295E+02  0.00000000000E+00 0.  1.
         11    1    1    2    0    0  0.14192541107E+03 -0.30265327127E+03  0.97716797313E+02  0.34826770938E+03  0.00000000000E+00 0. -1.
</event>
<event>
 7    1  0.5109948E-006  0.1429893E+03  0.7561462E-02  0.1209362E+00
          3   -1    0    0  501    0  0.00000000000E+00  0.00000000000E+00  0.80234276057E+03  0.80234276057E+03  0.00000000000E+00 0. -1.
         -3   -1    0    0    0  501 -0.00000000000E+00 -0.00000000000E+00 -0.27531852213E+02  0.27531852213E+02  0.00000000000E+00 0.  1.
         23    2    1    2    0    0 -0.84420198581E+02 -0.43131213289E+02  0.32136284374E+03  0.35764334923E+03  0.12509043299E+03 0.  0.
          5    1    3    3  502    0  0.22658725886E+02 -0.43521306176E+02  0.11548543420E+03  0.12554632556E+03  0.41800000000E+01 0. -1.
         -5    1    3    3    0  502 -0.10707892447E+03  0.39009288721E+00  0.20587740954E+03  0.23209702367E+03  0.41800000000E+01 0. -1.
        -11    1    1    2    0    0  0.23880463005E+02  0.61772987790E+02  0.18781674351E+03  0.19915146918E+03  0.00000000000E+00 0. -1.
         11    1    1    2    0    0  0.60539735576E+02 -0.18641774502E+02  0.26563132111E+03  0.27307979437E+03  0.00000000000E+00 0.  1.
</event>
<event>
 6    1  0.5109948E-006  0.1127892E+03  0.7561462E-02  0.1255490E+00
          1   -1    0    0  501    0  0.00000000000E+00  0.00000000000E+00  0.47791018873E+03  0.47791018873E+03  0.00000000000E+00 0. -1.
         -1   -1    0    0    0  501 -0.00000000000E+00 -0.00000000000E+00 -0.57093561066E+02  0.57093561066E+02  0.00000000000E+00 0.  1.
          5    1    1    2  502    0 -0.13810502835E+02  0.34880099405E+02 -0.16353673581E+02  0.41137165224E+02  0.41800000000E+01 0. -1.
         -5    1    1    2    0  502 -0.75020822159E+02 -0.57327732281E+02  0.13263974506E+03  0.16286610149E+03  0.41800000000E+01 0.  1.
        -11    1    1    2    0    0  0.23922622592E+02  0.14384584428E+02  0.10565849633E+02  0.29847032001E+02  0.00000000000E+00 0.  1.
         11    1    1    2    0    0  0.64908702402E+02  0.80630484485E+01  0.29396470655E+03  0.30115345108E+03  0.00000000000E+00 0. -1.
</event>
<event>
 7    1  0.5109948E-006  0.7871063E+02  0.7561462E-02  0.1332751E+00
          2   -1    0    0  501    0  0.00000000000E+00  0.00000000000E+00  0.16775101175E+03  0.16775101175E+03  0.00000000000E+00 0. -1.
         -2   -1    0    0    0  501 -0.00000000000E+00 -0.00000000000E+00 -0.13323133169E+03  0.13323133169E+03  0.00000000000E+00 0.  1.
         23    2    1    2    0    0  0.38743912999E+02 -0.36172454320E+02 -0.67288499989E+02  0.15160297003E+03  0.12508469549E+03 0.  0.
          5    1    3    3  502    0  0.16891062219E+02 -0.38754924384E+02 -0.10188606152E+03  0.11038792542E+03  0.41800000000E+01 0.  1.
         -5    1    3    3    0  502  0.21852850781E+02  0.25824700636E+01  0.34597561527E+02  0.41215044613E+02  0.41800000000E+01 0.  1.
        -11    1    1    2    0    0 -0.35632367854E+02 -0.16858097004E+02  0.60599355246E+01  0.39882124969E+02  0.00000000000E+00 0.  1.
         11    1    1    2    0    0 -0.31115451454E+01  0.53030551324E+02  0.95748244524E+02  0.10949724844E+03  0.00000000000E+00 0. -1.
</event>
<event>
 7    1  0.5109948E-006  0.1051541E+03  0.7561462E-02  0.1269816E+00
          1   -1    0    0  501    0  0.00000000000E+00  0.00000000000E+00  0.49025175831E+03  0.49025175831E+03  0.00000000000E+00 0. -1.
         -1   -1    0    0    0  501 -0.00000000000E+00 -0.00000000000E+00 -0.33129600184E+02  0.33129600184E+02  0.00000000000E+00 0.  1.
         23    2    1    2    0    0  0.11769917695E+02  0.62591497799E+02  0.27957915368E+03  0.31283889031E+03  0.12508973403E+03 0.  0.
          5    1    3    3  502    0  0.23483666397E+02  0.82415611451E+02  0.27616852135E+03  0.28918910800E+03  0.41800000000E+01 0.  1.
         -5    1    3    3    0  502 -0.11713748703E+02 -0.19824113652E+02  0.34106323303E+01  0.23649782317E+02  0.41800000000E+01 0.  1.
        -11    1    1    2    0    0  0.31680480525E+02 -0.43087238517E+02  0.45651813440E+02  0.70315368446E+02  0.00000000000E+00 0.  1.
         11    1    1    2    0    0 -0.43450398219E+02 -0.19504259282E+02  0.13189119100E+03  0.14022709973E+03  0.00000000000E+00 0. -1.
</event>
<event>
 7    1  0.5109948E-006  0.1176500E+03  0.7561462E-02  0.1247025E+00
          1   -1    0    0  501    0  0.00000000000E+00  0.00000000000E+00  0.52793025080E+03  0.52793025080E+03  0.00000000000E+00 0. -1.
         -1   -1    0    0    0  501 -0.00000000000E+00 -0.00000000000E+00 -0.27268254835E+02  0.27268254835E+02  0.00000000000E+00 0.  1.
         23    2    1    2    0    0  0.16247866518E+01  0.46405898129E+02  0.24927446710E+03  0.28278124908E+03  0.12518517314E+03 0.  0.
          5    1    3    3  502    0 -0.51633053982E+02 -0.10467764937E+02  0.74112887038E+02  0.91026033591E+02  0.41800000000E+01 0. -1.
         -5    1    3    3    0  502  0.53257840634E+02  0.56873663065E+02  0.17516158006E+03  0.19175521549E+03  0.41800000000E+01 0. -1.
        -11    1    1    2    0    0 -0.45605342092E+02 -0.38613741214E+02  0.13011599276E+03  0.14318184176E+03  0.00000000000E+00 0. -1.
         11    1    1    2    0    0  0.43980555440E+02 -0.77921569143E+01  0.12127153611E+03  0.12923541479E+03  0.00000000000E+00 0.  1.
</event>
<event>
 7    1  0.5109948E-006  0.1430622E+03  0.7561462E-02  0.1209267E+00
         -1   -1    0    0    0  501 -0.00000000000E+00  0.00000000000E+00  0.46340435015E+02  0.46340435015E+02  0.00000000000E+00 0.  1.
          1   -1    0    0  501    0  0.00000000000E+00 -0.00000000000E+00 -0.46337869355E+03  0.46337869355E+03  0.00000000000E+00 0. -1.
         23    2    1    2    0    0 -0.19683342251E+02  0.95169571192E+02 -0.20206721284E+03  0.25675580757E+03  0.12509078692E+03 0.  0.
          5    1    3    3  502    0 -0.10512263968E+02  0.12285865372E+03 -0.18598201417E+03  0.22318498714E+03  0.41800000000E+01 0. -1.
         -5    1    3    3    0  502 -0.91710782837E+01 -0.27689082530E+02 -0.16085198666E+02  0.33570820431E+02  0.41800000000E+01 0. -1.
        -11    1    1    2    0    0 -0.18546872549E+02 -0.93169079360E+02 -0.14992750747E+03  0.17749005980E+03  0.00000000000E+00 0.  1.
         11    1    1    2    0    0  0.38230214800E+02 -0.20004918311E+01 -0.65043538223E+02  0.75473261197E+02  0.00000000000E+00 0. -1.
</event>
<event>
 7    1  0.5109948E-006  0.1476794E+03  0.7561462E-02  0.1203354E+00
         -1   -1    0    0    0  501 -0.00000000000E+00  0.00000000000E+00  0.64980099217E+02  0.64980099217E+02  0.00000000000E+00 0.  1.
          1   -1    0    0  501    0  0.00000000000E+00 -0.00000000000E+00 -0.56741409797E+03  0.56741409797E+03  0.00000000000E+00 0. -1.
         23    2    1    2    0    0  0.24157650460E+02 -0.11835085607E+03 -0.98060032055E+02  0.19963339424E+03  0.12508878847E+03 0.  0.
          5    1    3    3  502    0  0.56624666946E+02 -0.91384719624E+01 -0.48840196370E+02  0.75449995083E+02  0.41800000000E+01 0. -1.
         -5    1    3    3    0  502 -0.32467016486E+02 -0.10921238411E+03 -0.49219835685E+02  0.12418339916E+03  0.41800000000E+01 0. -1.
        -11    1    1    2    0    0  0.54815780423E+01  0.33791215972E+02 -0.23583660738E+02  0.41570218047E+02  0.00000000000E+00 0.  1.
         11    1    1    2    0    0 -0.29639228502E+02  0.84559640098E+02 -0.38079030596E+03  0.39119058490E+03  0.00000000000E+00 0. -1.
</event>
<event>
 7    1  0.5109948E-006  0.1607085E+03  0.7561462E-02  0.1187899E+00
          1   -1    0    0  501    0  0.00000000000E+00  0.00000000000E+00  0.30566307073E+03  0.30566307073E+03  0.00000000000E+00 0. -1.
         -1   -1    0    0    0  501 -0.00000000000E+00 -0.00000000000E+00 -0.10023051112E+03  0.10023051112E+03  0.00000000000E+00 0.  1.
         23    2    1    2    0    0  0.12989498025E+03  0.25246530203E+02  0.71377509006E+02  0.19558618438E+03  0.12509641701E+03 0.  0.
          5    1    3    3  502    0  0.56678942193E+02 -0.33528354453E+02 -0.15300162227E+02  0.67736403836E+02  0.41800000000E+01 0.  1.
         -5    1    3    3    0  502  0.73216038053E+02  0.58774884656E+02  0.86677671233E+02  0.12784978054E+03  0.41800000000E+01 0.  1.
        -11    1    1    2    0    0 -0.71724415359E+02  0.33158277524E+02  0.56619549123E+02  0.97209240660E+02  0.00000000000E+00 0.  1.
         11    1    1    2    0    0 -0.58170564888E+02 -0.58404807727E+02  0.77435501481E+02  0.11309815681E+03  0.00000000000E+00 0. -1.
</event>
<event>
 7    1  0.5109948E-006  0.1285419E+03  0.7561462E-02  0.1229635E+00
         -2   -1    0    0    0  501 -0.00000000000E+00  0.00000000000E+00  0.22308101051E+02  0.22308101051E+02  0.00000000000E+00 0.  1.
          2   -1    0    0  501    0  0.00000000000E+00 -0.00000000000E+00 -0.92645425031E+03  0.92645425031E+03  0.00000000000E+00 0. -1.
         23    2    1    2    0    0 -0.81293920180E+02  0.38586891109E+02 -0.46209183693E+03  0.48710763147E+03  0.12508928517E+03 0.  0.
          5    1    3    3  502    0  0.10413082988E+02  0.41381993467E+02 -0.27895307312E+03  0.28222896925E+03  0.41800000000E+01 0. -1.
         -5    1    3    3    0  502 -0.91707003168E+02 -0.27951023576E+01 -0.18313876381E+03  0.20487866223E+03  0.41800000000E+01 0. -1.
        -11    1    1    2    0    0  0.65854219343E+02  0.14196926816E+02 -0.33031613886E+03  0.33711582954E+03  0.00000000000E+00 0.  1.
         11    1    1    2    0    0  0.15439700837E+02 -0.52783817926E+02 -0.11173817348E+03  0.12453889035E+03  0.00000000000E+00 0. -1.
</event>
<event>
 7    1  0.5109948E-006  0.1255634E+03  0.7561462E-02  0.1234191E+00
          2   -1    0    0  501    0  0.00000000000E+00  0.00000000000E+00  0.24272985684E+03  0.24272985684E+03  0.00000000000E+00 0. -1.
         -2   -1    0    0    0  501 -0.00000000000E+00 -0.00000000000E+00 -0.86263605502E+02  0.86263605502E+02  0.00000000000E+00 0.  1.
         23    2    1    2    0    0 -0.41502100414E+02  0.55939291132E+02  0.57821408814E+02  0.15440895998E+03  0.12508870043E+03 0.  0.
          5    1    3    3  502    0 -0.51211716375E+02 -0.17281289851E+02  0.59392103289E+02  0.80412543836E+02  0.41800000000E+01 0. -1.
         -5    1    3    3    0  502  0.97096159617E+01  0.73220580983E+02 -0.15706944754E+01  0.73996416148E+02  0.41800000000E+01 0. -1.
        -11    1    1    2    0    0  0.68450597751E+02 -0.65109538161E+02  0.10904695796E+03  0.14427742489E+03  0.00000000000E+00 0. -1.
         11    1    1    2    0    0 -0.26948497337E+02  0.91702470288E+01 -0.10402115435E+02  0.30307077471E+02  0.00000000000E+00 0.  1.
</event>
<event>
 6    1  0.5109948E-006  0.2711506E+03  0.7561462E-02  0.1100623E+00
          2   -1    0    0  501    0  0.00000000000E+00  0.00000000000E+00  0.29396076434E+03  0.29396076434E+03  0.00000000000E+00 0. -1.
         -2   -1    0    0    0  501 -0.00000000000E+00 -0.00000000000E+00 -0.27827102971E+03  0.27827102971E+03  0.00000000000E+00 0.  1.
          5    1    1    2  502    0 -0.90988720856E+01  0.13759155667E+03 -0.45628613765E+00  0.13795617615E+03  0.41800000000E+01 0.  1.
         -5    1    1    2    0  502 -0.11078186535E+03  0.83469116098E+02 -0.67393318841E+02  0.15426939702E+03  0.41800000000E+01 0.  1.
        -11    1    1    2    0    0  0.12038685221E+03 -0.14053764163E+03  0.43585511134E+02  0.19011449098E+03  0.00000000000E+00 0. -1.
         11    1    1    2    0    0 -0.50611476946E+00 -0.80523031143E+02  0.39953828474E+02  0.89891729911E+02  0.00000000000E+00 0.  1.
</event>
<event>
 7    1  0.5109948E-006  0.8293648E+02  0.7561462E-02  0.1320919E+00
         -1   -1    0    0    0  501 -0.00000000000E+00  0.00000000000E+00  0.41965692334E+02  0.41965692334E+02  0.00000000000E+00 0.  1.
          1   -1    0    0  501    0  0.00000000000E+00 -0.00000000000E+00 -0.32005180431E+03  0.32005180431E+03  0.00000000000E+00 0. -1.
         23    2    1    2    0    0 -0.26441189637E+02 -0.28300478324E+01 -0.10504994294E+03  0.16549664618E+03  0.12508598525E+03 0.  0.
          5    1    3    3  502    0  0.22291751028E+02  0.82800181976E+01 -0.11225659372E+03  0.11482376104E+03  0.41800000000E+01 0. -1.
         -5    1    3    3    0  502 -0.48732940665E+02 -0.11110066030E+02  0.72066507836E+01  0.50672885141E+02  0.41800000000E+01 0. -1.
        -11    1    1    2    0    0  0.35002583685E+02 -0.36940037710E+02 -0.77868864239E+02  0.93023154475E+02  0.00000000000E+00 0.  1.
         11    1    1    2    0    0 -0.85613940487E+01  0.39770085542E+02 -0.95167304804E+02  0.10349769599E+03  0.00000000000E+00 0. -1.
</event>
<event>
 7    1  0.5109948E-006  0.1206444E+03  0.7561462E-02  0.1242038E+00
          1   -1    0    0  501    0  0.00000000000E+00  0.00000000000E+00  0.73219605836E+02  0.73219605836E+02  0.00000000000E+00 0. -1.
         -1   -1    0    0    0  501 -0.00000000000E+00 -0.00000000000E+00 -0.35282371139E+03  0.35282371139E+03  0.00000000000E+00 0.  1.
         23    2    1    2    0    0 -0.50563651351E+00  0.11594295417E+03 -0.18075650170E+03  0.24852020658E+03  0.12508539436E+03 0.  0.
          5    1    3    3  502    0 -0.15556119593E+02  0.52572160335E+02  0.14222489391E+01  0.55002909842E+02  0.41800000000E+01 0. -1.
         -5    1    3    3    0  502  0.15050483080E+02  0.63370793837E+02 -0.18217875064E+03  0.19351729674E+03  0.41800000000E+01 0. -1.
        -11    1    1    2    0    0 -0.17051524958E+02 -0.51805450351E+02  0.43976535617E+01  0.54716529005E+02  0.00000000000E+00 0.  1.
         11    1    1    2    0    0  0.17557161472E+02 -0.64137503821E+02 -0.10324525742E+03  0.12280658164E+03  0.00000000000E+00 0. -1.
</event>
<event>
 7    1  0.5109948E-006  0.7107598E+02  0.7561462E-02  0.1356472E+00
         -1   -1    0    0    0  501 -0.00000000000E+00  0.00000000000E+00  0.30704016931E+03  0.30704016931E+03  0.00000000000E+00 0.  1.
          1   -1    0    0  501    0  0.00000000000E+00 -0.00000000000E+00 -0.42087762954E+02  0.42087762954E+02  0.00000000000E+00 0. -1.
         23    2    1    2    0    0 -0.10486055724E+02 -0.39326119997E+02  0.13910746583E+03  0.19144928410E+03  0.12508173431E+03 0.  0.
          5    1    3    3  502    0 -0.10592813328E+02 -0.47219197799E+01  0.15331441527E+03  0.15380925379E+03  0.41800000000E+01 0.  1.
         -5    1    3    3    0  502  0.10675760469E+00 -0.34604200217E+02 -0.14206949444E+02  0.37640030318E+02  0.41800000000E+01 0.  1.
        -11    1    1    2    0    0 -0.35994087468E+02  0.31505217251E+02  0.65526931467E+02  0.81129105715E+02  0.00000000000E+00 0.  1.
         11    1    1    2    0    0  0.46480143191E+02  0.78209027463E+01  0.60318009060E+02  0.76549542440E+02  0.00000000000E+00 0. -1.
</event>
<event>
 7    1  0.5109948E-006  0.9537718E+02  0.7561462E-02  0.1290329E+00
          2   -1    0    0  501    0  0.00000000000E+00  0.00000000000E+00  0.24186327008E+03  0.24186327008E+03  0.00000000000E+00 0. -1.
         -2   -1    0    0    0  501 -0.00000000000E+00 -0.00000000000E+00 -0.50091880304E+02  0.50091880304E+02  0.00000000000E+00 0.  1.
         23    2    1    2    0    0  0.92263769528E+01  0.17922521708E+02  0.93832776320E+02  0.15766930377E+03  0.12509467064E+03 0.  0.
          5    1    3    3  502    0 -0.53425456755E+02  0.23515337703E+02  0.67539135356E+02  0.89365864520E+02  0.41800000000E+01 0. -1.
         -5    1    3    3    0  502  0.62651833708E+02 -0.55928159945E+01  0.26293640965E+02  0.68303439246E+02  0.41800000000E+01 0. -1.
        -11    1    1    2    0    0  0.26518599971E+02 -0.20259995076E+02  0.92141111753E+02  0.97998408252E+02  0.00000000000E+00 0.  1.
         11    1    1    2    0    0 -0.35744976924E+02  0.23374733676E+01  0.57975017012E+01  0.36287438364E+02  0.00000000000E+00 0. -1.
</event>
<event>
 7    1  0.5109948E-006  0.1570917E+03  0.7561462E-02  0.1192020E+00
         -1   -1    0    0    0  501 -0.00000000000E+00  0.00000000000E+00  0.20144457119E+03  0.20144457119E+03  0.00000000000E+00 0.  1.
          1   -1    0    0  501    0  0.00000000000E+00 -0.00000000000E+00 -0.12529919250E+03  0.12529919250E+03  0.00000000000E+00 0. -1.
         23    2    1    2    0    0 -0.71094621812E+02  0.89155999128E+02  0.27245063139E+02  0.17144449804E+03  0.12509070713E+03 0.  0.
          5    1    3    3  502    0 -0.10453292769E+02 -0.31862905133E+02  0.38522255625E+01  0.34012175688E+02  0.41800000000E+01 0.  1.
         -5    1    3    3    0  502 -0.60641329043E+02  0.12101890426E+03  0.23392837576E+02  0.13743232235E+03  0.41800000000E+01 0.  1.
        -11    1    1    2    0    0  0.28712742194E+02 -0.97610944677E+02  0.21095089819E+02  0.10391015783E+03  0.00000000000E+00 0. -1.
         11    1    1    2    0    0  0.42381879618E+02  0.84549455491E+01  0.27805225733E+02  0.51389107817E+02  0.00000000000E+00 0.  1.
</event>
<event>
 7    1  0.5109948E-006  0.9177651E+02  0.7561462E-02  0.1298606E+00
          3   -1    0    0  501    0  0.00000000000E+00  0.00000000000E+00  0.14315151961E+03  0.14315151961E+03  0.00000000000E+00 0. -1.
         -3   -1    0    0    0  501 -0.00000000000E+00 -0.00000000000E+00 -0.12248685078E+03  0.12248685078E+03  0.00000000000E+00 0.  1.
         23    2    1    2    0    0 -0.32137757543E+02 -0.65889366874E+02 -0.10214872730E+02  0.14534369652E+03  0.12508478071E+03 0.  0.
          5    1    3    3  502    0 -0.52443661101E+02 -0.50091189803E+02 -0.56631798849E+02  0.92109163097E+02  0.41800000000E+01 0. -1.
         -5    1    3    3    0  502  0.20305903558E+02 -0.15798177072E+02  0.46416926119E+02  0.53234533420E+02  0.41800000000E+01 0. -1.
        -11    1    1    2    0    0 -0.88309468110E+01  0.26810831013E+02  0.52566056546E+02  0.59665706917E+02  0.00000000000E+00 0. -1.
         11    1    1    2    0    0  0.40968704354E+02  0.39078535861E+02 -0.21686514992E+02  0.60628966955E+02  0.00000000000E+00 0.  1.
</event>
<event>
 7    1  0.5109948E-006  0.9335232E+02  0.7561462E-02  0.1294931E+00
         -1   -1    0    0    0  501 -0.00000000000E+00  0.00000000000E+00  0.96396605341E+02  0.96396605341E+02  0.00000000000E+00 0.  1.
          1   -1    0    0  501    0  0.00000000000E+00 -0.00000000000E+00 -0.14117009544E+03  0.14117009544E+03  0.00000000000E+00 0. -1.
         23    2    1    2    0    0 -0.34451753092E+02 -0.12667277069E+02 -0.49329283483E+02  0.13938731735E+03  0.12509221730E+03 0.  0.
          5    1    3    3  502    0  0.41247119213E+02  0.21813879916E+02 -0.21777011766E+02  0.51661212160E+02  0.41800000000E+01 0. -1.
         -5    1    3    3    0  502 -0.75698872305E+02 -0.34481156985E+02 -0.27552271717E+02  0.87726105191E+02  0.41800000000E+01 0. -1.
        -11    1    1    2    0    0  0.44342432372E+02  0.14202542279E+02 -0.34443295403E+02  0.57916354461E+02  0.00000000000E+00 0. -1.
         11    1    1    2    0    0 -0.98906792798E+01 -0.15352652103E+01  0.38999088785E+02  0.40263028971E+02  0.00000000000E+00 0.  1.
</event>
<event>
 7    1  0.5109948E-006  0.1377657E+03  0.7561462E-02  0.1216367E+00
          1   -1    0    0  501    0  0.00000000000E+00  0.00000000000E+00  0.15556096133E+03  0.15556096133E+03  0.00000000000E+00 0. -1.
         -1   -1    0    0    0  501 -0.00000000000E+00 -0.00000000000E+00 -0.18894657405E+03  0.18894657405E+03  0.00000000000E+00 0.  1.
         23    2    1    2    0    0 -0.69596590827E+02 -0.97968970312E+02 -0.72784928798E+02  0.18811266568E+03  0.12508846681E+03 0.  0.
          5    1    3    3  502    0  0.13994775283E+02 -0.28100604962E+02  0.26011404556E+02  0.40982475541E+02  0.41800000000E+01 0. -1.
         -5    1    3    3    0  502 -0.83591366110E+02 -0.69868365350E+02 -0.98796333354E+02  0.14713019013E+03  0.41800000000E+01 0. -1.
        -11    1    1    2    0    0  0.27514611518E+02 -0.74707214795E+00 -0.19735264168E+02  0.33868755743E+02  0.00000000000E+00 0.  1.
         11    1    1    2    0    0  0.42081979309E+02  0.98716042460E+02  0.59134580250E+02  0.12252611396E+03  0.00000000000E+00 0. -1.
</event>
<event>
 7    1  0.5109948E-006  0.1624393E+03  0.7561462E-02  0.1185970E+00
         -1   -1    0    0    0  501 -0.00000000000E+00  0.00000000000E+00  0.26471013924E+02  0.26471013924E+02  0.00000000000E+00 0.  1.
          1   -1    0    0  501    0  0.00000000000E+00 -0.00000000000E+00 -0.11781145189E+04  0.11781145189E+04  0.00000000000E+00 0. -1.
         23    2    1    2    0    0  0.42303129148E+02 -0.13175909563E+03 -0.56414675445E+03  0.59418757415E+03  0.12508916298E+03 0.  0.
          5    1    3    3  502    0  0.17253726710E+02 -0.13616017438E+03 -0.54512794021E+03  0.56215587497E+03  0.41800000000E+01 0.  1.
         -5    1    3    3    0  502  0.25049402438E+02  0.44010787467E+01 -0.19018814245E+02  0.32031699174E+02  0.41800000000E+01 0.  1.
        -11    1    1    2    0    0 -0.11596644538E+02 -0.10869948911E+02 -0.28053401563E+02  0.32243313929E+02  0.00000000000E+00 0.  1.
         11    1    1    2    0    0 -0.30706484610E+02  0.14262904454E+03 -0.55944334891E+03  0.57815464470E+03  0.00000000000E+00 0. -1.
</event>
<event>
 7    1  0.5109948E-006  0.1197264E+03  0.7561462E-02  0.1243549E+00
          4   -1    0    0  501    0  0.00000000000E+00  0.00000000000E+00  0.72937538990E+02  0.72937538990E+02  0.00000000000E+00 0. -1.
         -4   -1    0    0    0  501 -0.00000000000E+00 -0.00000000000E+00 -0.33222114580E+03  0.33222114580E+03  0.00000000000E+00 0.  1.
         23    2    1    2    0    0 -0.53506575896E+02  0.76166444618E+02 -0.20351314853E+03  0.25637567337E+03  0.12508638344E+03 0.  0.
          5    1    3    3  502    0 -0.16766541326E+02  0.58823064312E+02 -0.14499621865E+02  0.62999851090E+02  0.41800000000E+01 0. -1.
         -5    1    3    3    0  502 -0.36740034570E+02  0.17343380306E+02 -0.18901352667E+03  0.19337582228E+03  0.41800000000E+01 0. -1.
        -11    1    1    2    0    0  0.51200352189E+02  0.91012174034E+01 -0.28093778588E+02  0.59106417738E+02  0.00000000000E+00 0. -1.
         11    1    1    2    0    0  0.23062237072E+01 -0.85267662022E+02 -0.27676679685E+02  0.89676593673E+02  0.00000000000E+00 0.  1.
</event>
<event>
 7    1  0.5109948E-006  0.1275300E+03  0.7561462E-02  0.1231168E+00
         -2   -1    0    0    0  501 -0.00000000000E+00  0.00000000000E+00  0.76322395860E+02  0.76322395860E+02  0.00000000000E+00 0.  1.
          2   -1    0    0  501    0  0.00000000000E+00 -0.00000000000E+00 -0.31211268346E+03  0.31211268346E+03  0.00000000000E+00 0. -1.
         23    2    1    2    0    0  0.61829907666E+02  0.47426822230E+02 -0.32245191068E+02  0.15086232918E+03  0.12508976405E+03 0.  0.
          5    1    3    3  502    0  0.95009583659E+02  0.95171347348E+01 -0.11681000428E+02  0.96287668014E+02  0.41800000000E+01 0.  1.
         -5    1    3    3    0  502 -0.33179675993E+02  0.37909687495E+02 -0.20564190640E+02  0.54574661168E+02  0.41800000000E+01 0.  1.
        -11    1    1    2    0    0 -0.47368405467E+02 -0.68554995804E+02 -0.19235993283E+03  0.20963276711E+03  0.00000000000E+00 0. -1.
         11    1    1    2    0    0 -0.14461502199E+02  0.21128173575E+02 -0.11185163693E+02  0.27939983023E+02  0.00000000000E+00 0.  1.
</event>
<event>
 7    1  0.5109948E-006  0.1006036E+03  0.7561462E-02  0.1279032E+00
         -1   -1    0    0    0  501 -0.00000000000E+00  0.00000000000E+00  0.16930232285E+03  0.16930232285E+03  0.00000000000E+00 0.  1.
          1   -1    0    0  501    0  0.00000000000E+00 -0.00000000000E+00 -0.10346394263E+03  0.10346394263E+03  0.00000000000E+00 0. -1.
         23    2    1    2    0    0  0.22330417410E+02  0.51751510470E+02  0.93897265358E+02  0.16625543107E+03  0.12508919034E+03 0.  0.
          5    1    3    3  502    0  0.30228703104E+02  0.74935031340E+02  0.13402137957E+02  0.82012944803E+02  0.41800000000E+01 0.  1.
         -5    1    3    3    0  502 -0.78982856942E+01 -0.23183520871E+02  0.80495127400E+02  0.84242486265E+02  0.41800000000E+01 0.  1.
        -11    1    1    2    0    0 -0.58660963169E+01 -0.70359911648E+02 -0.21836204701E+01  0.70637783455E+02  0.00000000000E+00 0.  1.
         11    1    1    2    0    0 -0.16464321093E+02  0.18608401178E+02 -0.25875264662E+02  0.35873050955E+02  0.00000000000E+00 0. -1.
</event>
<event>
 7    1  0.5109948E-006  0.1257517E+03  0.7561462E-02  0.1233899E+00
          1   -1    0    0  501    0  0.00000000000E+00  0.00000000000E+00  0.52251086694E+02  0.52251086694E+02  0.00000000000E+00 0. -1.
         -1   -1    0    0    0  501 -0.00000000000E+00 -0.00000000000E+00 -0.31413060098E+03  0.31413060098E+03  0.00000000000E+00 0.  1.
         23    2    1    2    0    0  0.32639126824E+02 -0.57327813141E+02 -0.13943147123E+03  0.19859751562E+03  0.12509215516E+03 0.  0.
          5    1    3    3  502    0 -0.64745846939E+00  0.38264433066E+02 -0.25698377035E+02  0.46286769412E+02  0.41800000000E+01 0. -1.
         -5    1    3    3    0  502  0.33286585293E+02 -0.95592246207E+02 -0.11373309419E+03  0.15231074621E+03  0.41800000000E+01 0. -1.
        -11    1    1    2    0    0 -0.61547391776E+02  0.20484054355E+02 -0.51740945855E+02  0.82974715397E+02  0.00000000000E+00 0.  1.
         11    1    1    2    0    0  0.28908264952E+02  0.36843758785E+02 -0.70707097203E+02  0.84809456659E+02  0.00000000000E+00 0. -1.
</event>
<event>
 7    1  0.5109948E-006  0.1210419E+03  0.7561462E-02  0.1241388E+00
          2   -1    0    0  501    0  0.00000000000E+00  0.00000000000E+00  0.38873595706E+02  0.38873595706E+02  0.00000000000E+00 0. -1.
         -2   -1    0    0    0  501 -0.00000000000E+00 -0.00000000000E+00 -0.39352410129E+03  0.39352410129E+03  0.00000000000E+00 0.  1.
         23    2    1    2    0    0 -0.53961537460E+02 -0.11808967189E+02 -0.17239495812E+03  0.22004332133E+03  0.12509093669E+03 0.  0.
          5    1    3    3  502    0 -0.21586685002E+02 -0.67694087479E+02 -0.78017923178E+02  0.10560654897E+03  0.41800000000E+01 0. -1.
         -5    1    3    3    0  502 -0.32374852458E+02  0.55885120290E+02 -0.94377034945E+02  0.11443677235E+03  0.41800000000E+01 0. -1.
        -11    1    1    2    0    0  0.42276454465E+02  0.50448157334E+02 -0.88632213588E+02  0.11039920501E+03  0.00000000000E+00 0. -1.
         11    1    1    2    0    0  0.11685082996E+02 -0.38639190145E+02 -0.93623333868E+02  0.10195517066E+03  0.00000000000E+00 0.  1.
</event>
<event>
 7    1  0.5109948E-006  0.1209453E+03  0.7561462E-02  0.1241546E+00
          2   -1    0    0  501    0  0.00000000000E+00  0.00000000000E+00  0.80735315975E+03  0.80735315975E+03  0.00000000000E+00 0. -1.
         -2   -1    0    0    0  501 -0.00000000000E+00 -0.00000000000E+00 -0.24504976493E+02  0.24504976493E+02  0.00000000000E+00 0.  1.
         23    2    1    2    0    0 -0.10173733524E+03 -0.12561129571E+02  0.45213470013E+03  0.48018954845E+03  0.12509175842E+03 0.  0.
          5    1    3    3  502    0 -0.75569551754E+01 -0.25714916492E+02  0.29661253171E+03  0.29785034979E+03  0.41800000000E+01 0. -1.
         -5    1    3    3    0  502 -0.94180380067E+02  0.13153786921E+02  0.15552216841E+03  0.18233919866E+03  0.41800000000E+01 0. -1.
        -11    1    1    2    0    0  0.35639723090E+02 -0.25018447863E+02  0.11945163654E+03  0.12714089062E+03  0.00000000000E+00 0. -1.
         11    1    1    2    0    0  0.66097612153E+02  0.37579577434E+02  0.21126184659E+03  0.22452769717E+03  0.00000000000E+00 0.  1.
</event>
<event>
 7    1  0.5861299E-006  0.1775886E+03  0.7561462E-02  0.1170157E+00
         -2   -1    0    0    0  501 -0.00000000000E+00  0.00000000000E+00  0.59509217492E+02  0.59509217492E+02  0.00000000000E+00 0.  1.
          2   -1    0    0  501    0  0.00000000000E+00 -0.00000000000E+00 -0.67756406306E+03  0.67756406306E+03  0.00000000000E+00 0. -1.
         23    2    1    2    0    0 -0.16652958638E+03  0.11711001501E+01 -0.27489165291E+03  0.34488623282E+03  0.12509043980E+03 0.  0.
          5    1    3    3  502    0 -0.31805122288E+02 -0.34395163296E+01  0.64387488933E+01  0.32898722827E+02  0.41800000000E+01 0. -1.
         -5    1    3    3    0  502 -0.13472446409E+03  0.46106164796E+01 -0.28133040181E+03  0.31198750999E+03  0.41800000000E+01 0. -1.
        -11    1    1    2    0    0  0.57068171674E+02 -0.42381967472E+02 -0.10422965912E+03  0.12616191670E+03  0.00000000000E+00 0.  1.
         11    1    1    2    0    0  0.10946141471E+03  0.41210867322E+02 -0.23893353353E+03  0.26602513103E+03  0.00000000000E+00 0. -1.
</event>
<event>
 7    1  0.5109948E-006  0.1653853E+03  0.7561462E-02  0.1182748E+00
          4   -1    0    0  501    0  0.00000000000E+00  0.00000000000E+00  0.10154614776E+03  0.10154614776E+03  0.00000000000E+00 0. -1.
         -4   -1    0    0    0  501 -0.00000000000E+00 -0.00000000000E+00 -0.29371364385E+03  0.29371364385E+03  0.00000000000E+00 0.  1.
         23    2    1    2    0    0 -0.80460101922E+02 -0.99588321154E+02 -0.14386655038E+03  0.22964443806E+03  0.12508925575E+03 0.  0.
          5    1    3    3  502    0 -0.67731102060E+02 -0.12635761881E+03 -0.13820694908E+03  0.19917927400E+03  0.41800000000E+01 0.  1.
         -5    1    3    3    0  502 -0.12728999862E+02  0.26769297653E+02 -0.56596012946E+01  0.30465164059E+02  0.41800000000E+01 0.  1.
        -11    1    1    2    0    0 -0.38940970750E+01  0.66789094810E+02 -0.11359251709E+02  0.67860001304E+02  0.00000000000E+00 0. -1.
         11    1    1    2    0    0  0.84354198997E+02  0.32799226344E+02 -0.36941693999E+02  0.97755352246E+02  0.00000000000E+00 0.  1.
</event>
<event>
 7    1  0.6601644E-006  0.2058950E+03  0.7561462E-02  0.1144859E+00
         -1   -1    0    0    0  501 -0.00000000000E+00  0.00000000000E+00  0.24115813782E+03  0.24115813782E+03  0.00000000000E+00 0.  1.
          1   -1    0    0  501    0  0.00000000000E+00 -0.00000000000E+00 -0.22714917208E+03  0.22714917208E+03  0.00000000000E+00 0. -1.
         23    2    1    2    0    0 -0.15187549461E+03 -0.13497752652E+03  0.41232239770E+02  0.24214107338E+03  0.12508838191E+03 0.  0.
          5    1    3    3  502    0 -0.61956784756E+02 -0.28295979091E+02 -0.41511559126E+02  0.79874824263E+02  0.41800000000E+01 0. -1.
         -5    1    3    3    0  502 -0.89918709857E+02 -0.10668154743E+03  0.82743798896E+02  0.16226624911E+03  0.41800000000E+01 0. -1.
        -11    1    1    2    0    0  0.10838964353E+03  0.85194022386E+02  0.27226626450E+02  0.14052624475E+03  0.00000000000E+00 0.  1.
         11    1    1    2    0    0  0.43485851081E+02  0.49783504138E+02 -0.54449900486E+02  0.85639991776E+02  0.00000000000E+00 0. -1.
</event>
<event>
 7    1  0.5109948E-006  0.1200771E+03  0.7561462E-02  0.1242970E+00
          2   -1    0    0  501    0  0.00000000000E+00  0.00000000000E+00  0.32013832501E+02  0.32013832501E+02  0.00000000000E+00 0. -1.
         -2   -1    0    0    0  501 -0.00000000000E+00 -0.00000000000E+00 -0.48826212824E+03  0.48826212824E+03  0.00000000000E+00 0.  1.
         23    2    1    2    0    0 -0.24714637619E+02  0.52386656486E+02 -0.30288298150E+03  0.33277834624E+03  0.12509257433E+03 0.  0.
          5    1    3    3  502    0  0.21361574861E+01  0.90307171870E+02 -0.21593412598E+03  0.23410460829E+03  0.41800000000E+01 0. -1.
         -5    1    3    3    0  502 -0.26850795105E+02 -0.37920515384E+02 -0.86948855515E+02  0.98673737946E+02  0.41800000000E+01 0. -1.
        -11    1    1    2    0    0 -0.32015637129E+02 -0.19999524723E+02 -0.31240388906E+02  0.48999427639E+02  0.00000000000E+00 0. -1.
         11    1    1    2    0    0  0.56730274747E+02 -0.32387131763E+02 -0.12212492534E+03  0.13849818687E+03  0.00000000000E+00 0.  1.
</event>
<event>
 7    1  0.5109948E-006  0.1291186E+03  0.7561462E-02  0.1228769E+00
          3   -1    0    0  501    0  0.00000000000E+00  0.00000000000E+00  0.63115697635E+02  0.63115697635E+02  0.00000000000E+00 0. -1.
         -3   -1    0    0    0  501 -0.00000000000E+00 -0.00000000000E+00 -0.30420935557E+03  0.30420935557E+03  0.00000000000E+00 0.  1.
         23    2    1    2    0    0  0.58166177875E+02 -0.62984195284E+02 -0.14458189334E+03  0.20952535397E+03  0.12508651794E+03 0.  0.
          5    1    3    3  502    0 -0.72553076446E+01  0.30209450138E+02 -0.59744438453E+02  0.67469405606E+02  0.41800000000E+01 0. -1.
         -5    1    3    3    0  502  0.65421485519E+02 -0.93193645422E+02 -0.84837454888E+02  0.14205594837E+03  0.41800000000E+01 0. -1.
        -11    1    1    2    0    0 -0.58589104916E+02  0.93718149726E+01 -0.16677344074E+02  0.61633172367E+02  0.00000000000E+00 0. -1.
         11    1    1    2    0    0  0.42292704104E+00  0.53612380311E+02 -0.79834420524E+02  0.96166526870E+02  0.00000000000E+00 0.  1.
</event>
<event>
 7    1  0.5109948E-006  0.1666081E+03  0.7561462E-02  0.1181432E+00
         -1   -1    0    0    0  501 -0.00000000000E+00  0.00000000000E+00  0.16997774422E+03  0.16997774422E+03  0.00000000000E+00 0.  1.
          1   -1    0    0  501    0  0.00000000000E+00 -0.00000000000E+00 -0.21544277805E+03  0.21544277805E+03  0.00000000000E+00 0. -1.
         23    2    1    2    0    0  0.10563310716E+03  0.10788515371E+03  0.19363762833E+02  0.19702776465E+03  0.12508966790E+03 0.  0.
          5    1    3    3  502    0  0.18400133300E+02  0.45807615738E+02  0.64016833962E+02  0.80947699137E+02  0.41800000000E+01 0.  1.
         -5    1    3    3    0  502  0.87232973860E+02  0.62077537973E+02 -0.44653071130E+02  0.11608006552E+03  0.41800000000E+01 0.  1.
        -11    1    1    2    0    0 -0.11345561462E+03 -0.60651917188E+02 -0.41838479430E+02  0.13528226014E+03  0.00000000000E+00 0.  1.
         11    1    1    2    0    0  0.78225074585E+01 -0.47233236523E+02 -0.22990317233E+02  0.53110497473E+02  0.00000000000E+00 0. -1.
</event>
<event>
 7    1  0.5109948E-006  0.8591759E+02  0.7561462E-02  0.1313050E+00
         -1   -1    0    0    0  501 -0.00000000000E+00  0.00000000000E+00  0.35678793812E+03  0.35678793812E+03  0.00000000000E+00 0.  1.
          1   -1    0    0  501    0  0.00000000000E+00 -0.00000000000E+00 -0.33873215618E+02  0.33873215618E+02  0.00000000000E+00 0. -1.
         23    2    1    2    0    0 -0.16696016395E+02  0.94350504526E+01  0.18603464414E+03  0.22499963746E+03  0.12509264925E+03 0.  0.
          5    1    3    3  502    0 -0.49759344836E+02  0.15266556817E+02  0.18382213912E+03  0.19109450905E+03  0.41800000000E+01 0. -1.
         -5    1    3    3    0  502  0.33063328441E+02 -0.58315063648E+01  0.22125050123E+01  0.33905128410E+02  0.41800000000E+01 0. -1.
        -11    1    1    2    0    0  0.50551514104E+02  0.32247728257E+00  0.46617079068E+02  0.68765628265E+02  0.00000000000E+00 0.  1.
         11    1    1    2    0    0 -0.33855497709E+02 -0.97575277352E+01  0.90262999302E+02  0.96895888022E+02  0.00000000000E+00 0. -1.
</event>
<event>
 7    1  0.5109948E-006  0.1877733E+03  0.7561462E-02  0.1160485E+00
         -1   -1    0    0    0  501 -0.00000000000E+00  0.00000000000E+00  0.90317779803E+02  0.90317779803E+02  0.00000000000E+00 0.  1.
          1   -1    0    0  501    0  0.00000000000E+00 -0.00000000000E+00 -0.49241858731E+03  0.49241858731E+03  0.00000000000E+00 0. -1.
         23    2    1    2    0    0 -0.26836447508E+01 -0.17758183405E+03 -0.18333969928E+03  0.28425817163E+03  0.12508698202E+03 0.  0.
          5    1    3    3  502    0 -0.44266066626E+02 -0.90095093498E+02 -0.33732773966E+02  0.10598105003E+03  0.41800000000E+01 0. -1.
         -5    1    3    3    0  502  0.41582421876E+02 -0.87486740553E+02 -0.14960692532E+03  0.17827712160E+03  0.41800000000E+01 0. -1.
        -11    1    1    2    0    0  0.82026337510E+01  0.93955179866E+02 -0.18590388182E+03  0.20845889835E+03  0.00000000000E+00 0. -1.
         11    1    1    2    0    0 -0.55189890002E+01  0.83626654184E+02 -0.32857226402E+02  0.90019297134E+02  0.00000000000E+00 0.  1.
</event>
<event>
 7    1  0.5109948E-006  0.1086422E+03  0.7561462E-02  0.1263105E+00
         -3   -1    0    0    0  501 -0.00000000000E+00  0.00000000000E+00  0.25005008286E+03  0.25005008286E+03  0.00000000000E+00 0.  1.
          3   -1    0    0  501    0  0.00000000000E+00 -0.00000000000E+00 -0.82476280776E+02  0.82476280776E+02  0.00000000000E+00 0. -1.
         23    2    1    2    0    0 -0.52850883363E+02 -0.76194793719E+02  0.10508198165E+03  0.18785595105E+03  0.12509505593E+03 0.  0.
          5    1    3    3  502    0  0.10613456618E+02  0.53953441398E+01 -0.21162438504E+02  0.24638920496E+02  0.41800000000E+01 0. -1.
         -5    1    3    3    0  502 -0.63464339981E+02 -0.81590137859E+02  0.12624442015E+03  0.16321703056E+03  0.41800000000E+01 0. -1.
        -11    1    1    2    0    0  0.22921349700E+02  0.65560790654E+02  0.81949911671E+02  0.10742156937E+03  0.00000000000E+00 0.  1.
         11    1    1    2    0    0  0.29929533664E+02  0.10634003065E+02 -0.19458091231E+02  0.37248843215E+02  0.00000000000E+00 0. -1.
</event>
<event>
 7    1  0.5109948E-006  0.1086023E+03  0.7561462E-02  0.1263180E+00
         -1   -1    0    0    0  501 -0.00000000000E+00  0.00000000000E+00  0.41681463416E+02  0.41681463416E+02  0.00000000000E+00 0.  1.
          1   -1    0    0  501    0  0.00000000000E+00 -0.00000000000E+00 -0.39119130602E+03  0.39119130602E+03  0.00000000000E+00 0. -1.
         23    2    1    2    0    0 -0.64074227970E+02 -0.10768656607E+02 -0.17395574614E+03  0.22389628507E+03  0.12508986448E+03 0.  0.
          5    1    3    3  502    0 -0.25501467076E+02  0.38967981745E+02 -0.94393171157E+01  0.47701169083E+02  0.41800000000E+01 0.  1.
         -5    1    3    3    0  502 -0.38572760894E+02 -0.49736638353E+02 -0.16451642902E+03  0.17619511598E+03  0.41800000000E+01 0.  1.
        -11    1    1    2    0    0  0.59705094268E+02 -0.29685273958E+02 -0.74186846680E+02  0.99747691662E+02  0.00000000000E+00 0.  1.
         11    1    1    2    0    0  0.43691337019E+01  0.40453930566E+02 -0.10136724979E+03  0.10922879271E+03  0.00000000000E+00 0. -1.
</event>
<event>
 7    1  0.5109948E-006  0.9449726E+02  0.7561462E-02  0.1292312E+00
         -2   -1    0    0    0  501 -0.00000000000E+00  0.00000000000E+00  0.55740693596E+03  0.55740693596E+03  0.00000000000E+00 0.  1.
          2   -1    0    0  501    0  0.00000000000E+00 -0.00000000000E+00 -0.24945505457E+02  0.24945505457E+02  0.00000000000E+00 0. -1.
         23    2    1    2    0    0  0.46448223953E+02 -0.16351581752E+01  0.30677593111E+03  0.33454319431E+03  0.12509023022E+03 0.  0.
          5    1    3    3  502    0  0.63342823662E+02  0.12493356833E+02  0.64932173502E+02  0.91662734141E+02  0.41800000000E+01 0. -1.
         -5    1    3    3    0  502 -0.16894599710E+02 -0.14128515008E+02  0.24184375761E+03  0.24288046016E+03  0.41800000000E+01 0. -1.
        -11    1    1    2    0    0 -0.66667953492E+02  0.24799995607E+02  0.14625830105E+03  0.16263808420E+03  0.00000000000E+00 0. -1.
         11    1    1    2    0    0  0.20219729540E+02 -0.23164837431E+02  0.79427198338E+02  0.85171162912E+02  0.00000000000E+00 0.  1.
</event>
<event>
 7    1  0.5109948E-006  0.1615970E+03  0.7561462E-02  0.1186905E+00
         -1   -1    0    0    0  501 -0.00000000000E+00  0.00000000000E+00  0.22808683326E+02  0.22808683326E+02  0.00000000000E+00 0.  1.
          1   -1    0    0  501    0  0.00000000000E+00 -0.00000000000E+00 -0.14066578189E+04  0.14066578189E+04  0.00000000000E+00 0. -1.
         23    2    1    2    0    0 -0.32264809211E+02  0.13097378440E+03 -0.76392672320E+03  0.78562793064E+03  0.12422583011E+03 0.  0.
          5    1    3    3  502    0 -0.85734241670E+01 -0.64021845341E+01 -0.27931498242E+01  0.11822252522E+02  0.41800000000E+01 0. -1.
         -5    1    3    3    0  502 -0.23691385044E+02  0.13737596893E+03 -0.76113357337E+03  0.77380567812E+03  0.41800000000E+01 0. -1.
        -11    1    1    2    0    0  0.72055223447E+02 -0.85648861336E+02 -0.44289070363E+03  0.45681490566E+03  0.00000000000E+00 0. -1.
         11    1    1    2    0    0 -0.39790414236E+02 -0.45324923062E+02 -0.17703170879E+03  0.18702366597E+03  0.00000000000E+00 0.  1.
</event>
<event>
 7    1  0.5109948E-006  0.1202816E+03  0.7561462E-02  0.1242633E+00
         -3   -1    0    0    0  501 -0.00000000000E+00  0.00000000000E+00  0.26369720324E+03  0.26369720324E+03  0.00000000000E+00 0.  1.
          3   -1    0    0  501    0  0.00000000000E+00 -0.00000000000E+00 -0.84765548763E+02  0.84765548763E+02  0.00000000000E+00 0. -1.
         23    2    1    2    0    0 -0.73662276737E+02 -0.26759546162E+02  0.17896332679E+03  0.22807391551E+03  0.11767597152E+03 0.  0.
          5    1    3    3  502    0 -0.70630879910E+02 -0.68650444326E+02  0.13457409447E+03  0.16682105384E+03  0.41800000000E+01 0. -1.
         -5    1    3    3    0  502 -0.30313968266E+01  0.41890898164E+02  0.44389232326E+02  0.61252861665E+02  0.41800000000E+01 0.  1.
        -11    1    1    2    0    0  0.39073891144E+02  0.45867477650E+02  0.33165999225E+02  0.68779197289E+02  0.00000000000E+00 0.  1.
         11    1    1    2    0    0  0.34588385593E+02 -0.19107931488E+02 -0.33197671540E+02  0.51609639210E+02  0.00000000000E+00 0. -1.
</event>
<event>
 6    1  0.5109948E-006  0.6372838E+02  0.7561462E-02  0.1382820E+00
         -2   -1    0    0    0  501 -0.00000000000E+00  0.00000000000E+00  0.15085841467E+02  0.15085841467E+02  0.00000000000E+00 0.  1.
          2   -1    0    0  501    0  0.00000000000E+00 -0.00000000000E+00 -0.47565741345E+03  0.47565741345E+03  0.00000000000E+00 0. -1.
          5    1    1    2  502    0 -0.18790865816E+02 -0.40165445760E+02 -0.31775406521E+03  0.32086052738E+03  0.41800000000E+01 0. -1.
         -5    1    1    2    0  502  0.17037613378E+02  0.50788013430E+02 -0.54180173086E+02  0.76306396412E+02  0.41800000000E+01 0.  1.
        -11    1    1    2    0    0  0.12109683925E+02 -0.13791706220E+02 -0.44644341185E+02  0.48269791848E+02  0.00000000000E+00 0. -1.
         11    1    1    2    0    0 -0.10356431486E+02  0.31691385506E+01 -0.43992992501E+02  0.45306539279E+02  0.00000000000E+00 0.  1.
</event>
<event>
 7    1  0.5109948E-006  0.2012768E+03  0.7561462E-02  0.1148666E+00
          4   -1    0    0  501    0  0.00000000000E+00  0.00000000000E+00  0.29168369632E+03  0.29168369632E+03  0.00000000000E+00 0. -1.
         -4   -1    0    0    0  501 -0.00000000000E+00 -0.00000000000E+00 -0.17996204193E+03  0.17996204193E+03  0.00000000000E+00 0.  1.
         23    2    1    2    0    0 -0.15435350962E+03  0.12716975686E+03  0.23879810605E+02  0.23710266840E+03  0.12510106721E+03 0.  0.
          5    1    3    3  502    0 -0.12189699588E+03  0.10474959481E+03 -0.36491690389E+02  0.16486500867E+03  0.41800000000E+01 0.  1.
         -5    1    3    3    0  502 -0.32456513737E+02  0.22420162047E+02  0.60371500994E+02  0.72237659724E+02  0.41800000000E+01 0.  1.
        -11    1    1    2    0    0  0.15733118364E+02 -0.26399724415E+02 -0.15498841804E+02  0.34419334101E+02  0.00000000000E+00 0.  1.
         11    1    1    2    0    0  0.13862039126E+03 -0.10077003244E+03  0.10334068559E+03  0.20012373574E+03  0.00000000000E+00 0. -1.
</event>
<event>
 7    1  0.5109948E-006  0.1173318E+03  0.7561462E-02  0.1247565E+00
         -1   -1    0    0    0  501 -0.00000000000E+00  0.00000000000E+00  0.23979693436E+02  0.23979693436E+02  0.00000000000E+00 0. -1.
          1   -1    0    0  501    0  0.00000000000E+00 -0.00000000000E+00 -0.68120483837E+03  0.68120483837E+03  0.00000000000E+00 0.  1.
         23    2    1    2    0    0  0.28782444856E+02  0.61502164589E+02 -0.35204241530E+03  0.37976926270E+03  0.12521934893E+03 0.  0.
          5    1    3    3  502    0  0.29518164266E+02 -0.33904401726E+02 -0.86456177678E+02  0.97534473581E+02  0.41800000000E+01 0.  1.
         -5    1    3    3    0  502 -0.73571940995E+00  0.95406566316E+02 -0.26558623762E+03  0.28223478912E+03  0.41800000000E+01 0.  1.
        -11    1    1    2    0    0 -0.48840469463E+02 -0.32179537852E+02 -0.26671208940E+03  0.27304990889E+03  0.00000000000E+00 0.  1.
         11    1    1    2    0    0  0.20058024607E+02 -0.29322626737E+02 -0.38470640246E+02  0.52365360219E+02  0.00000000000E+00 0. -1.
</event>
<event>
 7    1  0.5109948E-006  0.1005758E+03  0.7561462E-02  0.1279090E+00
         -1   -1    0    0    0  501 -0.00000000000E+00  0.00000000000E+00  0.30767664148E+02  0.30767664148E+02  0.00000000000E+00 0.  1.
          1   -1    0    0  501    0  0.00000000000E+00 -0.00000000000E+00 -0.52492008606E+03  0.52492008606E+03  0.00000000000E+00 0. -1.
         23    2    1    2    0    0 -0.62930819013E+02  0.91095488225E+01 -0.23303186924E+03  0.27201989252E+03  0.12509075899E+03 0.  0.
          5    1    3    3  502    0 -0.23575721363E+02  0.42350355459E+02 -0.19651271589E+02  0.52469153989E+02  0.41800000000E+01 0.  1.
         -5    1    3    3    0  502 -0.39355097650E+02 -0.33240806636E+02 -0.21338059765E+03  0.21955073853E+03  0.41800000000E+01 0.  1.
        -11    1    1    2    0    0 -0.15097004771E+02  0.12776917336E+02 -0.11401087340E+03  0.11571364838E+03  0.00000000000E+00 0.  1.
         11    1    1    2    0    0  0.78027823784E+02 -0.21886466159E+02 -0.14710967927E+03  0.16795420930E+03  0.00000000000E+00 0. -1.
</event>
<event>
 7    1  0.5109948E-006  0.2877246E+03  0.7561462E-02  0.1091543E+00
          1   -1    0    0  501    0  0.00000000000E+00  0.00000000000E+00  0.59062420102E+03  0.59062420102E+03  0.00000000000E+00 0. -1.
         -1   -1    0    0    0  501 -0.00000000000E+00 -0.00000000000E+00 -0.14993864338E+03  0.14993864338E+03  0.00000000000E+00 0.  1.
         23    2    1    2    0    0 -0.14694321186E+03 -0.22745441950E+03  0.15327855751E+03  0.33536532479E+03  0.12509102455E+03 0.  0.
          5    1    3    3  502    0 -0.22825077924E+02  0.76067699312E+01  0.38953623408E+02  0.45975040050E+02  0.41800000000E+01 0.  1.
         -5    1    3    3    0  502 -0.12411813393E+03 -0.23506118943E+03  0.11432493410E+03  0.28939028474E+03  0.41800000000E+01 0.  1.
        -11    1    1    2    0    0  0.85284405806E+02  0.53636550610E+02  0.90832175664E+02  0.13564952477E+03  0.00000000000E+00 0.  1.
         11    1    1    2    0    0  0.61658806050E+02  0.17381786889E+03  0.19657482446E+03  0.26954799483E+03  0.00000000000E+00 0. -1.
</event>
<event>
 7    1  0.5109948E-006  0.1059022E+03  0.7561462E-02  0.1268352E+00
         -1   -1    0    0    0  501 -0.00000000000E+00  0.00000000000E+00  0.30289116432E+03  0.30289116432E+03  0.00000000000E+00 0.  1.
          1   -1    0    0  501    0  0.00000000000E+00 -0.00000000000E+00 -0.63806610888E+02  0.63806610888E+02  0.00000000000E+00 0. -1.
         23    2    1    2    0    0 -0.46612385036E+02 -0.41167953312E+02  0.18406849915E+03  0.23107759056E+03  0.12509246845E+03 0.  0.
          5    1    3    3  502    0 -0.40544079258E+01 -0.63370527314E+02  0.31354060888E+02  0.70942310999E+02  0.41800000000E+01 0. -1.
         -5    1    3    3    0  502 -0.42557977110E+02  0.22202574003E+02  0.15271443826E+03  0.16013527956E+03  0.41800000000E+01 0. -1.
        -11    1    1    2    0    0 -0.22241589792E+02  0.10944974349E+02  0.55106327670E+02  0.60425062096E+02  0.00000000000E+00 0.  1.
         11    1    1    2    0    0  0.68853974828E+02  0.30222978963E+02 -0.90273379752E-01  0.75195122556E+02  0.00000000000E+00 0. -1.
</event>
<event>
 7    1  0.5109948E-006  0.1032949E+03  0.7561462E-02  0.1273516E+00
          2   -1    0    0  501    0  0.00000000000E+00  0.00000000000E+00  0.30816546265E+03  0.30816546265E+03  0.00000000000E+00 0. -1.
         -2   -1    0    0    0  501 -0.00000000000E+00 -0.00000000000E+00 -0.67043174175E+02  0.67043174175E+02  0.00000000000E+00 0.  1.
         23    2    1    2    0    0  0.46449027318E+02  0.29277301075E+02  0.38851077815E+02  0.14202636991E+03  0.12508961190E+03 0.  0.
          5    1    3    3  502    0 -0.33567942343E+02 -0.13140609591E+02  0.36300615876E+02  0.51329226436E+02  0.41800000000E+01 0.  1.
         -5    1    3    3    0  502  0.80016969661E+02  0.42417910666E+02  0.25504619398E+01  0.90697143478E+02  0.41800000000E+01 0.  1.
        -11    1    1    2    0    0 -0.39041345942E+02  0.94832391256E+01  0.16780145265E+02  0.43540002209E+02  0.00000000000E+00 0.  1.
         11    1    1    2    0    0 -0.74076813766E+01 -0.38760540201E+02  0.18549106540E+03  0.18964226470E+03  0.00000000000E+00 0. -1.
</event>
<event>
 7    1  0.5109948E-006  0.1234960E+03  0.7561462E-02  0.1237439E+00
          4   -1    0    0  501    0  0.00000000000E+00  0.00000000000E+00  0.28992902504E+02  0.28992902504E+02  0.00000000000E+00 0. -1.
         -4   -1    0    0    0  501 -0.00000000000E+00 -0.00000000000E+00 -0.58833625631E+03  0.58833625631E+03  0.00000000000E+00 0.  1.
         23    2    1    2    0    0 -0.79423297320E+01  0.70822531827E+02 -0.34018825949E+03  0.36940094842E+03  0.12510034844E+03 0.  0.
          5    1    3    3  502    0  0.68018605041E+01 -0.35097570455E+02 -0.68230614135E+02  0.77142685093E+02  0.41800000000E+01 0.  1.
         -5    1    3    3    0  502 -0.14744190236E+02  0.10592010228E+03 -0.27195764536E+03  0.29225826332E+03  0.41800000000E+01 0.  1.
        -11    1    1    2    0    0  0.41479960493E+02 -0.30267476577E+02 -0.16331614725E+03  0.17119833882E+03  0.00000000000E+00 0.  1.
         11    1    1    2    0    0 -0.33537630761E+02 -0.40555055251E+02 -0.55838947059E+02  0.76729871576E+02  0.00000000000E+00 0. -1.
</event>
<event>
 7    1  0.5109948E-006  0.1122112E+03  0.7561462E-02  0.1256529E+00
          2   -1    0    0  501    0  0.00000000000E+00  0.00000000000E+00  0.17781971063E+03  0.17781971063E+03  0.00000000000E+00 0. -1.
         -2   -1    0    0    0  501 -0.00000000000E+00 -0.00000000000E+00 -0.11124886805E+03  0.11124886805E+03  0.00000000000E+00 0.  1.
         23    2    1    2    0    0 -0.45751322433E+02  0.77079510462E+02  0.27817033536E+02  0.15631562165E+03  0.12500540700E+03 0.  0.
          5    1    3    3  502    0 -0.68418074003E+02  0.18411767681E+02  0.52853047834E+02  0.88492616103E+02  0.41800000000E+01 0. -1.
         -5    1    3    3    0  502  0.22666751571E+02  0.58667742781E+02 -0.25036014298E+02  0.67823005549E+02  0.41800000000E+01 0. -1.
        -11    1    1    2    0    0  0.22229458525E+02 -0.26194912729E+02 -0.28898062228E+02  0.44893432479E+02  0.00000000000E+00 0.  1.
         11    1    1    2    0    0  0.23521863907E+02 -0.50884597732E+02  0.67651871268E+02  0.87859524549E+02  0.00000000000E+00 0. -1.
</event>
<event>
 7    1  0.5109948E-006  0.1126496E+03  0.7561462E-02  0.1255740E+00
          2   -1    0    0  501    0  0.00000000000E+00  0.00000000000E+00  0.53408495156E+02  0.53408495156E+02  0.00000000000E+00 0.  1.
         -2   -1    0    0    0  501 -0.00000000000E+00 -0.00000000000E+00 -0.46972104910E+03  0.46972104910E+03  0.00000000000E+00 0. -1.
         23    2    1    2    0    0  0.10662863396E+03 -0.14516416525E+02 -0.27056282061E+03  0.31691219933E+03  0.12509480507E+03 0.  0.
          5    1    3    3  502    0  0.16460310154E+02 -0.13315783123E+02 -0.20303049177E+03  0.20417420228E+03  0.41800000000E+01 0.  1.
         -5    1    3    3    0  502  0.90168323808E+02 -0.12006334024E+01 -0.67532328846E+02  0.11273799705E+03  0.41800000000E+01 0.  1.
        -11    1    1    2    0    0 -0.47745980946E+02  0.24592013133E+02 -0.57610709462E+01  0.54015143663E+02  0.00000000000E+00 0.  1.
         11    1    1    2    0    0 -0.58882653016E+02 -0.10075596608E+02 -0.13998866239E+03  0.15220220127E+03  0.00000000000E+00 0. -1.
</event>
<event>
 7    1  0.5109948E-006  0.1016709E+03  0.7561462E-02  0.1276821E+00
         -1   -1    0    0    0  501 -0.00000000000E+00  0.00000000000E+00  0.25103511699E+02  0.25103511699E+02  0.00000000000E+00 0.  1.
          1   -1    0    0  501    0  0.00000000000E+00 -0.00000000000E+00 -0.51996889501E+03  0.51996889501E+03  0.00000000000E+00 0. -1.
         23    2    1    2    0    0  0.24872433913E+02  0.29696276026E+02 -0.29213790475E+03  0.32013760787E+03  0.12507208241E+03 0.  0.
          5    1    3    3  502    0  0.46570828988E+02  0.55863176351E+02 -0.26928312004E+03  0.27896309383E+03  0.41800000000E+01 0. -1.
         -5    1    3    3    0  502 -0.21698395075E+02 -0.26166900325E+02 -0.22854784715E+02  0.41174514032E+02  0.41800000000E+01 0. -1.
        -11    1    1    2    0    0 -0.11296752399E+02  0.31549632872E+02 -0.88203449667E+02  0.94354885842E+02  0.00000000000E+00 0. -1.
         11    1    1    2    0    0 -0.13575681515E+02 -0.61245908899E+02 -0.11452402889E+03  0.13057991300E+03  0.00000000000E+00 0.  1.
</event>
<event>
 7    1  0.5109948E-006  0.1294393E+03  0.7561462E-02  0.1228290E+00
          2   -1    0    0  501    0  0.00000000000E+00  0.00000000000E+00  0.77593334241E+03  0.77593334241E+03  0.00000000000E+00 0.  1.
         -2   -1    0    0    0  501 -0.00000000000E+00 -0.00000000000E+00 -0.23711711405E+02  0.23711711405E+02  0.00000000000E+00 0. -1.
         23    2    1    2    0    0  0.76822750571E+02 -0.23124129984E+02  0.40855966726E+03  0.43474829648E+03  0.12509444107E+03 0.  0.
          5    1    3    3  502    0 -0.23194144540E+02 -0.40631083940E+02  0.12625223488E+03  0.13470691346E+03  0.41800000000E+01 0. -1.
         -5    1    3    3    0  502  0.10001689511E+03  0.17506953956E+02  0.28230743239E+03  0.30004138302E+03  0.41800000000E+01 0. -1.
        -11    1    1    2    0    0 -0.65279756881E+02  0.49215164489E+02  0.31082590536E+03  0.32139745257E+03  0.00000000000E+00 0. -1.
         11    1    1    2    0    0 -0.11542993690E+02 -0.26091034505E+02  0.32836058377E+02  0.43499304760E+02  0.00000000000E+00 0.  1.
</event>
<event>
 7    1  0.5109948E-006  0.1023984E+03  0.7561462E-02  0.1275332E+00
         -1   -1    0    0    0  501 -0.00000000000E+00  0.00000000000E+00  0.24479974650E+02  0.24479974650E+02  0.00000000000E+00 0.  1.
          1   -1    0    0  501    0  0.00000000000E+00 -0.00000000000E+00 -0.59762307953E+03  0.59762307953E+03  0.00000000000E+00 0. -1.
         23    2    1    2    0    0 -0.14922068375E+02  0.18669270992E+02 -0.19881770931E+03  0.23611023787E+03  0.12509337748E+03 0.  0.
          5    1    3    3  502    0 -0.16086813552E+02  0.64657935035E+02 -0.59827686721E+02  0.89645181865E+02  0.41800000000E+01 0.  1.
         -5    1    3    3    0  502  0.11647451769E+01 -0.45988664043E+02 -0.13899002259E+03  0.14646505600E+03  0.41800000000E+01 0.  1.
        -11    1    1    2    0    0  0.52424157544E+02 -0.10920173631E+02 -0.17451747089E+03  0.18254832273E+03  0.00000000000E+00 0.  1.
         11    1    1    2    0    0 -0.37502089168E+02 -0.77490973605E+01 -0.19980792468E+03  0.20344449358E+03  0.00000000000E+00 0. -1.
</event>
<event>
 7    1  0.5109948E-006  0.1471971E+03  0.7561462E-02  0.1203960E+00
          2   -1    0    0  501    0  0.00000000000E+00  0.00000000000E+00  0.39132661605E+02  0.39132661605E+02  0.00000000000E+00 0. -1.
         -2   -1    0    0    0  501 -0.00000000000E+00 -0.00000000000E+00 -0.76003426418E+03  0.76003426418E+03  0.00000000000E+00 0.  1.
         23    2    1    2    0    0  0.41449304052E+02 -0.12554904882E+03 -0.40070419684E+03  0.43998071782E+03  0.12465380148E+03 0.  0.
          5    1    3    3  502    0  0.41779654489E+02 -0.12230155443E+03 -0.19362282429E+03  0.23283144167E+03  0.41800000000E+01 0. -1.
         -5    1    3    3    0  502 -0.33035043734E+00 -0.32474943869E+01 -0.20708137256E+03  0.20714927616E+03  0.41800000000E+01 0. -1.
        -11    1    1    2    0    0  0.27974835414E+02  0.49134874193E+02 -0.14771578512E+03  0.15816693856E+03  0.00000000000E+00 0. -1.
         11    1    1    2    0    0 -0.69424139467E+02  0.76414174622E+02 -0.17248162061E+03  0.20101926941E+03  0.00000000000E+00 0.  1.
</event>
<event>
 7    1  0.5109948E-006  0.9958969E+02  0.7561462E-02  0.1281161E+00
          2   -1    0    0  501    0  0.00000000000E+00  0.00000000000E+00  0.40649390871E+02  0.40649390871E+02  0.00000000000E+00 0. -1.
         -2   -1    0    0    0  501 -0.00000000000E+00 -0.00000000000E+00 -0.72964418838E+03  0.72964418838E+03  0.00000000000E+00 0.  1.
         23    2    1    2    0    0 -0.25731728603E+00  0.14730552679E+02 -0.66632055277E+03  0.67644822547E+03  0.11568088566E+03 0.  0.
          5    1    3    3  502    0  0.31211788522E+02  0.51942713462E+02 -0.25044281114E+03  0.25770389069E+03  0.41800000000E+01 0. -1.
         -5    1    3    3    0  502 -0.31469105808E+02 -0.37212160783E+02 -0.41587774162E+03  0.41874433478E+03  0.41800000000E+01 0.  1.
        -11    1    1    2    0    0 -0.37063795669E+02  0.16773740382E+02 -0.18902131687E+02  0.44859490614E+02  0.00000000000E+00 0.  1.
         11    1    1    2    0    0  0.37321112955E+02 -0.31504293061E+02 -0.37721130569E+01  0.48985863169E+02  0.00000000000E+00 0. -1.
</event>
<event>
 7    1  0.5109948E-006  0.1122699E+03  0.7561462E-02  0.1256423E+00
         -2   -1    0    0    0  501 -0.00000000000E+00  0.00000000000E+00  0.17932757207E+03  0.17932757207E+03  0.00000000000E+00 0.  1.
          2   -1    0    0  501    0  0.00000000000E+00 -0.00000000000E+00 -0.12789523142E+03  0.12789523142E+03  0.00000000000E+00 0. -1.
         23    2    1    2    0    0  0.37210049204E+02 -0.71707324016E+02  0.11708265848E+03  0.18796846831E+03  0.12287094077E+03 0.  0.
          5    1    3    3  502    0 -0.61436819041E+01  0.24512473471E+02 -0.54614779268E+01  0.26189813366E+02  0.41800000000E+01 0. -1.
         -5    1    3    3    0  502  0.43353731108E+02 -0.96219797487E+02  0.12254413641E+03  0.16177865495E+03  0.41800000000E+01 0.  1.
        -11    1    1    2    0    0 -0.47691309080E+02  0.65832373802E+02 -0.69166395021E+02  0.10673496429E+03  0.00000000000E+00 0. -1.
         11    1    1    2    0    0  0.10481259876E+02  0.58749502134E+01  0.35160771881E+01  0.12519370886E+02  0.00000000000E+00 0.  1.
</event>
<event>
 7    1  0.5109948E-006  0.8717285E+02  0.7561462E-02  0.1309846E+00
          3   -1    0    0  501    0  0.00000000000E+00  0.00000000000E+00  0.11659340245E+02  0.11659340245E+02  0.00000000000E+00 0. -1.
         -3   -1    0    0    0  501 -0.00000000000E+00 -0.00000000000E+00 -0.11140670606E+04  0.11140670606E+04  0.00000000000E+00 0.  1.
         23    2    1    2    0    0  0.23237742904E+02 -0.26350194338E+02 -0.66475832660E+03  0.67733711009E+03  0.12509037724E+03 0.  0.
          5    1    3    3  502    0 -0.16130182895E+02 -0.36479574773E+02 -0.66306534744E+02  0.77491748758E+02  0.41800000000E+01 0. -1.
         -5    1    3    3    0  502  0.39367925799E+02  0.10129380435E+02 -0.59845179186E+03  0.59984536133E+03  0.41800000000E+01 0. -1.
        -11    1    1    2    0    0 -0.51346169096E+02  0.37031240047E+02 -0.35118810265E+03  0.35684846260E+03  0.00000000000E+00 0.  1.
         11    1    1    2    0    0  0.28108426193E+02 -0.10681045709E+02 -0.86461291155E+02  0.91540828206E+02  0.00000000000E+00 0. -1.
</event>
<event>
 7    1  0.5109948E-006  0.1146828E+03  0.7561462E-02  0.1252136E+00
         -2   -1    0    0    0  501 -0.00000000000E+00  0.00000000000E+00  0.68199257649E+02  0.68199257649E+02  0.00000000000E+00 0.  1.
          2   -1    0    0  501    0  0.00000000000E+00 -0.00000000000E+00 -0.31619331646E+03  0.31619331646E+03  0.00000000000E+00 0. -1.
         23    2    1    2    0    0 -0.63790117060E+02 -0.45297035812E+02 -0.56349616189E+02  0.15793800691E+03  0.12509250295E+03 0.  0.
          5    1    3    3  502    0  0.16288597275E+02  0.29548110901E+02  0.12964397210E+01  0.34022968932E+02  0.41800000000E+01 0. -1.
         -5    1    3    3    0  502 -0.80078714335E+02 -0.74845146712E+02 -0.57646055910E+02  0.12391503798E+03  0.41800000000E+01 0. -1.
        -11    1    1    2    0    0  0.18617503343E+02  0.34545784170E+02 -0.12194294815E+02  0.41094080604E+02  0.00000000000E+00 0.  1.
         11    1    1    2    0    0  0.45172613717E+02  0.10751251642E+02 -0.17945014781E+03  0.18536048660E+03  0.00000000000E+00 0. -1.
</event>
<event>
 7    1  0.5109948E-006  0.1642627E+03  0.7561462E-02  0.1183967E+00
         -1   -1    0    0    0  501 -0.00000000000E+00  0.00000000000E+00  0.55152842933E+03  0.55152842933E+03  0.00000000000E+00 0.  1.
          1   -1    0    0  501    0  0.00000000000E+00 -0.00000000000E+00 -0.53776721485E+02  0.53776721485E+02  0.00000000000E+00 0. -1.
         23    2    1    2    0    0  0.12215399157E+03 -0.53395929052E+02  0.27951737114E+03  0.33399190173E+03  0.12509159348E+03 0.  0.
          5    1    3    3  502    0  0.89365409687E+02 -0.88612696576E+02  0.15049682480E+03  0.19622729963E+03  0.41800000000E+01 0. -1.
         -5    1    3    3    0  502  0.32788581880E+02  0.35216767524E+02  0.12902054633E+03  0.13776460210E+03  0.41800000000E+01 0. -1.
        -11    1    1    2    0    0 -0.88902915720E+02 -0.28705520215E+01  0.16322214168E+03  0.18588554550E+03  0.00000000000E+00 0.  1.
         11    1    1    2    0    0 -0.33251075847E+02  0.56266481073E+02  0.55012195032E+02  0.85427703584E+02  0.00000000000E+00 0. -1.
</event>
<event>
 7    1  0.5109948E-006  0.8721768E+02  0.7561462E-02  0.1309733E+00
         -2   -1    0    0    0  501 -0.00000000000E+00  0.00000000000E+00  0.42380323634E+02  0.42380323634E+02  0.00000000000E+00 0. -1.
          2   -1    0    0  501    0  0.00000000000E+00 -0.00000000000E+00 -0.41302364877E+03  0.41302364877E+03  0.00000000000E+00 0.  1.
         23    2    1    2    0    0 -0.41268901915E+02 -0.55979578989E+02 -0.16006356754E+03  0.21470137419E+03  0.12505798213E+03 0.  0.
          5    1    3    3  502    0 -0.15871856841E+02 -0.43279060288E+02  0.55507373313E+01  0.46618408209E+02  0.41800000000E+01 0.  1.
         -5    1    3    3    0  502 -0.25397045074E+02 -0.12700518701E+02 -0.16561430487E+03  0.16808296598E+03  0.41800000000E+01 0.  1.
        -11    1    1    2    0    0 -0.37041171713E+00  0.57768030107E+02 -0.17990738712E+03  0.18895488999E+03  0.00000000000E+00 0.  1.
         11    1    1    2    0    0  0.41639313632E+02 -0.17884511180E+01 -0.30672370477E+02  0.51747708237E+02  0.00000000000E+00 0. -1.
</event>
<event>
 7    1  0.5109948E-006  0.9091582E+02  0.7561462E-02  0.1300649E+00
          1   -1    0    0  501    0  0.00000000000E+00  0.00000000000E+00  0.20650414999E+02  0.20650414999E+02  0.00000000000E+00 0. -1.
         -1   -1    0    0    0  501 -0.00000000000E+00 -0.00000000000E+00 -0.10081986513E+04  0.10081986513E+04  0.00000000000E+00 0.  1.
         23    2    1    2    0    0  0.97567537385E+01  0.17549110312E+01 -0.86437219926E+03  0.87343360676E+03  0.12509473451E+03 0.  0.
          5    1    3    3  502    0  0.35719867071E+02  0.37088316646E+02 -0.17025766280E+03  0.17792300660E+03  0.41800000000E+01 0. -1.
         -5    1    3    3    0  502 -0.25963113332E+02 -0.35333405615E+02 -0.69411453646E+03  0.69551060016E+03  0.41800000000E+01 0. -1.
        -11    1    1    2    0    0 -0.30396194121E+02  0.33523505423E+02 -0.31780266388E+02  0.55296829607E+02  0.00000000000E+00 0. -1.
         11    1    1    2    0    0  0.20639440383E+02 -0.35278416455E+02 -0.91395770662E+02  0.10011862994E+03  0.00000000000E+00 0.  1.
</event>
<event>
 6    1  0.5109948E-006  0.2406932E+03  0.7561462E-02  0.1119332E+00
          1   -1    0    0  501    0  0.00000000000E+00  0.00000000000E+00  0.13610892719E+04  0.13610892719E+04  0.00000000000E+00 0. -1.
         -1   -1    0    0    0  501 -0.00000000000E+00 -0.00000000000E+00 -0.54579891660E+02  0.54579891660E+02  0.00000000000E+00 0.  1.
          5    1    1    2  502    0  0.60975244021E+02  0.10235023199E+03  0.12574969311E+03  0.17327437228E+03  0.41800000000E+01 0. -1.
         -5    1    1    2    0  502 -0.99061521452E+02  0.99778411647E+02  0.26387191876E+03  0.29902303987E+03  0.41800000000E+01 0.  1.
        -11    1    1    2    0    0  0.32666632283E+02 -0.17987892090E+02  0.13309619218E+03  0.13822181267E+03  0.00000000000E+00 0.  1.
         11    1    1    2    0    0  0.54196451478E+01 -0.18414075155E+03  0.78379157615E+03  0.80514993869E+03  0.00000000000E+00 0. -1.
</event>
<event>
 7    1  0.5109948E-006  0.7777312E+02  0.7561462E-02  0.1335492E+00
         -1   -1    0    0    0  501 -0.00000000000E+00  0.00000000000E+00  0.24157675891E+02  0.24157675891E+02  0.00000000000E+00 0.  1.
          1   -1    0    0  501    0  0.00000000000E+00 -0.00000000000E+00 -0.56161038776E+03  0.56161038776E+03  0.00000000000E+00 0. -1.
         23    2    1    2    0    0 -0.40132416791E+02  0.21447993805E+02 -0.27220832640E+03  0.30305347354E+03  0.12519348045E+03 0.  0.
          5    1    3    3  502    0 -0.32271265370E+02  0.35941578106E+02 -0.23705219789E+02  0.53968893361E+02  0.41800000000E+01 0.  1.
         -5    1    3    3    0  502 -0.78611514211E+01 -0.14493584301E+02 -0.24850310661E+03  0.24908458018E+03  0.41800000000E+01 0.  1.
        -11    1    1    2    0    0  0.30043000619E+02 -0.50797708495E+02 -0.22049328047E+03  0.22825484838E+03  0.00000000000E+00 0. -1.
         11    1    1    2    0    0  0.10089416173E+02  0.29349714690E+02 -0.44751104993E+02  0.54459741730E+02  0.00000000000E+00 0.  1.
</event>
<event>
 7    1  0.5109948E-006  0.2885752E+03  0.7561462E-02  0.1091095E+00
          2   -1    0    0  501    0  0.00000000000E+00  0.00000000000E+00  0.81860090366E+03  0.81860090366E+03  0.00000000000E+00 0. -1.
         -2   -1    0    0    0  501 -0.00000000000E+00 -0.00000000000E+00 -0.17617299769E+03  0.17617299769E+03  0.00000000000E+00 0.  1.
         23    2    1    2    0    0 -0.23786687570E+03  0.14957749366E+03  0.23237009024E+02  0.30845561992E+03  0.12510329214E+03 0.  0.
          5    1    3    3  502    0 -0.98561183786E+02  0.64730581196E+02 -0.51804255835E+02  0.12886236229E+03  0.41800000000E+01 0. -1.
         -5    1    3    3    0  502 -0.13930569192E+03  0.84846912467E+02  0.75041264859E+02  0.17959325763E+03  0.41800000000E+01 0. -1.
        -11    1    1    2    0    0  0.57814936253E+02  0.58863132902E+01  0.11728758488E+03  0.13089535173E+03  0.00000000000E+00 0.  1.
         11    1    1    2    0    0  0.18005193945E+03 -0.15546380695E+03  0.50190331207E+03  0.55542292970E+03  0.00000000000E+00 0. -1.
</event>
<event>
 7    1  0.5109948E-006  0.7937589E+02  0.7561462E-02  0.1330832E+00
          1   -1    0    0  501    0  0.00000000000E+00  0.00000000000E+00  0.29954579214E+03  0.29954579214E+03  0.00000000000E+00 0. -1.
         -1   -1    0    0    0  501 -0.00000000000E+00 -0.00000000000E+00 -0.42528311848E+02  0.42528311848E+02  0.00000000000E+00 0.  1.
         23    2    1    2    0    0  0.10680294182E+02  0.26015988870E+02  0.11727744864E+03  0.17374942430E+03  0.12507582550E+03 0.  0.
          5    1    3    3  502    0 -0.17798228381E+02 -0.83557447626E+01 -0.20590328238E+02  0.28775500360E+02  0.41800000000E+01 0. -1.
         -5    1    3    3    0  502  0.28478522563E+02  0.34371733633E+02  0.13786777688E+03  0.14497392394E+03  0.41800000000E+01 0. -1.
        -11    1    1    2    0    0 -0.45682786594E+02 -0.35153501734E+02  0.87608062044E+02  0.10487067374E+03  0.00000000000E+00 0.  1.
         11    1    1    2    0    0  0.35002492411E+02  0.91375128632E+01  0.52131969606E+02  0.63454005952E+02  0.00000000000E+00 0. -1.
</event>
<event>
 7    1  0.5109948E-006  0.1436438E+03  0.7561462E-02  0.1208508E+00
          1   -1    0    0  501    0  0.00000000000E+00  0.00000000000E+00  0.79133451315E+03  0.79133451315E+03  0.00000000000E+00 0. -1.
         -1   -1    0    0    0  501 -0.00000000000E+00 -0.00000000000E+00 -0.30751938896E+02  0.30751938896E+02  0.00000000000E+00 0.  1.
         23    2    1    2    0    0  0.51869798217E+02  0.93064512457E+02  0.31901032628E+03  0.35883513808E+03  0.12507433230E+03 0.  0.
          5    1    3    3  502    0 -0.29142406671E+02  0.98946941067E+01  0.15355186796E+03  0.15666152493E+03  0.41800000000E+01 0.  1.
         -5    1    3    3    0  502  0.81012204888E+02  0.83169818350E+02  0.16545845832E+03  0.20217361315E+03  0.41800000000E+01 0.  1.
        -11    1    1    2    0    0 -0.58804727888E+02 -0.13696440783E+02  0.18808456904E+03  0.19753833457E+03  0.00000000000E+00 0. -1.
         11    1    1    2    0    0  0.69349296714E+01 -0.79368071674E+02  0.25348767893E+03  0.26571297940E+03  0.00000000000E+00 0.  1.
</event>
<event>
 7    1  0.5109948E-006  0.1198082E+03  0.7561462E-02  0.1243414E+00
          1   -1    0    0  501    0  0.00000000000E+00  0.00000000000E+00  0.11929615565E+03  0.11929615565E+03  0.00000000000E+00 0. -1.
         -1   -1    0    0    0  501 -0.00000000000E+00 -0.00000000000E+00 -0.21615507535E+03  0.21615507535E+03  0.00000000000E+00 0.  1.
         23    2    1    2    0    0  0.89718900824E+02  0.15628009377E+02 -0.14996252793E+03  0.21547586467E+03  0.12508945850E+03 0.  0.
          5    1    3    3  502    0 -0.22682170309E+02 -0.53241929184E+01 -0.75111434059E+02  0.78752954271E+02  0.41800000000E+01 0.  1.
         -5    1    3    3    0  502  0.11240107113E+03  0.20952202296E+02 -0.74851093876E+02  0.13672291040E+03  0.41800000000E+01 0.  1.
        -11    1    1    2    0    0 -0.13786347361E+02 -0.21317278631E+02  0.32216926548E+02  0.41017314612E+02  0.00000000000E+00 0. -1.
         11    1    1    2    0    0 -0.75932553463E+02  0.56892692532E+01  0.20886681688E+02  0.78958051724E+02  0.00000000000E+00 0.  1.
</event>
<event>
 7    1  0.5109948E-006  0.1140984E+03  0.7561462E-02  0.1253163E+00
          3   -1    0    0  501    0  0.00000000000E+00  0.00000000000E+00  0.57269437125E+02  0.57269437125E+02  0.00000000000E+00 0. -1.
         -3   -1    0    0    0  501 -0.00000000000E+00 -0.00000000000E+00 -0.34511243210E+03  0.34511243210E+03  0.00000000000E+00 0.  1.
         23    2    1    2    0    0 -0.33140301257E+02 -0.36449035938E+02 -0.26512531473E+03  0.29726261476E+03  0.12508724088E+03 0.  0.
          5    1    3    3  502    0  0.43157883362E+02 -0.78847669593E+01 -0.14876170565E+03  0.15515247312E+03  0.41800000000E+01 0. -1.
         -5    1    3    3    0  502 -0.76298184619E+02 -0.28564268979E+02 -0.11636360908E+03  0.14211014164E+03  0.41800000000E+01 0. -1.
        -11    1    1    2    0    0  0.54923497263E+02 -0.55841075007E+01 -0.14375491929E+02  0.57047590452E+02  0.00000000000E+00 0.  1.
         11    1    1    2    0    0 -0.21783196006E+02  0.42033143439E+02 -0.83421883161E+01  0.48071664018E+02  0.00000000000E+00 0. -1.
</event>
<event>
 7    1  0.5109948E-006  0.1149664E+03  0.7561462E-02  0.1251640E+00
          1   -1    0    0  501    0  0.00000000000E+00  0.00000000000E+00  0.18841271536E+03  0.18841271536E+03  0.00000000000E+00 0. -1.
         -1   -1    0    0    0  501 -0.00000000000E+00 -0.00000000000E+00 -0.87400901618E+02  0.87400901618E+02  0.00000000000E+00 0.  1.
         23    2    1    2    0    0  0.59195946993E+02 -0.29479152938E+02  0.30729730943E+02  0.14479273249E+03  0.12508972148E+03 0.  0.
          5    1    3    3  502    0  0.79659092489E+01 -0.60896158098E+02 -0.21356089044E+02  0.65156371296E+02  0.41800000000E+01 0. -1.
         -5    1    3    3    0  502  0.51230037745E+02  0.31417005160E+02  0.52085819987E+02  0.79636361194E+02  0.41800000000E+01 0. -1.
        -11    1    1    2    0    0 -0.18009561753E+02 -0.30473577924E+02  0.10651694839E+02  0.36965414497E+02  0.00000000000E+00 0. -1.
         11    1    1    2    0    0 -0.41186385240E+02  0.59952730861E+02  0.59630387962E+02  0.94055469992E+02  0.00000000000E+00 0.  1.
</event>
<event>
 7    1  0.5109948E-006  0.1151837E+03  0.7561462E-02  0.1251261E+00
          1   -1    0    0  501    0  0.00000000000E+00  0.00000000000E+00  0.59673539508E+03  0.59673539508E+03  0.00000000000E+00 0. -1.
         -1   -1    0    0    0  501 -0.00000000000E+00 -0.00000000000E+00 -0.28315247042E+02  0.28315247042E+02  0.00000000000E+00 0.  1.
         23    2    1    2    0    0 -0.21681833202E+02 -0.77598997062E+02  0.26531996129E+03  0.30419469610E+03  0.12509206625E+03 0.  0.
          5    1    3    3  502    0  0.77974935002E+01  0.32941493129E+02  0.67823210501E+02  0.75917080799E+02  0.41800000000E+01 0.  1.
         -5    1    3    3    0  502 -0.29479326702E+02 -0.11054049019E+03  0.19749675079E+03  0.22827761530E+03  0.41800000000E+01 0.  1.
        -11    1    1    2    0    0 -0.17334533959E+01  0.12024598149E+02  0.26390183022E+01  0.12432225823E+02  0.00000000000E+00 0.  1.
         11    1    1    2    0    0  0.23415286598E+02  0.65574398913E+02  0.30046116845E+03  0.30842372020E+03  0.00000000000E+00 0. -1.
</event>
<event>
 7    1  0.5109948E-006  0.1197586E+03  0.7561462E-02  0.1243496E+00
         -3   -1    0    0    0  501 -0.00000000000E+00  0.00000000000E+00  0.35047976131E+02  0.35047976131E+02  0.00000000000E+00 0.  1.
          3   -1    0    0  501    0  0.00000000000E+00 -0.00000000000E+00 -0.65494669118E+03  0.65494669118E+03  0.00000000000E+00 0. -1.
         23    2    1    2    0    0 -0.58370968480E+02 -0.76186735778E+02 -0.24266514052E+03  0.28938828887E+03  0.12509045784E+03 0.  0.
          5    1    3    3  502    0 -0.36801098025E+02 -0.52999554036E+01 -0.20064632194E+03  0.20410494666E+03  0.41800000000E+01 0.  1.
         -5    1    3    3    0  502 -0.21569870455E+02 -0.70886780374E+02 -0.42018818577E+02  0.85283342206E+02  0.41800000000E+01 0.  1.
        -11    1    1    2    0    0  0.18827639291E+02  0.85262872793E+02 -0.19111484922E+03  0.21011692714E+03  0.00000000000E+00 0. -1.
         11    1    1    2    0    0  0.39543329189E+02 -0.90761370153E+01 -0.18611872531E+03  0.19048945130E+03  0.00000000000E+00 0.  1.
</event>
<event>
 7    1  0.5109948E-006  0.1930183E+03  0.7561462E-02  0.1155767E+00
          2   -1    0    0  501    0  0.00000000000E+00  0.00000000000E+00  0.17929897559E+03  0.17929897559E+03  0.00000000000E+00 0. -1.
         -2   -1    0    0    0  501 -0.00000000000E+00 -0.00000000000E+00 -0.28909232976E+03  0.28909232976E+03  0.00000000000E+00 0.  1.
         23    2    1    2    0    0  0.16347152732E+03 -0.45776876144E+02 -0.16852233914E+03  0.26993667970E+03  0.12509024592E+03 0.  0.
          5    1    3    3  502    0  0.98000877832E+02 -0.85544435227E+02 -0.13052417060E+03  0.18432594491E+03  0.41800000000E+01 0.  1.
         -5    1    3    3    0  502  0.65470649485E+02  0.39767559082E+02 -0.37998168541E+02  0.85610734793E+02  0.41800000000E+01 0.  1.
        -11    1    1    2    0    0 -0.11157617745E+03  0.25124494040E+01  0.42890208132E+01  0.11168684558E+03  0.00000000000E+00 0.  1.
         11    1    1    2    0    0 -0.51895349866E+02  0.43264426740E+02  0.54439964160E+02  0.86767780060E+02  0.00000000000E+00 0. -1.
</event>
<event>
 7    1  0.5109948E-006  0.9960751E+02  0.7561462E-02  0.1281123E+00
         -2   -1    0    0    0  501 -0.00000000000E+00  0.00000000000E+00  0.22544960633E+03  0.22544960633E+03  0.00000000000E+00 0. -1.
          2   -1    0    0  501    0  0.00000000000E+00 -0.00000000000E+00 -0.71410816647E+02  0.71410816647E+02  0.00000000000E+00 0.  1.
         23    2    1    2    0    0 -0.12776018434E+02 -0.58009192207E+02  0.11209041593E+03  0.17815750524E+03  0.12509013670E+03 0.  0.
          5    1    3    3  502    0 -0.57497530829E+02  0.48095239888E+01  0.67828244785E+02  0.89147298125E+02  0.41800000000E+01 0.  1.
         -5    1    3    3    0  502  0.44721512395E+02 -0.62818716195E+02  0.44262171146E+02  0.89010207111E+02  0.41800000000E+01 0.  1.
        -11    1    1    2    0    0 -0.17727030046E+01  0.43694488958E+02 -0.23850214032E+02  0.49811480109E+02  0.00000000000E+00 0.  1.
         11    1    1    2    0    0  0.14548721438E+02  0.14314703248E+02  0.65798587782E+02  0.68891437630E+02  0.00000000000E+00 0. -1.
</event>
<event>
 7    1  0.5109948E-006  0.1302501E+03  0.7561462E-02  0.1227085E+00
          2   -1    0    0  501    0  0.00000000000E+00  0.00000000000E+00  0.90379298657E+03  0.90379298657E+03  0.00000000000E+00 0. -1.
         -2   -1    0    0    0  501 -0.00000000000E+00 -0.00000000000E+00 -0.25070638353E+02  0.25070638353E+02  0.00000000000E+00 0.  1.
         23    2    1    2    0    0  0.58388993125E+02 -0.86292791779E+02  0.47448218860E+03  0.50163407812E+03  0.12509068949E+03 0.  0.
          5    1    3    3  502    0  0.26802895879E+02 -0.11207307357E+03  0.27877759408E+03  0.30168392136E+03  0.41800000000E+01 0.  1.
         -5    1    3    3    0  502  0.31586097246E+02  0.25780281795E+02  0.19570459452E+03  0.19995015676E+03  0.41800000000E+01 0.  1.
        -11    1    1    2    0    0 -0.45724994494E+02  0.66251753491E+02  0.39269488098E+03  0.40086074828E+03  0.00000000000E+00 0. -1.
         11    1    1    2    0    0 -0.12663998632E+02  0.20041038288E+02  0.11545278633E+02  0.26368798526E+02  0.00000000000E+00 0.  1.
</event>
<event>
 7    1  0.5109948E-006  0.6669526E+02  0.7561462E-02  0.1371706E+00
          3   -1    0    0  501    0  0.00000000000E+00  0.00000000000E+00  0.30420712076E+03  0.30420712076E+03  0.00000000000E+00 0. -1.
         -3   -1    0    0    0  501 -0.00000000000E+00 -0.00000000000E+00 -0.28955655828E+02  0.28955655828E+02  0.00000000000E+00 0.  1.
         23    2    1    2    0    0 -0.18248768256E+02  0.26783722321E+02  0.16241106947E+03  0.20754174640E+03  0.12508331498E+03 0.  0.
          5    1    3    3  502    0  0.17545096554E+02 -0.17766937926E+02  0.14565770141E+03  0.14784158033E+03  0.41800000000E+01 0. -1.
         -5    1    3    3    0  502 -0.35793864811E+02  0.44550660247E+02  0.16753368067E+02  0.59700166065E+02  0.41800000000E+01 0. -1.
        -11    1    1    2    0    0  0.12666199189E+02  0.83672838436E+01  0.14319906772E+02  0.20868727100E+02  0.00000000000E+00 0.  1.
         11    1    1    2    0    0  0.55825690674E+01 -0.35151006165E+02  0.98520488681E+02  0.10475230309E+03  0.00000000000E+00 0. -1.
</event>
<event>
 7    1  0.5109948E-006  0.7168982E+02  0.7561462E-02  0.1354439E+00
         -1   -1    0    0    0  501 -0.00000000000E+00  0.00000000000E+00  0.80931979461E+02  0.80931979461E+02  0.00000000000E+00 0.  1.
          1   -1    0    0  501    0  0.00000000000E+00 -0.00000000000E+00 -0.15478544024E+03  0.15478544024E+03  0.00000000000E+00 0. -1.
         23    2    1    2    0    0 -0.16729762017E+02  0.13482503990E+02 -0.22276518758E+02  0.12886310366E+03  0.12509114015E+03 0.  0.
          5    1    3    3  502    0  0.35576765615E+02 -0.15917726824E+02  0.29850005422E+02  0.49270432336E+02  0.41800000000E+01 0.  1.
         -5    1    3    3    0  502 -0.52306527631E+02  0.29400230814E+02 -0.52126524180E+02  0.79592671320E+02  0.41800000000E+01 0.  1.
        -11    1    1    2    0    0  0.79440126640E+01 -0.26869886863E+02 -0.74099184142E+02  0.79219866496E+02  0.00000000000E+00 0. -1.
         11    1    1    2    0    0  0.87857493526E+01  0.13387382873E+02  0.22522242119E+02  0.27634449550E+02  0.00000000000E+00 0.  1.
</event>
<event>
 7    1  0.5109948E-006  0.1103251E+03  0.7561462E-02  0.1259969E+00
          1   -1    0    0  501    0  0.00000000000E+00  0.00000000000E+00  0.37360562167E+03  0.37360562167E+03  0.00000000000E+00 0. -1.
         -1   -1    0    0    0  501 -0.00000000000E+00 -0.00000000000E+00 -0.58615800633E+02  0.58615800633E+02  0.00000000000E+00 0.  1.
         23    2    1    2    0    0 -0.55772286763E+02  0.50039010584E+02  0.72790914261E+02  0.16297701020E+03  0.12509411699E+03 0.  0.
          5    1    3    3  502    0 -0.33221882780E+02  0.77777392540E+02  0.33289099317E+01  0.84744146271E+02  0.41800000000E+01 0. -1.
         -5    1    3    3    0  502 -0.22550403983E+02 -0.27738381957E+02  0.69462004329E+02  0.78232863931E+02  0.41800000000E+01 0. -1.
        -11    1    1    2    0    0  0.17680944680E+02 -0.58369020982E+02  0.70707541056E+02  0.93376200273E+02  0.00000000000E+00 0.  1.
         11    1    1    2    0    0  0.38091342083E+02  0.83300103988E+01  0.17149136572E+03  0.17586821183E+03  0.00000000000E+00 0. -1.
</event>
<event>
 7    1  0.5109948E-006  0.1289093E+03  0.7561462E-02  0.1229083E+00
         -2   -1    0    0    0  501 -0.00000000000E+00  0.00000000000E+00  0.98922167990E+02  0.98922167990E+02  0.00000000000E+00 0.  1.
          2   -1    0    0  501    0  0.00000000000E+00 -0.00000000000E+00 -0.22141547795E+03  0.22141547795E+03  0.00000000000E+00 0. -1.
         23    2    1    2    0    0 -0.54499902517E+01 -0.83795608293E+02 -0.57756166086E+01  0.15079336840E+03  0.12511545006E+03 0.  0.
          5    1    3    3  502    0 -0.13129716266E+02  0.23882401358E+02  0.26295567142E+02  0.38101020920E+02  0.41800000000E+01 0.  1.
         -5    1    3    3    0  502  0.76797260141E+01 -0.10767800965E+03 -0.32071183751E+02  0.11269234748E+03  0.41800000000E+01 0.  1.
        -11    1    1    2    0    0 -0.35997940153E+02  0.69678341810E+02 -0.65676804331E+02  0.10229548201E+03  0.00000000000E+00 0.  1.
         11    1    1    2    0    0  0.41447930405E+02  0.14117266482E+02 -0.51040889020E+02  0.67248795526E+02  0.00000000000E+00 0. -1.
</event>
<event>
 6    1  0.5109948E-006  0.2083987E+03  0.7561462E-02  0.1142840E+00
          2   -1    0    0  501    0  0.00000000000E+00  0.00000000000E+00  0.18361627422E+04  0.18361627422E+04  0.00000000000E+00 0. -1.
         -2   -1    0    0    0  501 -0.00000000000E+00 -0.00000000000E+00 -0.33251724503E+02  0.33251724503E+02  0.00000000000E+00 0.  1.
          5    1    1    2  502    0  0.76526297639E+02  0.14317663784E+03  0.11867753054E+04  0.11978350979E+04  0.41800000000E+01 0. -1.
         -5    1    1    2    0  502 -0.11570066498E+03 -0.80161233274E+02  0.24981399972E+03  0.28676989739E+03  0.41800000000E+01 0.  1.
        -11    1    1    2    0    0 -0.12304901956E+02  0.15439743232E+02  0.11203673161E+03  0.11376302349E+03  0.00000000000E+00 0.  1.
         11    1    1    2    0    0  0.51479269298E+02 -0.78455147799E+02  0.25428498096E+03  0.27104644791E+03  0.00000000000E+00 0. -1.
</event>
<event>
 6    1  0.5109948E-006  0.1734052E+03  0.7561462E-02  0.1174343E+00
          1   -1    0    0  501    0  0.00000000000E+00  0.00000000000E+00  0.13898788084E+03  0.13898788084E+03  0.00000000000E+00 0. -1.
         -1   -1    0    0    0  501 -0.00000000000E+00 -0.00000000000E+00 -0.30756733300E+03  0.30756733300E+03  0.00000000000E+00 0.  1.
          5    1    1    2  502    0  0.55607737546E+02  0.43287179257E+02 -0.33731505889E+02  0.78238655744E+02  0.41800000000E+01 0. -1.
         -5    1    1    2    0  502  0.88951644803E+02 -0.82904433466E+02 -0.14914033479E+03  0.19247299048E+03  0.41800000000E+01 0.  1.
        -11    1    1    2    0    0 -0.22703298078E+02  0.21657576116E+02 -0.31475152065E+02  0.44442947071E+02  0.00000000000E+00 0.  1.
         11    1    1    2    0    0 -0.12185608427E+03  0.17959678093E+02  0.45767540582E+02  0.13140062055E+03  0.00000000000E+00 0. -1.
</event>
<event>
 7    1  0.5109948E-006  0.5683545E+02  0.7561462E-02  0.1411613E+00
          4   -1    0    0  501    0  0.00000000000E+00  0.00000000000E+00  0.16509496916E+03  0.16509496916E+03  0.00000000000E+00 0. -1.
         -4   -1    0    0    0  501 -0.00000000000E+00 -0.00000000000E+00 -0.72310828978E+02  0.72310828978E+02  0.00000000000E+00 0.  1.
         23    2    1    2    0    0  0.58766698956E+01  0.17713809660E+01  0.41836315423E+02  0.13204234333E+03  0.12508888881E+03 0.  0.
          5    1    3    3  502    0 -0.23649816982E+02 -0.28803499177E+02 -0.30298234162E+02  0.48212143714E+02  0.41800000000E+01 0. -1.
         -5    1    3    3    0  502  0.29526486877E+02  0.30574880143E+02  0.72134549585E+02  0.83830199612E+02  0.41800000000E+01 0. -1.
        -11    1    1    2    0    0  0.16019078061E+01  0.15005457045E+02 -0.23916075485E+02  0.28279118026E+02  0.00000000000E+00 0.  1.
         11    1    1    2    0    0 -0.74785777017E+01 -0.16776838011E+02  0.74863900242E+02  0.77084336785E+02  0.00000000000E+00 0. -1.
</event>
<event>
 7    1  0.5109948E-006  0.1604458E+03  0.7561462E-02  0.1188194E+00
          2   -1    0    0  501    0  0.00000000000E+00  0.00000000000E+00  0.30703431413E+03  0.30703431413E+03  0.00000000000E+00 0.  1.
         -2   -1    0    0    0  501 -0.00000000000E+00 -0.00000000000E+00 -0.12974227850E+03  0.12974227850E+03  0.00000000000E+00 0. -1.
         23    2    1    2    0    0  0.11880800293E+03 -0.10215370292E+03  0.28191847413E+02  0.20246993987E+03  0.12509426729E+03 0.  0.
          5    1    3    3  502    0  0.63158076230E+02 -0.31682423953E+02 -0.47259306457E+02  0.85109535467E+02  0.41800000000E+01 0. -1.
         -5    1    3    3    0  502  0.55649926696E+02 -0.70471278967E+02  0.75451153870E+02  0.11736040440E+03  0.41800000000E+01 0. -1.
        -11    1    1    2    0    0 -0.54310238732E+02  0.68653058105E+02  0.13402615085E+03  0.16008077189E+03  0.00000000000E+00 0.  1.
         11    1    1    2    0    0 -0.64497764194E+02  0.33500644815E+02  0.15074037362E+02  0.74225880874E+02  0.00000000000E+00 0. -1.
</event>
<event>
 7    1  0.5109948E-006  0.1036634E+03  0.7561462E-02  0.1272776E+00
          1   -1    0    0  501    0  0.00000000000E+00  0.00000000000E+00  0.17396926959E+02  0.17396926959E+02  0.00000000000E+00 0. -1.
         -1   -1    0    0    0  501 -0.00000000000E+00 -0.00000000000E+00 -0.11277563490E+04  0.11277563490E+04  0.00000000000E+00 0.  1.
         23    2    1    2    0    0  0.36984441129E+02 -0.68737061201E+02 -0.78303315187E+03  0.79679429540E+03  0.12509036648E+03 0.  0.
          5    1    3    3  502    0  0.36366504167E+02 -0.85149825415E+02 -0.76961956606E+03  0.77518047205E+03  0.41800000000E+01 0. -1.
         -5    1    3    3    0  502  0.61793696177E+00  0.16412764214E+02 -0.13413585807E+02  0.21613823342E+02  0.41800000000E+01 0. -1.
        -11    1    1    2    0    0 -0.54130158492E+01 -0.10821578002E+02 -0.23840393710E+01  0.12332515346E+02  0.00000000000E+00 0. -1.
         11    1    1    2    0    0 -0.31571425280E+02  0.79558639202E+02 -0.32494223079E+03  0.33602646521E+03  0.00000000000E+00 0.  1.
</event>
<event>
 7    1  0.5109948E-006  0.1265354E+03  0.7561462E-02  0.1232689E+00
          1   -1    0    0  501    0  0.00000000000E+00  0.00000000000E+00  0.56536885970E+03  0.56536885970E+03  0.00000000000E+00 0. -1.
         -1   -1    0    0    0  501 -0.00000000000E+00 -0.00000000000E+00 -0.34389299259E+02  0.34389299259E+02  0.00000000000E+00 0.  1.
         23    2    1    2    0    0  0.71508967636E+02 -0.32353556687E+01  0.18225258650E+03  0.23232777298E+03  0.12504474733E+03 0.  0.
          5    1    3    3  502    0  0.23432840841E+02  0.57206519180E+02  0.11122243393E+03  0.12731687270E+03  0.41800000000E+01 0. -1.
         -5    1    3    3    0  502  0.48076126795E+02 -0.60441874849E+02  0.71030152573E+02  0.10501090028E+03  0.41800000000E+01 0. -1.
        -11    1    1    2    0    0  0.13623166733E+02  0.22665986327E+02  0.55512928766E+02  0.61490022509E+02  0.00000000000E+00 0. -1.
         11    1    1    2    0    0 -0.85132134369E+02 -0.19430630659E+02  0.29321404517E+03  0.30594036346E+03  0.00000000000E+00 0.  1.
</event>
<event>
 7    1  0.5109948E-006  0.1133981E+03  0.7561462E-02  0.1254403E+00
          2   -1    0    0  501    0  0.00000000000E+00  0.00000000000E+00  0.26953824370E+02  0.26953824370E+02  0.00000000000E+00 0. -1.
         -2   -1    0    0    0  501 -0.00000000000E+00 -0.00000000000E+00 -0.52759998414E+03  0.52759998414E+03  0.00000000000E+00 0.  1.
         23    2    1    2    0    0  0.19898716480E+02 -0.41085403158E+02 -0.23247777765E+03  0.26791392238E+03  0.12509189995E+03 0.  0.
          5    1    3    3  502    0  0.53100461224E+02  0.24416530260E+02 -0.11965866311E+03  0.13323473267E+03  0.41800000000E+01 0.  1.
         -5    1    3    3    0  502 -0.33201744744E+02 -0.65501933418E+02 -0.11281911454E+03  0.13467918971E+03  0.41800000000E+01 0.  1.
        -11    1    1    2    0    0  0.30915334995E+02  0.28344161566E+01 -0.45618601281E+02  0.55180147114E+02  0.00000000000E+00 0. -1.
         11    1    1    2    0    0 -0.50814051475E+02  0.38250987002E+02 -0.22254978083E+03  0.23145973901E+03  0.00000000000E+00 0.  1.
</event>
<event>
 7    1  0.5109948E-006  0.9877753E+02  0.7561462E-02  0.1282888E+00
          1   -1    0    0  501    0  0.00000000000E+00  0.00000000000E+00  0.48654701214E+03  0.48654701214E+03  0.00000000000E+00 0. -1.
         -1   -1    0    0    0  501 -0.00000000000E+00 -0.00000000000E+00 -0.41327297047E+02  0.41327297047E+02  0.00000000000E+00 0.  1.
         23    2    1    2    0    0 -0.23510584036E+02  0.78228017398E+02  0.16822303195E+03  0.22518435505E+03  0.12544574529E+03 0.  0.
          5    1    3    3  502    0  0.23911602821E+02  0.58821508161E+02  0.16119015960E+03  0.17329591606E+03  0.41800000000E+01 0.  1.
         -5    1    3    3    0  502 -0.47422186857E+02  0.19406509237E+02  0.70328723561E+01  0.51888438988E+02  0.41800000000E+01 0.  1.
        -11    1    1    2    0    0  0.38819010371E+01 -0.32744955168E+02  0.15308961447E+02  0.36354718334E+02  0.00000000000E+00 0.  1.
         11    1    1    2    0    0  0.19628682999E+02 -0.45483062231E+02  0.26168772169E+03  0.26633523580E+03  0.00000000000E+00 0. -1.
</event>
<event>
 7    1  0.5109948E-006  0.8311993E+02  0.7561462E-02  0.1320424E+00
          3   -1    0    0  501    0  0.00000000000E+00  0.00000000000E+00  0.69568592791E+02  0.69568592791E+02  0.00000000000E+00 0. -1.
         -3   -1    0    0    0  501 -0.00000000000E+00 -0.00000000000E+00 -0.19493311378E+03  0.19493311378E+03  0.00000000000E+00 0.  1.
         23    2    1    2    0    0  0.24626007025E+02  0.27961219554E+02 -0.11456415238E+03  0.17366990988E+03  0.12509205636E+03 0.  0.
          5    1    3    3  502    0  0.31009080309E+02 -0.16564228859E+02 -0.12275546484E+03  0.12775880904E+03  0.41800000000E+01 0. -1.
         -5    1    3    3    0  502 -0.63830732843E+01  0.44525448413E+02  0.81913124543E+01  0.45911100843E+02  0.41800000000E+01 0. -1.
        -11    1    1    2    0    0 -0.52766701281E+02 -0.16626109939E+02 -0.20470969609E+02  0.58989938909E+02  0.00000000000E+00 0.  1.
         11    1    1    2    0    0  0.28140694257E+02 -0.11335109615E+02  0.96706010023E+01  0.31841857781E+02  0.00000000000E+00 0. -1.
</event>
<event>
 7    1  0.5109948E-006  0.1193332E+03  0.7561462E-02  0.1244201E+00
         -2   -1    0    0    0  501 -0.00000000000E+00  0.00000000000E+00  0.35117851068E+03  0.35117851068E+03  0.00000000000E+00 0.  1.
          2   -1    0    0  501    0  0.00000000000E+00 -0.00000000000E+00 -0.66894330694E+02  0.66894330694E+02  0.00000000000E+00 0. -1.
         23    2    1    2    0    0 -0.46298508163E+02  0.73428639745E+02  0.23582059537E+03  0.28071400577E+03  0.12511467876E+03 0.  0.
          5    1    3    3  502    0 -0.58954166991E+02  0.25801638053E+02  0.33961635131E+02  0.72884726744E+02  0.41800000000E+01 0.  1.
         -5    1    3    3    0  502  0.12655658829E+02  0.47627001692E+02  0.20185896024E+03  0.20782927903E+03  0.41800000000E+01 0.  1.
        -11    1    1    2    0    0  0.71629256010E+02 -0.37759600655E+02  0.46917519798E+02  0.93583072305E+02  0.00000000000E+00 0.  1.
         11    1    1    2    0    0 -0.25330747847E+02 -0.35669039090E+02  0.15460648189E+01  0.43775763301E+02  0.00000000000E+00 0. -1.
</event>
<event>
 7    1  0.5109948E-006  0.1606470E+03  0.7561462E-02  0.1187968E+00
         -2   -1    0    0    0  501 -0.00000000000E+00  0.00000000000E+00  0.78816046474E+02  0.78816046474E+02  0.00000000000E+00 0.  1.
          2   -1    0    0  501    0  0.00000000000E+00 -0.00000000000E+00 -0.41277152494E+03  0.41277152494E+03  0.00000000000E+00 0. -1.
         23    2    1    2    0    0 -0.86561169197E+01 -0.13510026890E+03 -0.10931823954E+03  0.21430328219E+03  0.12509359793E+03 0.  0.
          5    1    3    3  502    0  0.48655102335E+02 -0.10016517847E+03 -0.41826216100E+02  0.11902641184E+03  0.41800000000E+01 0.  1.
         -5    1    3    3    0  502 -0.57311219255E+02 -0.34935090432E+02 -0.67492023441E+02  0.95276870352E+02  0.41800000000E+01 0.  1.
        -11    1    1    2    0    0 -0.18121562395E+02  0.67725312714E+02 -0.44331776825E+02  0.82948269676E+02  0.00000000000E+00 0. -1.
         11    1    1    2    0    0  0.26777679315E+02  0.67374956189E+02 -0.18030546210E+03  0.19433601955E+03  0.00000000000E+00 0.  1.
</event>
<event>
 7    1  0.5109948E-006  0.1318972E+03  0.7561462E-02  0.1224667E+00
          2   -1    0    0  501    0  0.00000000000E+00  0.00000000000E+00  0.13108980822E+03  0.13108980822E+03  0.00000000000E+00 0. -1.
         -2   -1    0    0    0  501 -0.00000000000E+00 -0.00000000000E+00 -0.24875888779E+03  0.24875888779E+03  0.00000000000E+00 0.  1.
         23    2    1    2    0    0  0.10666720842E+03 -0.43823912371E+01 -0.16343526797E+03  0.23185268160E+03  0.12508988945E+03 0.  0.
          5    1    3    3  502    0  0.12488452886E+03 -0.26827086699E+02 -0.15608863004E+03  0.20173490267E+03  0.41800000000E+01 0. -1.
         -5    1    3    3    0  502 -0.18217320443E+02  0.22444695462E+02 -0.73466379382E+01  0.30117778928E+02  0.41800000000E+01 0. -1.
        -11    1    1    2    0    0 -0.26205191478E+02  0.21200954421E+01  0.60681410846E+02  0.66131992918E+02  0.00000000000E+00 0. -1.
         11    1    1    2    0    0 -0.80462016942E+02  0.22622957950E+01 -0.14915222442E+02  0.81864021482E+02  0.00000000000E+00 0.  1.
</event>
<event>
 6    1  0.5109948E-006  0.1130613E+03  0.7561462E-02  0.1255004E+00
          2   -1    0    0  501    0  0.00000000000E+00  0.00000000000E+00  0.62521357730E+02  0.62521357730E+02  0.00000000000E+00 0. -1.
         -2   -1    0    0    0  501 -0.00000000000E+00 -0.00000000000E+00 -0.25406882424E+03  0.25406882424E+03  0.00000000000E+00 0.  1.
          5    1    1    2  502    0 -0.66294925421E+02 -0.27047476498E+01 -0.45159794437E+02  0.80369224397E+02  0.41800000000E+01 0. -1.
         -5    1    1    2    0  502  0.27903800773E+02  0.71468261713E+02 -0.13081651811E+03  0.15171278239E+03  0.41800000000E+01 0.  1.
        -11    1    1    2    0    0  0.65681366833E+01 -0.37929620620E+02 -0.10552113309E+02  0.39914203426E+02  0.00000000000E+00 0. -1.
         11    1    1    2    0    0  0.31822987966E+02 -0.30833893443E+02 -0.50190406512E+01  0.44593971756E+02  0.00000000000E+00 0.  1.
</event>
<event>
 7    1  0.5109948E-006  0.1105711E+03  0.7561462E-02  0.1259516E+00
         -2   -1    0    0    0  501 -0.00000000000E+00  0.00000000000E+00  0.45457485062E+02  0.45457485062E+02  0.00000000000E+00 0.  1.
          2   -1    0    0  501    0  0.00000000000E+00 -0.00000000000E+00 -0.29211285409E+03  0.29211285409E+03  0.00000000000E+00 0. -1.
         23    2    1    2    0    0  0.15147806604E+01  0.28493982697E+02 -0.10975592061E+03  0.16884208595E+03  0.12508831388E+03 0.  0.
          5    1    3    3  502    0 -0.26686974946E+02 -0.43302263271E+02 -0.42399740371E+02  0.66351269918E+02  0.41800000000E+01 0. -1.
         -5    1    3    3    0  502  0.28201755606E+02  0.71796245969E+02 -0.67356180241E+02  0.10249081603E+03  0.41800000000E+01 0. -1.
        -11    1    1    2    0    0 -0.43943198369E+02 -0.24315850202E+02 -0.10176452722E+03  0.11348252841E+03  0.00000000000E+00 0.  1.
         11    1    1    2    0    0  0.42428417709E+02 -0.41781324950E+01 -0.35134921199E+02  0.55245724795E+02  0.00000000000E+00 0. -1.
</event>
<event>
 7    1  0.5109948E-006  0.1225694E+03  0.7561462E-02  0.1238918E+00
         -2   -1    0    0    0  501 -0.00000000000E+00  0.00000000000E+00  0.22195309436E+02  0.22195309436E+02  0.00000000000E+00 0.  1.
          2   -1    0    0  501    0  0.00000000000E+00 -0.00000000000E+00 -0.93353313513E+03  0.93353313513E+03  0.00000000000E+00 0. -1.
         23    2    1    2    0    0 -0.89319732602E+02 -0.80254233384E+01 -0.59291920244E+03  0.61257837523E+03  0.12512658841E+03 0.  0.
          5    1    3    3  502    0 -0.82450400408E+02  0.39344972073E+02 -0.49648088959E+03  0.50483347896E+03  0.41800000000E+01 0. -1.
         -5    1    3    3    0  502 -0.68693321935E+01 -0.47370395411E+02 -0.96438312853E+02  0.10774489627E+03  0.41800000000E+01 0. -1.
        -11    1    1    2    0    0  0.56973480151E+02  0.32028310177E+02 -0.27985752659E+03  0.28738828314E+03  0.00000000000E+00 0. -1.
         11    1    1    2    0    0  0.32346252451E+02 -0.24002886839E+02 -0.38561096658E+02  0.55761786195E+02  0.00000000000E+00 0.  1.
</event>
<event>
 7    1  0.5109948E-006  0.1140170E+03  0.7561462E-02  0.1253307E+00
         -2   -1    0    0    0  501 -0.00000000000E+00  0.00000000000E+00  0.15523084343E+03  0.15523084343E+03  0.00000000000E+00 0.  1.
          2   -1    0    0  501    0  0.00000000000E+00 -0.00000000000E+00 -0.10330300382E+03  0.10330300382E+03  0.00000000000E+00 0. -1.
         23    2    1    2    0    0  0.28059961114E+02  0.53848247637E+02  0.47559358413E+02  0.14700498081E+03  0.12514622096E+03 0.  0.
          5    1    3    3  502    0 -0.35762462381E+02  0.43373017500E+02 -0.13496574989E+02  0.57963801627E+02  0.41800000000E+01 0. -1.
         -5    1    3    3    0  502  0.63822423495E+02  0.10475230138E+02  0.61055933402E+02  0.89041179186E+02  0.41800000000E+01 0. -1.
        -11    1    1    2    0    0 -0.39321720102E+02  0.11160706065E+02 -0.13721545532E+02  0.43116584320E+02  0.00000000000E+00 0. -1.
         11    1    1    2    0    0  0.11261758988E+02 -0.65008953702E+02  0.18090026724E+02  0.68412282113E+02  0.00000000000E+00 0.  1.
</event>
<event>
 7    1  0.5109948E-006  0.1410295E+03  0.7561462E-02  0.1211950E+00
         -1   -1    0    0    0  501 -0.00000000000E+00  0.00000000000E+00  0.13375359604E+03  0.13375359604E+03  0.00000000000E+00 0.  1.
          1   -1    0    0  501    0  0.00000000000E+00 -0.00000000000E+00 -0.15344267227E+03  0.15344267227E+03  0.00000000000E+00 0. -1.
         23    2    1    2    0    0  0.69213212396E+02 -0.64686422241E+02  0.63424787020E+01  0.15704494871E+03  0.12509231346E+03 0.  0.
          5    1    3    3  502    0  0.59834859037E+02  0.25177947226E+02 -0.77270732804E+01  0.65508163186E+02  0.41800000000E+01 0.  1.
         -5    1    3    3    0  502  0.93783533584E+01 -0.89864369467E+02  0.14069551982E+02  0.91536785526E+02  0.41800000000E+01 0.  1.
        -11    1    1    2    0    0  0.17615593541E+02 -0.10595306309E+01  0.18020982619E+01  0.17739202324E+02  0.00000000000E+00 0.  1.
         11    1    1    2    0    0 -0.86828805937E+02  0.65745952872E+02 -0.27833653202E+02  0.11241211727E+03  0.00000000000E+00 0. -1.
</event>
<event>
 7    1  0.5109948E-006  0.1227172E+03  0.7561462E-02  0.1238681E+00
         -2   -1    0    0    0  501 -0.00000000000E+00  0.00000000000E+00  0.26549460719E+03  0.26549460719E+03  0.00000000000E+00 0.  1.
          2   -1    0    0  501    0  0.00000000000E+00 -0.00000000000E+00 -0.11974209375E+03  0.11974209375E+03  0.00000000000E+00 0. -1.
         23    2    1    2    0    0 -0.91531029331E+02  0.31546383474E+02  0.18772378765E+03  0.24548025365E+03  0.12508889177E+03 0.  0.
          5    1    3    3  502    0  0.15378931239E+02  0.20358734096E+02 -0.34840649566E+01  0.26088324758E+02  0.41800000000E+01 0. -1.
         -5    1    3    3    0  502 -0.10690996057E+03  0.11187649378E+02  0.19120785260E+03  0.21939192890E+03  0.41800000000E+01 0. -1.
        -11    1    1    2    0    0  0.14719097391E+02 -0.31965580820E+02  0.20517332996E+02  0.40735870415E+02  0.00000000000E+00 0.  1.
         11    1    1    2    0    0  0.76811931940E+02  0.41919734610E+00 -0.62488607194E+02  0.99020576870E+02  0.00000000000E+00 0. -1.
</event>
<event>
 7    1  0.5109948E-006  0.8846702E+02  0.7561462E-02  0.1306607E+00
         -2   -1    0    0    0  501 -0.00000000000E+00  0.00000000000E+00  0.39576167199E+02  0.39576167199E+02  0.00000000000E+00 0.  1.
          2   -1    0    0  501    0  0.00000000000E+00 -0.00000000000E+00 -0.33710825985E+03  0.33710825985E+03  0.00000000000E+00 0. -1.
         23    2    1    2    0    0  0.20768149369E+01  0.23600578413E+02 -0.10773078723E+03  0.16677720751E+03  0.12508962373E+03 0.  0.
          5    1    3    3  502    0  0.13463570824E+02  0.67127841034E+02 -0.25937122902E+02  0.73332267971E+02  0.41800000000E+01 0. -1.
         -5    1    3    3    0  502 -0.11386755887E+02 -0.43527262622E+02 -0.81793664330E+02  0.93444939539E+02  0.41800000000E+01 0. -1.
        -11    1    1    2    0    0 -0.14619020091E+02  0.15966816579E+02 -0.74546167629E+01  0.22895988539E+02  0.00000000000E+00 0.  1.
         11    1    1    2    0    0  0.12542205154E+02 -0.39567394992E+02 -0.18234668866E+03  0.18701123100E+03  0.00000000000E+00 0. -1.
</event>
<event>
 7    1  0.5109948E-006  0.1064116E+03  0.7561462E-02  0.1267363E+00
          2   -1    0    0  501    0  0.00000000000E+00  0.00000000000E+00  0.55205670587E+03  0.55205670587E+03  0.00000000000E+00 0. -1.
         -2   -1    0    0    0  501 -0.00000000000E+00 -0.00000000000E+00 -0.24732799550E+02  0.24732799550E+02  0.00000000000E+00 0.  1.
         23    2    1    2    0    0 -0.16955451821E+01  0.91301778253E+01  0.19750087893E+03  0.23396536090E+03  0.12508780077E+03 0.  0.
          5    1    3    3  502    0 -0.17518767627E+02 -0.53154720736E+02  0.12482848838E+03  0.13686473420E+03  0.41800000000E+01 0.  1.
         -5    1    3    3    0  502  0.15823222445E+02  0.62284898561E+02  0.72672390542E+02  0.97100626694E+02  0.41800000000E+01 0.  1.
        -11    1    1    2    0    0 -0.41415990969E+02 -0.22539716431E+02  0.19592885346E+03  0.20152279956E+03  0.00000000000E+00 0. -1.
         11    1    1    2    0    0  0.43111536151E+02  0.13409538606E+02  0.13389417394E+03  0.14130134497E+03  0.00000000000E+00 0.  1.
</event>
<event>
 7    1  0.5109948E-006  0.1110383E+03  0.7561462E-02  0.1258659E+00
          2   -1    0    0  501    0  0.00000000000E+00  0.00000000000E+00  0.81837639725E+03  0.81837639725E+03  0.00000000000E+00 0.  1.
         -2   -1    0    0    0  501 -0.00000000000E+00 -0.00000000000E+00 -0.15536292185E+02  0.15536292185E+02  0.00000000000E+00 0. -1.
         23    2    1    2    0    0  0.22641778361E+02  0.23548613313E+02  0.44584336592E+03  0.46421286200E+03  0.12510030775E+03 0.  0.
          5    1    3    3  502    0  0.18868781674E+02  0.74748827944E+02  0.24551544253E+03  0.25736884645E+03  0.41800000000E+01 0.  1.
         -5    1    3    3    0  502  0.37729966864E+01 -0.51200214631E+02  0.20032792339E+03  0.20684401556E+03  0.41800000000E+01 0.  1.
        -11    1    1    2    0    0  0.33404769969E+02 -0.15183520774E+02  0.99732673389E+02  0.10626864119E+03  0.00000000000E+00 0. -1.
         11    1    1    2    0    0 -0.56046548330E+02 -0.83650925394E+01  0.25726406576E+03  0.26343118624E+03  0.00000000000E+00 0.  1.
</event>
<event>
 7    1  0.5109948E-006  0.8909004E+02  0.7561462E-02  0.1305070E+00
          3   -1    0    0  501    0  0.00000000000E+00  0.00000000000E+00  0.45475954522E+02  0.45475954522E+02  0.00000000000E+00 0. -1.
         -3   -1    0    0    0  501 -0.00000000000E+00 -0.00000000000E+00 -0.26110150317E+03  0.26110150317E+03  0.00000000000E+00 0.  1.
         23    2    1    2    0    0 -0.98331746849E+01  0.15059454907E+01 -0.13969063031E+03  0.18776531159E+03  0.12507350177E+03 0.  0.
          5    1    3    3  502    0 -0.54640690819E+02  0.10590059813E+02 -0.19529185482E+02  0.59132190435E+02  0.41800000000E+01 0. -1.
         -5    1    3    3    0  502  0.44807516134E+02 -0.90841143220E+01 -0.12016144483E+03  0.12863312116E+03  0.41800000000E+01 0. -1.
        -11    1    1    2    0    0 -0.30624309252E+02 -0.14607996380E+02 -0.25878321246E+01  0.34028499093E+02  0.00000000000E+00 0. -1.
         11    1    1    2    0    0  0.40457483937E+02  0.13102050890E+02 -0.73347086209E+02  0.84783647005E+02  0.00000000000E+00 0.  1.
</event>
<event>
 7    1  0.5109948E-006  0.9015344E+02  0.7561462E-02  0.1302481E+00
         -2   -1    0    0    0  501 -0.00000000000E+00  0.00000000000E+00  0.58254500647E+03  0.58254500647E+03  0.00000000000E+00 0.  1.
          2   -1    0    0  501    0  0.00000000000E+00 -0.00000000000E+00 -0.29453496182E+02  0.29453496182E+02  0.00000000000E+00 0. -1.
         23    2    1    2    0    0 -0.13752557947E+02  0.71395663805E+02  0.30853969136E+03  0.34074808574E+03  0.12500417247E+03 0.  0.
          5    1    3    3  502    0  0.20856981258E+02  0.17251527901E+02  0.19377076267E+01  0.27456438097E+02  0.41800000000E+01 0. -1.
         -5    1    3    3    0  502 -0.34609539205E+02  0.54144135904E+02  0.30660198373E+03  0.31329164765E+03  0.41800000000E+01 0. -1.
        -11    1    1    2    0    0  0.32307274184E+02 -0.34755008467E+02  0.21619501770E+03  0.22134126650E+03  0.00000000000E+00 0.  1.
         11    1    1    2    0    0 -0.18554716237E+02 -0.36640655337E+02  0.28356801229E+02  0.49909150405E+02  0.00000000000E+00 0. -1.
</event>
<event>
 7    1  0.5109948E-006  0.9238488E+02  0.7561462E-02  0.1297177E+00
         -4   -1    0    0    0  501 -0.00000000000E+00  0.00000000000E+00  0.77116361929E+02  0.77116361929E+02  0.00000000000E+00 0.  1.
          4   -1    0    0  501    0  0.00000000000E+00 -0.00000000000E+00 -0.20424399456E+03  0.20424399456E+03  0.00000000000E+00 0. -1.
         23    2    1    2    0    0  0.15409102203E+02  0.44279698415E+02 -0.70284771872E+01  0.13376642427E+03  0.12508367059E+03 0.  0.
          5    1    3    3  502    0  0.43894900458E+02  0.60470206193E+02  0.33065923381E+02  0.81818309762E+02  0.41800000000E+01 0.  1.
         -5    1    3    3    0  502 -0.28485798255E+02 -0.16190507778E+02 -0.40094400568E+02  0.51948114511E+02  0.41800000000E+01 0.  1.
        -11    1    1    2    0    0 -0.17043578058E+02  0.11842340318E+02 -0.80416334410E+01  0.22257413274E+02  0.00000000000E+00 0.  1.
         11    1    1    2    0    0  0.16344758550E+01 -0.56122038734E+02 -0.11205752200E+03  0.12533651894E+03  0.00000000000E+00 0. -1.
</event>
<event>
 7    1  0.5109948E-006  0.1636366E+03  0.7561462E-02  0.1184651E+00
          2   -1    0    0  501    0  0.00000000000E+00  0.00000000000E+00  0.10059832028E+04  0.10059832028E+04  0.00000000000E+00 0. -1.
         -2   -1    0    0    0  501 -0.00000000000E+00 -0.00000000000E+00 -0.50172584495E+02  0.50172584495E+02  0.00000000000E+00 0.  1.
         23    2    1    2    0    0  0.15261126261E+03  0.46550353563E+02  0.22422330063E+03  0.30229450887E+03  0.12509495857E+03 0.  0.
          5    1    3    3  502    0  0.38034404416E+02  0.30885119141E+02  0.16525882197E+03  0.17241942217E+03  0.41800000000E+01 0.  1.
         -5    1    3    3    0  502  0.11457685819E+03  0.15665234422E+02  0.58964478661E+02  0.12987508670E+03  0.41800000000E+01 0.  1.
        -11    1    1    2    0    0 -0.11022144827E+03 -0.19056573749E+02  0.63580788726E+03  0.64557229662E+03  0.00000000000E+00 0.  1.
         11    1    1    2    0    0 -0.42389814332E+02 -0.27493779814E+02  0.95779430394E+02  0.10828898178E+03  0.00000000000E+00 0. -1.
</event>
<event>
 6    1  0.5109948E-006  0.1636991E+03  0.7561462E-02  0.1184583E+00
          2   -1    0    0  501    0  0.00000000000E+00  0.00000000000E+00  0.63065034316E+03  0.63065034316E+03  0.00000000000E+00 0. -1.
         -2   -1    0    0    0  501 -0.00000000000E+00 -0.00000000000E+00 -0.52618787647E+02  0.52618787647E+02  0.00000000000E+00 0.  1.
          5    1    1    2  502    0  0.42373759840E+02  0.11775224104E+03  0.15940471250E+03  0.20270288740E+03  0.41800000000E+01 0. -1.
         -5    1    1    2    0  502 -0.60361198599E+02  0.34653037796E+01  0.41150257144E+02  0.73255025012E+02  0.41800000000E+01 0.  1.
        -11    1    1    2    0    0 -0.24646651738E+02 -0.19971011961E+02  0.33142446057E+02  0.45877232820E+02  0.00000000000E+00 0.  1.
         11    1    1    2    0    0  0.42634090497E+02 -0.10124653286E+03  0.34433413981E+03  0.36143398558E+03  0.00000000000E+00 0. -1.
</event>
<event>
 7    1  0.5109948E-006  0.1117312E+03  0.7561462E-02  0.1257397E+00
          4   -1    0    0  501    0  0.00000000000E+00  0.00000000000E+00  0.85258347648E+02  0.85258347648E+02  0.00000000000E+00 0. -1.
         -4   -1    0    0    0  501 -0.00000000000E+00 -0.00000000000E+00 -0.22264200011E+03  0.22264200011E+03  0.00000000000E+00 0.  1.
         23    2    1    2    0    0 -0.75865124674E+02 -0.37487407016E+01 -0.11814532969E+03  0.18807903033E+03  0.12508330234E+03 0.  0.
          5    1    3    3  502    0 -0.50137982668E+02  0.59253637568E+02 -0.55754963471E+02  0.95660332545E+02  0.41800000000E+01 0. -1.
         -5    1    3    3    0  502 -0.25727142007E+02 -0.63002378269E+02 -0.62390366218E+02  0.92418697785E+02  0.41800000000E+01 0. -1.
        -11    1    1    2    0    0  0.37637213298E+02 -0.59639540912E+01 -0.54778108214E+02  0.66729076966E+02  0.00000000000E+00 0.  1.
         11    1    1    2    0    0  0.38227911376E+02  0.97126947928E+01  0.35539785440E+02  0.53092240464E+02  0.00000000000E+00 0. -1.
</event>
<event>
 7    1  0.5109948E-006  0.1676701E+03  0.7561462E-02  0.1180300E+00
          1   -1    0    0  501    0  0.00000000000E+00  0.00000000000E+00  0.26633631070E+03  0.26633631070E+03  0.00000000000E+00 0. -1.
         -1   -1    0    0    0  501 -0.00000000000E+00 -0.00000000000E+00 -0.11972706861E+03  0.11972706861E+03  0.00000000000E+00 0.  1.
         23    2    1    2    0    0 -0.13141426900E+03 -0.38074317560E+02  0.36749678986E+02  0.18898738689E+03  0.12508528986E+03 0.  0.
          5    1    3    3  502    0 -0.38346590324E+01 -0.43598161370E+02  0.42420610366E+02  0.61094065739E+02  0.41800000000E+01 0.  1.
         -5    1    3    3    0  502 -0.12757960997E+03  0.55238438092E+01 -0.56709313802E+01  0.12789332115E+03  0.41800000000E+01 0.  1.
        -11    1    1    2    0    0  0.95658136130E+02  0.67684539474E+02  0.79550355059E+02  0.14163309953E+03  0.00000000000E+00 0. -1.
         11    1    1    2    0    0  0.35756132875E+02 -0.29610221914E+02  0.30309208053E+02  0.55442892897E+02  0.00000000000E+00 0.  1.
</event>
<event>
 7    1  0.5109948E-006  0.9906770E+02  0.7561462E-02  0.1282269E+00
          1   -1    0    0  501    0  0.00000000000E+00  0.00000000000E+00  0.10230501808E+03  0.10230501808E+03  0.00000000000E+00 0. -1.
         -1   -1    0    0    0  501 -0.00000000000E+00 -0.00000000000E+00 -0.14306309919E+03  0.14306309919E+03  0.00000000000E+00 0.  1.
         23    2    1    2    0    0  0.27128981637E+02  0.12803843737E+02 -0.79028999008E+02  0.14245665017E+03  0.11466644860E+03 0.  0.
          5    1    3    3  502    0  0.13712341184E+02 -0.44641219707E+02 -0.67528731224E+02  0.82209906571E+02  0.41800000000E+01 0. -1.
         -5    1    3    3    0  502  0.13416640453E+02  0.57445063444E+02 -0.11500267784E+02  0.60246743598E+02  0.41800000000E+01 0.  1.
        -11    1    1    2    0    0 -0.49468646193E+02 -0.35015617120E+02  0.11759181081E+02  0.61737498638E+02  0.00000000000E+00 0.  1.
         11    1    1    2    0    0  0.22339664556E+02  0.22211773383E+02  0.26511736827E+02  0.41173968462E+02  0.00000000000E+00 0. -1.
</event>
<event>
 6    1  0.5109948E-006  0.8083399E+02  0.7561462E-02  0.1326701E+00
          1   -1    0    0  501    0  0.00000000000E+00  0.00000000000E+00  0.63761896051E+02  0.63761896051E+02  0.00000000000E+00 0. -1.
         -1   -1    0    0    0  501 -0.00000000000E+00 -0.00000000000E+00 -0.22967331693E+03  0.22967331693E+03  0.00000000000E+00 0.  1.
          5    1    1    2  502    0  0.13534068341E+02 -0.62286360396E+02  0.12348154566E+02  0.65059288487E+02  0.41800000000E+01 0. -1.
         -5    1    1    2    0  502 -0.25164536930E+02  0.36435798996E+02 -0.82337455055E+02  0.93582852448E+02  0.41800000000E+01 0.  1.
        -11    1    1    2    0    0  0.18541675636E+02  0.36313774953E+02 -0.10917957351E+03  0.11654468353E+03  0.00000000000E+00 0.  1.
         11    1    1    2    0    0 -0.69112070472E+01 -0.10463213553E+02  0.13257453113E+02  0.18248388524E+02  0.00000000000E+00 0. -1.
</event>
<event>
 7    1  0.5109948E-006  0.1225182E+03  0.7561462E-02  0.1239000E+00
          1   -1    0    0  501    0  0.00000000000E+00  0.00000000000E+00  0.22883062265E+03  0.22883062265E+03  0.00000000000E+00 0. -1.
         -1   -1    0    0    0  501 -0.00000000000E+00 -0.00000000000E+00 -0.74524681749E+02  0.74524681749E+02  0.00000000000E+00 0.  1.
         23    2    1    2    0    0 -0.72557017907E+02 -0.25023833123E+01  0.87532002452E+02  0.16907056579E+03  0.12510884059E+03 0.  0.
          5    1    3    3  502    0 -0.90944023455E+02 -0.36577132038E+02  0.85389712787E+02  0.13006758797E+03  0.41800000000E+01 0. -1.
         -5    1    3    3    0  502  0.18387005548E+02  0.34074748726E+02  0.21422896653E+01  0.39002977819E+02  0.41800000000E+01 0. -1.
        -11    1    1    2    0    0  0.30450561779E+02 -0.38581340415E+02  0.55942899205E+02  0.74467204274E+02  0.00000000000E+00 0. -1.
         11    1    1    2    0    0  0.42106456127E+02  0.41083723728E+02  0.10831039243E+02  0.59817534336E+02  0.00000000000E+00 0.  1.
</event>
<event>
 7    1  0.5109948E-006  0.9619588E+02  0.7561462E-02  0.1288505E+00
          1   -1    0    0  501    0  0.00000000000E+00  0.00000000000E+00  0.11915882108E+03  0.11915882108E+03  0.00000000000E+00 0. -1.
         -1   -1    0    0    0  501 -0.00000000000E+00 -0.00000000000E+00 -0.12516536425E+03  0.12516536425E+03  0.00000000000E+00 0.  1.
         23    2    1    2    0    0 -0.29409202424E+02 -0.46870040388E+02 -0.10080496805E+02  0.13715164330E+03  0.12508898821E+03 0.  0.
          5    1    3    3  502    0 -0.65709607912E+02 -0.52910227312E+02  0.22946352444E+02  0.87528579427E+02  0.41800000000E+01 0.  1.
         -5    1    3    3    0  502  0.36300405487E+02  0.60401869234E+01 -0.33026849249E+02  0.49623063871E+02  0.41800000000E+01 0.  1.
        -11    1    1    2    0    0  0.40457362138E+02  0.28628544405E+02 -0.36353275372E+02  0.61465049713E+02  0.00000000000E+00 0.  1.
         11    1    1    2    0    0 -0.11048159713E+02  0.18241495983E+02  0.40427229012E+02  0.45707492321E+02  0.00000000000E+00 0. -1.
</event>
<event>
 7    1  0.5109948E-006  0.8359717E+02  0.7561462E-02  0.1319142E+00
          1   -1    0    0  501    0  0.00000000000E+00  0.00000000000E+00  0.17336748484E+03  0.17336748484E+03  0.00000000000E+00 0. -1.
         -1   -1    0    0    0  501 -0.00000000000E+00 -0.00000000000E+00 -0.99216102718E+02  0.99216102718E+02  0.00000000000E+00 0.  1.
         23    2    1    2    0    0 -0.41357861736E+02 -0.39446392499E+02 -0.63080601727E+01  0.13762640929E+03  0.12503897913E+03 0.  0.
          5    1    3    3  502    0  0.12000429683E+02 -0.61723148792E+01  0.50708925453E+02  0.52640054181E+02  0.41800000000E+01 0.  1.
         -5    1    3    3    0  502 -0.53358291420E+02 -0.33274077619E+02 -0.57016985626E+02  0.84986355108E+02  0.41800000000E+01 0.  1.
        -11    1    1    2    0    0 -0.16896222585E+02  0.24747580403E+02 -0.51143774692E+01  0.30398715932E+02  0.00000000000E+00 0.  1.
         11    1    1    2    0    0  0.58254084321E+02  0.14698812095E+02  0.85573819760E+02  0.10455846233E+03  0.00000000000E+00 0. -1.
</event>
<event>
 7    1  0.5109948E-006  0.1545822E+03  0.7561462E-02  0.1194953E+00
         -2   -1    0    0    0  501 -0.00000000000E+00  0.00000000000E+00  0.45450783571E+02  0.45450783571E+02  0.00000000000E+00 0.  1.
          2   -1    0    0  501    0  0.00000000000E+00 -0.00000000000E+00 -0.65753911892E+03  0.65753911892E+03  0.00000000000E+00 0. -1.
         23    2    1    2    0    0 -0.93071471641E+02 -0.67280537086E+02 -0.18279931370E+03  0.24950212121E+03  0.12508696933E+03 0.  0.
          5    1    3    3  502    0  0.30712498444E+02 -0.18842397163E+02 -0.31280462852E+02  0.47898154952E+02  0.41800000000E+01 0. -1.
         -5    1    3    3    0  502 -0.12378397009E+03 -0.48438139923E+02 -0.15151885085E+03  0.20160396626E+03  0.41800000000E+01 0. -1.
        -11    1    1    2    0    0 -0.12040198620E+02 -0.42402784542E+01 -0.13007909345E+02  0.18225039087E+02  0.00000000000E+00 0.  1.
         11    1    1    2    0    0  0.10511167026E+03  0.71520815540E+02 -0.41628111230E+03  0.43526274219E+03  0.00000000000E+00 0. -1.
</event>
<event>
 7    1  0.5109948E-006  0.1069327E+03  0.7561462E-02  0.1266358E+00
          3   -1    0    0  501    0  0.00000000000E+00  0.00000000000E+00  0.16200721593E+03  0.16200721593E+03  0.00000000000E+00 0. -1.
         -3   -1    0    0    0  501 -0.00000000000E+00 -0.00000000000E+00 -0.12253711580E+03  0.12253711580E+03  0.00000000000E+00 0.  1.
         23    2    1    2    0    0  0.51345012442E+02 -0.32124539347E+02 -0.43599462036E+02  0.14565833306E+03  0.12508853092E+03 0.  0.
          5    1    3    3  502    0  0.76156730492E+02 -0.33006028346E+02 -0.70378212952E+02  0.10890275830E+03  0.41800000000E+01 0.  1.
         -5    1    3    3    0  502 -0.24811718050E+02  0.88148899900E+00  0.26778750917E+02  0.36755574762E+02  0.41800000000E+01 0.  1.
        -11    1    1    2    0    0  0.16660520045E+02  0.33661660878E+02  0.96100154490E+01  0.38768966173E+02  0.00000000000E+00 0.  1.
         11    1    1    2    0    0 -0.68005532486E+02 -0.15371215309E+01  0.73459546714E+02  0.10011703249E+03  0.00000000000E+00 0. -1.
</event>
<event>
 7    1  0.5109948E-006  0.9601263E+02  0.7561462E-02  0.1288912E+00
          3   -1    0    0  501    0  0.00000000000E+00  0.00000000000E+00  0.95186597804E+02  0.95186597804E+02  0.00000000000E+00 0. -1.
         -3   -1    0    0    0  501 -0.00000000000E+00 -0.00000000000E+00 -0.15386651258E+03  0.15386651258E+03  0.00000000000E+00 0.  1.
         23    2    1    2    0    0  0.34397727892E+02 -0.65784460047E+01 -0.74782113334E+02  0.14988667095E+03  0.12508864863E+03 0.  0.
          5    1    3    3  502    0  0.17661360667E+02 -0.51724217556E+02  0.66245341840E+01  0.55214809567E+02  0.41800000000E+01 0. -1.
         -5    1    3    3    0  502  0.16736367225E+02  0.45145771551E+02 -0.81406647518E+02  0.94671861379E+02  0.41800000000E+01 0. -1.
        -11    1    1    2    0    0 -0.60268108352E+02 -0.51247852286E+01  0.30041330059E+02  0.67535100649E+02  0.00000000000E+00 0.  1.
         11    1    1    2    0    0  0.25870380461E+02  0.11703231233E+02 -0.13939131497E+02  0.31631338786E+02  0.00000000000E+00 0. -1.
</event>
<event>
 7    1  0.5109948E-006  0.1828455E+03  0.7561462E-02  0.1165077E+00
         -2   -1    0    0    0  501 -0.00000000000E+00  0.00000000000E+00  0.22533895078E+03  0.22533895078E+03  0.00000000000E+00 0. -1.
          2   -1    0    0  501    0  0.00000000000E+00 -0.00000000000E+00 -0.21182327718E+03  0.21182327718E+03  0.00000000000E+00 0.  1.
         23    2    1    2    0    0 -0.16760618413E+03  0.53600181830E+00  0.90288816045E+02  0.22779741821E+03  0.12508986044E+03 0.  0.
          5    1    3    3  502    0 -0.18121796741E+03 -0.43577651748E+01  0.10261247201E+03  0.20834042729E+03  0.41800000000E+01 0.  1.
         -5    1    3    3    0  502  0.13611783284E+02  0.48937669931E+01 -0.12323655962E+02  0.19456990924E+02  0.41800000000E+01 0.  1.
        -11    1    1    2    0    0  0.72326762122E+02  0.11654457866E+02 -0.85875206602E+02  0.11287842139E+03  0.00000000000E+00 0.  1.
         11    1    1    2    0    0  0.95279422005E+02 -0.12190459685E+02  0.91020641548E+01  0.96486388350E+02  0.00000000000E+00 0. -1.
</event>
<event>
 7    1  0.5109948E-006  0.1163752E+03  0.7561462E-02  0.1249199E+00
          2   -1    0    0  501    0  0.00000000000E+00  0.00000000000E+00  0.27887561371E+03  0.27887561371E+03  0.00000000000E+00 0. -1.
         -2   -1    0    0    0  501 -0.00000000000E+00 -0.00000000000E+00 -0.52951841109E+02  0.52951841109E+02  0.00000000000E+00 0.  1.
         23    2    1    2    0    0  0.13579179282E+02 -0.54014901569E+02  0.10401050058E+03  0.17195119633E+03  0.12508807292E+03 0.  0.
          5    1    3    3  502    0  0.19394869641E+02 -0.93987528494E+02  0.68191244967E+02  0.11780210003E+03  0.41800000000E+01 0. -1.
         -5    1    3    3    0  502 -0.58156903597E+01  0.39972626925E+02  0.35819255615E+02  0.54149096303E+02  0.41800000000E+01 0. -1.
        -11    1    1    2    0    0  0.23378580626E+02 -0.72990055480E+01  0.88264434802E+01  0.26033432709E+02  0.00000000000E+00 0.  1.
         11    1    1    2    0    0 -0.36957759908E+02  0.61313907117E+02  0.11308682854E+03  0.13384282578E+03  0.00000000000E+00 0. -1.
</event>
<event>
 7    1  0.5109948E-006  0.1147891E+03  0.7561462E-02  0.1251950E+00
          3   -1    0    0  501    0  0.00000000000E+00  0.00000000000E+00  0.26882124087E+03  0.26882124087E+03  0.00000000000E+00 0. -1.
         -3   -1    0    0    0  501 -0.00000000000E+00 -0.00000000000E+00 -0.83719275122E+02  0.83719275122E+02  0.00000000000E+00 0.  1.
         23    2    1    2    0    0 -0.38787084061E+02  0.19827259043E+02 -0.72122172801E+01  0.13265520589E+03  0.12509128459E+03 0.  0.
          5    1    3    3  502    0  0.17906694930E+02 -0.38450107224E+02  0.19641256723E+02  0.46928795366E+02  0.41800000000E+01 0. -1.
         -5    1    3    3    0  502 -0.56693778990E+02  0.58277366267E+02 -0.26853474003E+02  0.85726410523E+02  0.41800000000E+01 0. -1.
        -11    1    1    2    0    0 -0.31935328606E+02  0.56969504452E+00  0.73188230892E+02  0.79854285463E+02  0.00000000000E+00 0.  1.
         11    1    1    2    0    0  0.70722412667E+02 -0.20396954088E+02  0.11912595214E+03  0.14003102464E+03  0.00000000000E+00 0. -1.
</event>
<event>
 7    1  0.5109948E-006  0.1306868E+03  0.7561462E-02  0.1226440E+00
          2   -1    0    0  501    0  0.00000000000E+00  0.00000000000E+00  0.55155996470E+02  0.55155996470E+02  0.00000000000E+00 0.  1.
         -2   -1    0    0    0  501 -0.00000000000E+00 -0.00000000000E+00 -0.45047640786E+03  0.45047640786E+03  0.00000000000E+00 0. -1.
         23    2    1    2    0    0 -0.60533244662E+02 -0.87056239030E+02 -0.25633796268E+03  0.30429907228E+03  0.12508281983E+03 0.  0.
          5    1    3    3  502    0 -0.60709624802E+01 -0.80255615791E+02 -0.22914407138E+03  0.24290388696E+03  0.41800000000E+01 0. -1.
         -5    1    3    3    0  502 -0.54462282182E+02 -0.68006232390E+01 -0.27193891302E+02  0.61395185325E+02  0.41800000000E+01 0. -1.
        -11    1    1    2    0    0  0.65990349103E+01  0.68323355803E+02 -0.12491336779E+03  0.14253062009E+03  0.00000000000E+00 0. -1.
         11    1    1    2    0    0  0.53934209752E+02  0.18732883228E+02 -0.14069080916E+02  0.58802711956E+02  0.00000000000E+00 0.  1.
</event>
<event>
 7    1  0.5109948E-006  0.6788327E+02  0.7561462E-02  0.1367443E+00
         -2   -1    0    0    0  501 -0.00000000000E+00  0.00000000000E+00  0.59593333950E+02  0.59593333950E+02  0.00000000000E+00 0.  1.
          2   -1    0    0  501    0  0.00000000000E+00 -0.00000000000E+00 -0.19568503841E+03  0.19568503841E+03  0.00000000000E+00 0. -1.
         23    2    1    2    0    0 -0.34877901073E+02  0.17833325619E+02 -0.76751852044E+02  0.15190049108E+03  0.12509363258E+03 0.  0.
          5    1    3    3  502    0  0.11992540802E+02  0.37327296800E+01  0.30874944983E+02  0.33592989350E+02  0.41800000000E+01 0.  1.
         -5    1    3    3    0  502 -0.46870441875E+02  0.14100595939E+02 -0.10762679703E+03  0.11830750173E+03  0.41800000000E+01 0.  1.
        -11    1    1    2    0    0  0.36463761435E+02  0.15796489795E+02 -0.57191842304E+02  0.69642241592E+02  0.00000000000E+00 0. -1.
         11    1    1    2    0    0 -0.15858603618E+01 -0.33629815413E+02 -0.21480101145E+01  0.33735639690E+02  0.00000000000E+00 0.  1.
</event>
<event>
 7    1  0.5109948E-006  0.1243918E+03  0.7561462E-02  0.1236023E+00
          1   -1    0    0  501    0  0.00000000000E+00  0.00000000000E+00  0.43087712075E+02  0.43087712075E+02  0.00000000000E+00 0. -1.
         -1   -1    0    0    0  501 -0.00000000000E+00 -0.00000000000E+00 -0.49172586183E+03  0.49172586183E+03  0.00000000000E+00 0.  1.
         23    2    1    2    0    0 -0.96530035104E+02  0.13953094975E+01 -0.27271617682E+03  0.31518535289E+03  0.12509076311E+03 0.  0.
          5    1    3    3  502    0  0.55947402315E+01  0.26102123349E+02 -0.48943361788E+01  0.27459950623E+02  0.41800000000E+01 0.  1.
         -5    1    3    3    0  502 -0.10212477534E+03 -0.24706813852E+02 -0.26782184064E+03  0.28772540227E+03  0.41800000000E+01 0.  1.
        -11    1    1    2    0    0  0.42647295614E+02  0.31910430302E+02 -0.31393356071E+02  0.61827260902E+02  0.00000000000E+00 0. -1.
         11    1    1    2    0    0  0.53882739490E+02 -0.33305739800E+02 -0.14452861687E+03  0.15780096011E+03  0.00000000000E+00 0.  1.
</event>
<event>
 7    1  0.5109948E-006  0.1169536E+03  0.7561462E-02  0.1248209E+00
          1   -1    0    0  501    0  0.00000000000E+00  0.00000000000E+00  0.12893759787E+03  0.12893759787E+03  0.00000000000E+00 0. -1.
         -1   -1    0    0    0  501 -0.00000000000E+00 -0.00000000000E+00 -0.20064697036E+03  0.20064697036E+03  0.00000000000E+00 0.  1.
         23    2    1    2    0    0  0.63688939113E+02 -0.53414399791E+02 -0.12462130794E+03  0.19515762422E+03  0.12508656534E+03 0.  0.
          5    1    3    3  502    0  0.98488631174E+02 -0.19326051076E+02 -0.73903715908E+02  0.12471061842E+03  0.41800000000E+01 0.  1.
         -5    1    3    3    0  502 -0.34799692062E+02 -0.34088348715E+02 -0.50717592030E+02  0.70447005806E+02  0.41800000000E+01 0.  1.
        -11    1    1    2    0    0 -0.35230803810E+02  0.19426882478E+02  0.74842175846E+02  0.84970374751E+02  0.00000000000E+00 0. -1.
         11    1    1    2    0    0 -0.28458135303E+02  0.33987517313E+02 -0.21930240400E+02  0.49456569250E+02  0.00000000000E+00 0.  1.
</event>
<event>
 7    1  0.5109948E-006  0.1495741E+03  0.7561462E-02  0.1200997E+00
         -1   -1    0    0    0  501 -0.00000000000E+00  0.00000000000E+00  0.74883993425E+03  0.74883993425E+03  0.00000000000E+00 0.  1.
          1   -1    0    0  501    0  0.00000000000E+00 -0.00000000000E+00 -0.39702441942E+02  0.39702441942E+02  0.00000000000E+00 0. -1.
         23    2    1    2    0    0  0.92326373794E+02  0.89441262115E+02  0.42978223756E+03  0.46570806342E+03  0.12508928790E+03 0.  0.
          5    1    3    3  502    0  0.11804023236E+03  0.80932404961E+02  0.40176244996E+03  0.42651387929E+03  0.41800000000E+01 0.  1.
         -5    1    3    3    0  502 -0.25713858569E+02  0.85088571547E+01  0.28019787594E+02  0.39194184127E+02  0.41800000000E+01 0.  1.
        -11    1    1    2    0    0 -0.97744813003E+01 -0.86327626459E+01 -0.64624060338E+01  0.14554304083E+02  0.00000000000E+00 0. -1.
         11    1    1    2    0    0 -0.82551892494E+02 -0.80808499469E+02  0.28581766078E+03  0.30828000868E+03  0.00000000000E+00 0.  1.
</event>
<event>
 7    1  0.5109948E-006  0.8332079E+02  0.7561462E-02  0.1319883E+00
         -1   -1    0    0    0  501 -0.00000000000E+00  0.00000000000E+00  0.54716435436E+03  0.54716435436E+03  0.00000000000E+00 0.  1.
          1   -1    0    0  501    0  0.00000000000E+00 -0.00000000000E+00 -0.28998197173E+02  0.28998197173E+02  0.00000000000E+00 0. -1.
         23    2    1    2    0    0  0.49977099443E+02 -0.29832193950E+02  0.37647095343E+03  0.40099116969E+03  0.12520331117E+03 0.  0.
          5    1    3    3  502    0  0.21196393614E+02  0.31670744792E+02  0.32211161671E+02  0.50073491132E+02  0.41800000000E+01 0.  1.
         -5    1    3    3    0  502  0.28780705829E+02 -0.61502938742E+02  0.34425979176E+03  0.35091767855E+03  0.41800000000E+01 0.  1.
        -11    1    1    2    0    0 -0.19666158783E+02  0.20840828944E+02  0.14064834105E+03  0.14353763894E+03  0.00000000000E+00 0.  1.
         11    1    1    2    0    0 -0.30310940660E+02  0.89913650068E+01  0.10468627040E+01  0.31633742900E+02  0.00000000000E+00 0. -1.
</event>
<event>
 7    1  0.5109948E-006  0.1059960E+03  0.7561462E-02  0.1268170E+00
          2   -1    0    0  501    0  0.00000000000E+00  0.00000000000E+00  0.28229486125E+03  0.28229486125E+03  0.00000000000E+00 0. -1.
         -2   -1    0    0    0  501 -0.00000000000E+00 -0.00000000000E+00 -0.61031483636E+02  0.61031483636E+02  0.00000000000E+00 0.  1.
         23    2    1    2    0    0  0.15231998769E+02  0.61906139983E+02  0.62019287873E+02  0.15348790208E+03  0.12509100712E+03 0.  0.
          5    1    3    3  502    0  0.18333869363E+02  0.86107602682E+02  0.82978536712E+02  0.12105188954E+03  0.41800000000E+01 0. -1.
         -5    1    3    3    0  502 -0.31018705942E+01 -0.24201462699E+02 -0.20959248838E+02  0.32436012545E+02  0.41800000000E+01 0. -1.
        -11    1    1    2    0    0  0.30913308722E+02 -0.20428257009E+02  0.35034111725E+02  0.50993483162E+02  0.00000000000E+00 0. -1.
         11    1    1    2    0    0 -0.46145307491E+02 -0.41477882974E+02  0.12420997802E+03  0.13884495965E+03  0.00000000000E+00 0.  1.
</event>
<event>
 7    1  0.5109948E-006  0.1238986E+03  0.7561462E-02  0.1236801E+00
         -2   -1    0    0    0  501 -0.00000000000E+00  0.00000000000E+00  0.30763130327E+02  0.30763130327E+02  0.00000000000E+00 0. -1.
          2   -1    0    0  501    0  0.00000000000E+00 -0.00000000000E+00 -0.62698743027E+03  0.62698743027E+03  0.00000000000E+00 0.  1.
         23    2    1    2    0    0 -0.39722410693E+02 -0.68890857192E+02 -0.24753391767E+03  0.28852558657E+03  0.12510057391E+03 0.  0.
          5    1    3    3  502    0 -0.72555514493E+02 -0.73399550288E+01 -0.88070845553E+02  0.11442081917E+03  0.41800000000E+01 0.  1.
         -5    1    3    3    0  502  0.32833103800E+02 -0.61550902163E+02 -0.15946307212E+03  0.17410476740E+03  0.41800000000E+01 0.  1.
        -11    1    1    2    0    0 -0.26985492788E+01  0.61797167997E+02 -0.28964072148E+03  0.29617211159E+03  0.00000000000E+00 0.  1.
         11    1    1    2    0    0  0.42420959972E+02  0.70936891950E+01 -0.59049660790E+02  0.73052862441E+02  0.00000000000E+00 0. -1.
</event>
<event>
 7    1  0.5109948E-006  0.1611993E+03  0.7561462E-02  0.1187349E+00
         -2   -1    0    0    0  501 -0.00000000000E+00  0.00000000000E+00  0.86789104311E+02  0.86789104311E+02  0.00000000000E+00 0.  1.
          2   -1    0    0  501    0  0.00000000000E+00 -0.00000000000E+00 -0.39608842102E+03  0.39608842102E+03  0.00000000000E+00 0. -1.
         23    2    1    2    0    0 -0.11663883857E+03 -0.71894325616E+02 -0.84892051221E+02  0.20402785924E+03  0.12508914528E+03 0.  0.
          5    1    3    3  502    0  0.15097528195E+02 -0.29605104529E+02  0.11430563568E+02  0.35391068863E+02  0.41800000000E+01 0. -1.
         -5    1    3    3    0  502 -0.13173636676E+03 -0.42289221088E+02 -0.96322614789E+02  0.16863679037E+03  0.41800000000E+01 0. -1.
        -11    1    1    2    0    0  0.50262860664E+02  0.67232812754E+02 -0.18068011884E+03  0.19922829021E+03  0.00000000000E+00 0. -1.
         11    1    1    2    0    0  0.66375977903E+02  0.46615128620E+01 -0.43727146646E+02  0.79621375890E+02  0.00000000000E+00 0.  1.
</event>
<event>
 7    1  0.5109948E-006  0.5693905E+02  0.7561462E-02  0.1411145E+00
         -1   -1    0    0    0  501 -0.00000000000E+00  0.00000000000E+00  0.34517658169E+03  0.34517658169E+03  0.00000000000E+00 0.  1.
          1   -1    0    0  501    0  0.00000000000E+00 -0.00000000000E+00 -0.41708246159E+02  0.41708246159E+02  0.00000000000E+00 0. -1.
         23    2    1    2    0    0  0.79148017457E+00  0.43198397826E+02  0.23470558944E+03  0.26944940332E+03  0.12509811837E+03 0.  0.
          5    1    3    3  502    0 -0.19299775939E+02  0.39599026625E+02  0.12104537811E+02  0.45875445465E+02  0.41800000000E+01 0.  1.
         -5    1    3    3    0  502  0.20091256113E+02  0.35993712006E+01  0.22260105163E+03  0.22357395785E+03  0.41800000000E+01 0.  1.
        -11    1    1    2    0    0  0.10766484679E+02 -0.25201753676E+02 -0.14822602680E+02  0.31156943542E+02  0.00000000000E+00 0. -1.
         11    1    1    2    0    0 -0.11557964853E+02 -0.17996644150E+02  0.83585348772E+02  0.86278480988E+02  0.00000000000E+00 0.  1.
</event>
<event>
 6    1  0.5109948E-006  0.9475603E+02  0.7561462E-02  0.1291727E+00
          1   -1    0    0  501    0  0.00000000000E+00  0.00000000000E+00  0.12762658934E+03  0.12762658934E+03  0.00000000000E+00 0. -1.
         -1   -1    0    0    0  501 -0.00000000000E+00 -0.00000000000E+00 -0.41930293374E+03  0.41930293374E+03  0.00000000000E+00 0.  1.
          5    1    1    2  502    0 -0.69892075889E+02  0.17018505545E+01 -0.12895478934E+03  0.14674675009E+03  0.41800000000E+01 0. -1.
         -5    1    1    2    0  502  0.87349270154E+02 -0.93299031377E+01 -0.25420312422E+03  0.26898632465E+03  0.41800000000E+01 0.  1.
        -11    1    1    2    0    0 -0.99268013288E+01  0.16890493824E+02  0.10858549020E+03  0.11033874591E+03  0.00000000000E+00 0. -1.
         11    1    1    2    0    0 -0.75303929363E+01 -0.92624412406E+01 -0.17103921039E+02  0.20857702424E+02  0.00000000000E+00 0.  1.
</event>
<event>
 7    1  0.5109948E-006  0.1162993E+03  0.7561462E-02  0.1249330E+00
          2   -1    0    0  501    0  0.00000000000E+00  0.00000000000E+00  0.47117415359E+03  0.47117415359E+03  0.00000000000E+00 0.  1.
         -2   -1    0    0    0  501 -0.00000000000E+00 -0.00000000000E+00 -0.37793944776E+02  0.37793944776E+02  0.00000000000E+00 0. -1.
         23    2    1    2    0    0 -0.44452270711E+02 -0.49524148218E+02  0.16663644954E+03  0.21873331071E+03  0.12509160352E+03 0.  0.
          5    1    3    3  502    0 -0.42978537282E+02 -0.78597837380E+02  0.59471805002E+02  0.10760642499E+03  0.41800000000E+01 0. -1.
         -5    1    3    3    0  502 -0.14737334286E+01  0.29073689163E+02  0.10716464454E+03  0.11112688572E+03  0.41800000000E+01 0. -1.
        -11    1    1    2    0    0  0.99462345678E+01 -0.27428167598E+02  0.85242405417E+02  0.90097167775E+02  0.00000000000E+00 0. -1.
         11    1    1    2    0    0  0.34506036143E+02  0.76952315815E+02  0.18150135386E+03  0.20013761988E+03  0.00000000000E+00 0.  1.
</event>
<event>
 7    1  0.5109948E-006  0.1119873E+03  0.7561462E-02  0.1256933E+00
          2   -1    0    0  501    0  0.00000000000E+00  0.00000000000E+00  0.54556997239E+02  0.54556997239E+02  0.00000000000E+00 0. -1.
         -2   -1    0    0    0  501 -0.00000000000E+00 -0.00000000000E+00 -0.27071588856E+03  0.27071588856E+03  0.00000000000E+00 0.  1.
         23    2    1    2    0    0 -0.32984112729E+01  0.32142330915E+02 -0.17970335955E+03  0.22132520924E+03  0.12509013493E+03 0.  0.
          5    1    3    3  502    0 -0.33855608600E+02  0.71465426086E+02 -0.10780107365E+03  0.13376117987E+03  0.41800000000E+01 0. -1.
         -5    1    3    3    0  502  0.30557197327E+02 -0.39323095171E+02 -0.71902285897E+02  0.87564029370E+02  0.41800000000E+01 0. -1.
        -11    1    1    2    0    0 -0.28361164987E+01 -0.63143746377E+02 -0.35137889613E+02  0.72317684903E+02  0.00000000000E+00 0.  1.
         11    1    1    2    0    0  0.61345277716E+01  0.31001415462E+02 -0.13176421636E+01  0.31629991661E+02  0.00000000000E+00 0. -1.
</event>
<event>
 7    1  0.5109948E-006  0.9787600E+02  0.7561462E-02  0.1284827E+00
          1   -1    0    0  501    0  0.00000000000E+00  0.00000000000E+00  0.24746575739E+03  0.24746575739E+03  0.00000000000E+00 0. -1.
         -1   -1    0    0    0  501 -0.00000000000E+00 -0.00000000000E+00 -0.61440657192E+02  0.61440657192E+02  0.00000000000E+00 0.  1.
         23    2    1    2    0    0  0.21097414724E+02 -0.52236546086E+02  0.11568078886E+03  0.17945145039E+03  0.12508805090E+03 0.  0.
          5    1    3    3  502    0  0.69177468682E+01  0.34073716340E+02  0.75253652055E+02  0.83002758476E+02  0.41800000000E+01 0. -1.
         -5    1    3    3    0  502  0.14179667855E+02 -0.86310262425E+02  0.40427136809E+02  0.96448691909E+02  0.41800000000E+01 0. -1.
        -11    1    1    2    0    0  0.14561138656E+02  0.22164040228E+02  0.77818923161E+02  0.82213479674E+02  0.00000000000E+00 0. -1.
         11    1    1    2    0    0 -0.35658553379E+02  0.30072505858E+02 -0.74746118300E+01  0.47241484520E+02  0.00000000000E+00 0.  1.
</event>
<event>
 7    1  0.5109948E-006  0.2110380E+03  0.7561462E-02  0.1140747E+00
          1   -1    0    0  501    0  0.00000000000E+00  0.00000000000E+00  0.17427525858E+03  0.17427525858E+03  0.00000000000E+00 0. -1.
         -1   -1    0    0    0  501 -0.00000000000E+00 -0.00000000000E+00 -0.32064723365E+03  0.32064723365E+03  0.00000000000E+00 0.  1.
         23    2    1    2    0    0 -0.18342481915E+03 -0.56360544712E+02 -0.16479669182E+03  0.28218567970E+03  0.12509849285E+03 0.  0.
          5    1    3    3  502    0 -0.19606940335E+03 -0.69035612063E+02 -0.16203489918E+03  0.26359421013E+03  0.41800000000E+01 0.  1.
         -5    1    3    3    0  502  0.12644584207E+02  0.12675067351E+02 -0.27617926441E+01  0.18591469569E+02  0.41800000000E+01 0.  1.
        -11    1    1    2    0    0  0.10003741306E+03  0.10427403006E+02  0.50149487536E+02  0.11238854855E+03  0.00000000000E+00 0. -1.
         11    1    1    2    0    0  0.83387406082E+02  0.45933141706E+02 -0.31724770783E+02  0.10034826397E+03  0.00000000000E+00 0.  1.
</event>
<event>
 7    1  0.5109948E-006  0.7749247E+02  0.7561462E-02  0.1336322E+00
          2   -1    0    0  501    0  0.00000000000E+00  0.00000000000E+00  0.11749688491E+03  0.11749688491E+03  0.00000000000E+00 0. -1.
         -2   -1    0    0    0  501 -0.00000000000E+00 -0.00000000000E+00 -0.92691378549E+02  0.92691378549E+02  0.00000000000E+00 0.  1.
         23    2    1    2    0    0 -0.15822826262E+02 -0.19805428421E+02  0.89355603716E+01  0.11333899702E+03  0.11010570912E+03 0.  0.
          5    1    3    3  502    0 -0.32712179815E+02  0.31445441210E+01  0.51925981297E+02  0.61593463936E+02  0.41800000000E+01 0. -1.
         -5    1    3    3    0  502  0.16889353553E+02 -0.22949972542E+02 -0.42990420926E+02  0.51745533087E+02  0.41800000000E+01 0.  1.
        -11    1    1    2    0    0  0.10776288446E+02  0.55739052258E+02 -0.11203963238E+01  0.56782265076E+02  0.00000000000E+00 0. -1.
         11    1    1    2    0    0  0.50465378152E+01 -0.35933623837E+02  0.16990342313E+02  0.40067001359E+02  0.00000000000E+00 0.  1.
</event>
<event>
 7    1  0.5109948E-006  0.1131541E+03  0.7561462E-02  0.1254838E+00
          2   -1    0    0  501    0  0.00000000000E+00  0.00000000000E+00  0.59034256544E+03  0.59034256544E+03  0.00000000000E+00 0. -1.
         -2   -1    0    0    0  501 -0.00000000000E+00 -0.00000000000E+00 -0.22556775909E+02  0.22556775909E+02  0.00000000000E+00 0.  1.
         23    2    1    2    0    0 -0.55401904012E+02 -0.29821774336E+01  0.27923966460E+03  0.30546173848E+03  0.11069696942E+03 0.  0.
          5    1    3    3  502    0 -0.80845592659E+02  0.25967955226E+02  0.19526889416E+03  0.21297360864E+03  0.41800000000E+01 0. -1.
         -5    1    3    3    0  502  0.25443688647E+02 -0.28950132659E+02  0.83970770437E+02  0.92488129837E+02  0.41800000000E+01 0.  1.
        -11    1    1    2    0    0  0.77520786183E+02 -0.78083963491E+01  0.24855590669E+03  0.26048125094E+03  0.00000000000E+00 0.  1.
         11    1    1    2    0    0 -0.22118882171E+02  0.10790573783E+02  0.39990218246E+02  0.46956351928E+02  0.00000000000E+00 0. -1.
</event>
<event>
 7    1  0.5109948E-006  0.1032149E+03  0.7561462E-02  0.1273677E+00
         -1   -1    0    0    0  501 -0.00000000000E+00  0.00000000000E+00  0.44782108306E+03  0.44782108306E+03  0.00000000000E+00 0.  1.
          1   -1    0    0  501    0  0.00000000000E+00 -0.00000000000E+00 -0.42524668894E+02  0.42524668894E+02  0.00000000000E+00 0. -1.
         23    2    1    2    0    0  0.52080056869E+02 -0.24632075755E+01  0.33964247853E+03  0.36568396635E+03  0.12509736330E+03 0.  0.
          5    1    3    3  502    0  0.30120259328E+02 -0.58777130693E+02  0.24099180723E+03  0.24991299420E+03  0.41800000000E+01 0.  1.
         -5    1    3    3    0  502  0.21959797541E+02  0.56313923118E+02  0.98650671299E+02  0.11577097215E+03  0.41800000000E+01 0.  1.
        -11    1    1    2    0    0 -0.15905579055E+02 -0.28111443023E+02 -0.11368322744E+02  0.34241487058E+02  0.00000000000E+00 0. -1.
         11    1    1    2    0    0 -0.36174477814E+02  0.30574650598E+02  0.77022258379E+02  0.90420298551E+02  0.00000000000E+00 0.  1.
</event>
<event>
 7    1  0.5109948E-006  0.1187356E+03  0.7561462E-02  0.1245198E+00
          3   -1    0    0  501    0  0.00000000000E+00  0.00000000000E+00  0.10779804342E+03  0.10779804342E+03  0.00000000000E+00 0. -1.
         -3   -1    0    0    0  501 -0.00000000000E+00 -0.00000000000E+00 -0.20749888919E+03  0.20749888919E+03  0.00000000000E+00 0.  1.
         23    2    1    2    0    0  0.93930951867E+02 -0.11069996372E+02 -0.12262535386E+02  0.15730092189E+03  0.12509053407E+03 0.  0.
          5    1    3    3  502    0  0.77530183471E+02 -0.54752641409E+02  0.24079193592E+02  0.98010515019E+02  0.41800000000E+01 0. -1.
         -5    1    3    3    0  502  0.16400768396E+02  0.43682645037E+02 -0.36341728978E+02  0.59290406868E+02  0.41800000000E+01 0. -1.
        -11    1    1    2    0    0 -0.33434539898E+02 -0.28001942373E+01 -0.89822395497E+02  0.95884160730E+02  0.00000000000E+00 0.  1.
         11    1    1    2    0    0 -0.60496411969E+02  0.13870190610E+02  0.23840851130E+01  0.62111850001E+02  0.00000000000E+00 0. -1.
</event>
<event>
 7    1  0.5109948E-006  0.1110608E+03  0.7561462E-02  0.1258618E+00
          2   -1    0    0  501    0  0.00000000000E+00  0.00000000000E+00  0.16160741612E+03  0.16160741612E+03  0.00000000000E+00 0. -1.
         -2   -1    0    0    0  501 -0.00000000000E+00 -0.00000000000E+00 -0.10901049460E+03  0.10901049460E+03  0.00000000000E+00 0.  1.
         23    2    1    2    0    0 -0.36946725186E+02  0.67374470183E+02  0.13119787092E+02  0.14738916968E+03  0.12508820404E+03 0.  0.
          5    1    3    3  502    0 -0.13800859223E+02 -0.14365902420E+02 -0.41556994991E+02  0.46274173146E+02  0.41800000000E+01 0. -1.
         -5    1    3    3    0  502 -0.23145865963E+02  0.81740372603E+02  0.54676782083E+02  0.10111499653E+03  0.41800000000E+01 0. -1.
        -11    1    1    2    0    0 -0.24725718571E+02  0.85222968977E+00  0.94031844582E+01  0.26467099052E+02  0.00000000000E+00 0. -1.
         11    1    1    2    0    0  0.61672443757E+02 -0.68226699873E+02  0.30073949961E+02  0.96761641990E+02  0.00000000000E+00 0.  1.
</event>
<event>
 7    1  0.5109948E-006  0.1575255E+03  0.7561462E-02  0.1191519E+00
          2   -1    0    0  501    0  0.00000000000E+00  0.00000000000E+00  0.45614036416E+03  0.45614036416E+03  0.00000000000E+00 0. -1.
         -2   -1    0    0    0  501 -0.00000000000E+00 -0.00000000000E+00 -0.65054231830E+02  0.65054231830E+02  0.00000000000E+00 0.  1.
         23    2    1    2    0    0  0.11747128353E+03  0.61780512342E+02  0.22043039054E+03  0.28610049224E+03  0.12509036903E+03 0.  0.
          5    1    3    3  502    0  0.49191193475E+02 -0.37328388338E+02  0.78517484146E+02  0.99978246674E+02  0.41800000000E+01 0. -1.
         -5    1    3    3    0  502  0.68280090054E+02  0.99108900680E+02  0.14191290640E+03  0.18612224556E+03  0.41800000000E+01 0. -1.
        -11    1    1    2    0    0 -0.95610287184E+02 -0.49675862810E+02  0.63503777374E+02  0.12506697447E+03  0.00000000000E+00 0.  1.
         11    1    1    2    0    0 -0.21860996344E+02 -0.12104649532E+02  0.10715196441E+03  0.11002712929E+03  0.00000000000E+00 0. -1.
</event>
<event>
 6    1  0.5109948E-006  0.1082474E+03  0.7561462E-02  0.1263850E+00
          3   -1    0    0  501    0  0.00000000000E+00  0.00000000000E+00  0.65550918836E+02  0.65550918836E+02  0.00000000000E+00 0. -1.
         -3   -1    0    0    0  501 -0.00000000000E+00 -0.00000000000E+00 -0.30081381416E+03  0.30081381416E+03  0.00000000000E+00 0.  1.
          5    1    1    2  502    0 -0.21012808172E+02 -0.36722928902E+02  0.26600979508E+01  0.42598827866E+02  0.41800000000E+01 0. -1.
         -5    1    1    2    0  502 -0.44716655209E+02  0.56028641473E+02 -0.18380196070E+03  0.19733074032E+03  0.41800000000E+01 0.  1.
        -11    1    1    2    0    0  0.47348237978E+00 -0.35042209840E+02  0.69001192913E+01  0.35718234871E+02  0.00000000000E+00 0. -1.
         11    1    1    2    0    0  0.65255981001E+02  0.15736497270E+02 -0.61021151873E+02  0.90716929945E+02  0.00000000000E+00 0.  1.
</event>
<event>
 7    1  0.5109948E-006  0.1234538E+03  0.7561462E-02  0.1237506E+00
         -1   -1    0    0    0  501 -0.00000000000E+00  0.00000000000E+00  0.42122158060E+02  0.42122158060E+02  0.00000000000E+00 0.  1.
          1   -1    0    0  501    0  0.00000000000E+00 -0.00000000000E+00 -0.42440024174E+03  0.42440024174E+03  0.00000000000E+00 0. -1.
         23    2    1    2    0    0 -0.10091507804E+02 -0.70158951984E+02 -0.16698966952E+03  0.22035820093E+03  0.12509224563E+03 0.  0.
          5    1    3    3  502    0  0.48056163057E+02 -0.61282948264E+02 -0.12724955488E+03  0.14924783473E+03  0.41800000000E+01 0.  1.
         -5    1    3    3    0  502 -0.58147670861E+02 -0.88760037191E+01 -0.39740114637E+02  0.71110366192E+02  0.41800000000E+01 0.  1.
        -11    1    1    2    0    0  0.28929607654E+02 -0.76231666525E+01 -0.10950275553E+03  0.11351602679E+03  0.00000000000E+00 0. -1.
         11    1    1    2    0    0 -0.18838099850E+02  0.77782118636E+02 -0.10578565863E+03  0.13264817209E+03  0.00000000000E+00 0.  1.
</event>
<event>
 7    1  0.5109948E-006  0.1161643E+03  0.7561462E-02  0.1249562E+00
          3   -1    0    0  501    0  0.00000000000E+00  0.00000000000E+00  0.16194853083E+03  0.16194853083E+03  0.00000000000E+00 0. -1.
         -3   -1    0    0    0  501 -0.00000000000E+00 -0.00000000000E+00 -0.13536012879E+03  0.13536012879E+03  0.00000000000E+00 0.  1.
         23    2    1    2    0    0 -0.68108516798E+02 -0.36108142636E+02 -0.49766300834E+02  0.15513755976E+03  0.12509360385E+03 0.  0.
          5    1    3    3  502    0 -0.58281213117E+02 -0.64789298367E+02 -0.75325331977E+02  0.11526374548E+03  0.41800000000E+01 0. -1.
         -5    1    3    3    0  502 -0.98273036809E+01  0.28681155731E+02  0.25559031144E+02  0.39873814273E+02  0.41800000000E+01 0. -1.
        -11    1    1    2    0    0  0.78347821424E+02  0.14737061683E+01  0.31187756823E+02  0.84339961509E+02  0.00000000000E+00 0.  1.
         11    1    1    2    0    0 -0.10239304626E+02  0.34634436468E+02  0.45166946045E+02  0.57831138357E+02  0.00000000000E+00 0. -1.
</event>
<event>
 7    1  0.5109948E-006  0.8414778E+02  0.7561462E-02  0.1317676E+00
         -2   -1    0    0    0  501 -0.00000000000E+00  0.00000000000E+00  0.47091588058E+03  0.47091588058E+03  0.00000000000E+00 0.  1.
          2   -1    0    0  501    0  0.00000000000E+00 -0.00000000000E+00 -0.59562272145E+02  0.59562272145E+02  0.00000000000E+00 0. -1.
         23    2    1    2    0    0  0.16843151580E+01  0.56851548328E+02  0.40019449111E+03  0.42253407807E+03  0.12306291459E+03 0.  0.
          5    1    3    3  502    0 -0.79500954916E+01  0.41203246229E+02  0.29745422142E+02  0.51605949817E+02  0.41800000000E+01 0. -1.
         -5    1    3    3    0  502  0.96344106496E+01  0.15648302099E+02  0.37044906897E+03  0.37092812825E+03  0.41800000000E+01 0.  1.
        -11    1    1    2    0    0  0.34985110471E+02 -0.61056238312E+02  0.93790789093E+01  0.70991473521E+02  0.00000000000E+00 0.  1.
         11    1    1    2    0    0 -0.36669425629E+02  0.42046899841E+01  0.17800384116E+01  0.36952601134E+02  0.00000000000E+00 0. -1.
</event>
<event>
 7    1  0.5109948E-006  0.2521592E+03  0.7561462E-02  0.1111948E+00
          2   -1    0    0  501    0  0.00000000000E+00  0.00000000000E+00  0.89302621478E+03  0.89302621478E+03  0.00000000000E+00 0.  1.
         -2   -1    0    0    0  501 -0.00000000000E+00 -0.00000000000E+00 -0.74125606056E+02  0.74125606056E+02  0.00000000000E+00 0. -1.
         23    2    1    2    0    0 -0.18040538011E+03 -0.13754170272E+03  0.32699845580E+03  0.41716983553E+03  0.12505542938E+03 0.  0.
          5    1    3    3  502    0 -0.32218860727E+02  0.23063754792E+02  0.40418153742E+02  0.56754659047E+02  0.41800000000E+01 0.  1.
         -5    1    3    3    0  502 -0.14818651938E+03 -0.16060545752E+03  0.28658030206E+03  0.36041517648E+03  0.41800000000E+01 0.  1.
        -11    1    1    2    0    0  0.10844849799E+03  0.23343817191E+02  0.22901596956E+03  0.25446871090E+03  0.00000000000E+00 0.  1.
         11    1    1    2    0    0  0.71956882122E+02  0.11419788553E+03  0.26288618336E+03  0.29551327440E+03  0.00000000000E+00 0. -1.
</event>
<event>
 7    1  0.5109948E-006  0.1108751E+03  0.7561462E-02  0.1258958E+00
         -1   -1    0    0    0  501 -0.00000000000E+00  0.00000000000E+00  0.23981246668E+02  0.23981246668E+02  0.00000000000E+00 0.  1.
          1   -1    0    0  501    0  0.00000000000E+00 -0.00000000000E+00 -0.70854135627E+03  0.70854135627E+03  0.00000000000E+00 0. -1.
         23    2    1    2    0    0 -0.60073820980E+02  0.32012932433E+02 -0.30434987583E+03  0.33602165910E+03  0.12509203274E+03 0.  0.
          5    1    3    3  502    0 -0.48420674411E+02  0.79544139721E+02 -0.20463702030E+03  0.22486799317E+03  0.41800000000E+01 0. -1.
         -5    1    3    3    0  502 -0.11653146569E+02 -0.47531207288E+02 -0.99712855532E+02  0.11115366593E+03  0.41800000000E+01 0. -1.
        -11    1    1    2    0    0  0.54165852809E+02 -0.41502877705E+02 -0.37918411689E+03  0.38527525611E+03  0.00000000000E+00 0. -1.
         11    1    1    2    0    0  0.59079681718E+01  0.94899452717E+01 -0.10261168797E+01  0.11225687731E+02  0.00000000000E+00 0.  1.
</event>
<event>
 7    1  0.5109948E-006  0.1290674E+03  0.7561462E-02  0.1228846E+00
          1   -1    0    0  501    0  0.00000000000E+00  0.00000000000E+00  0.68557821096E+03  0.68557821096E+03  0.00000000000E+00 0. -1.
         -1   -1    0    0    0  501 -0.00000000000E+00 -0.00000000000E+00 -0.46089762008E+02  0.46089762008E+02  0.00000000000E+00 0.  1.
         23    2    1    2    0    0 -0.14393920800E+02 -0.10423576383E+03  0.14715233784E+03  0.21993254748E+03  0.12507691830E+03 0.  0.
          5    1    3    3  502    0  0.20801435251E+02 -0.65603728374E+02  0.58259185363E+01  0.69195105404E+02  0.41800000000E+01 0.  1.
         -5    1    3    3    0  502 -0.35195356050E+02 -0.38632035460E+02  0.14132641930E+03  0.15073744208E+03  0.41800000000E+01 0.  1.
        -11    1    1    2    0    0  0.45441955756E+02  0.25468348673E+02  0.14022414638E+03  0.14958749732E+03  0.00000000000E+00 0.  1.
         11    1    1    2    0    0 -0.31048034956E+02  0.78767415160E+02  0.35211196474E+03  0.36214792817E+03  0.00000000000E+00 0. -1.
</event>
<event>
 7    1  0.5109948E-006  0.8561692E+02  0.7561462E-02  0.1313827E+00
          3   -1    0    0  501    0  0.00000000000E+00  0.00000000000E+00  0.38592620858E+02  0.38592620858E+02  0.00000000000E+00 0. -1.
         -3   -1    0    0    0  501 -0.00000000000E+00 -0.00000000000E+00 -0.32302397652E+03  0.32302397652E+03  0.00000000000E+00 0.  1.
         23    2    1    2    0    0 -0.18374282390E+02  0.13895806137E+02 -0.17233888590E+03  0.21421855352E+03  0.12513268717E+03 0.  0.
          5    1    3    3  502    0 -0.19506034991E+02 -0.33641263404E+02 -0.40843447677E+01  0.39323965679E+02  0.41800000000E+01 0. -1.
         -5    1    3    3    0  502  0.11317526012E+01  0.47537069542E+02 -0.16825454114E+03  0.17489458785E+03  0.41800000000E+01 0. -1.
        -11    1    1    2    0    0 -0.28293707415E+02 -0.23455259073E+02 -0.84978297372E+02  0.92585064031E+02  0.00000000000E+00 0.  1.
         11    1    1    2    0    0  0.46667989805E+02  0.95594529356E+01 -0.27114172386E+02  0.54812979823E+02  0.00000000000E+00 0. -1.
</event>
<event>
 7    1  0.5109948E-006  0.1104285E+03  0.7561462E-02  0.1259778E+00
         -2   -1    0    0    0  501 -0.00000000000E+00  0.00000000000E+00  0.86894649685E+02  0.86894649685E+02  0.00000000000E+00 0. -1.
          2   -1    0    0  501    0  0.00000000000E+00 -0.00000000000E+00 -0.30394446037E+03  0.30394446037E+03  0.00000000000E+00 0.  1.
         23    2    1    2    0    0  0.87254232415E+02  0.28008321371E+02 -0.22056536544E+02  0.15662756401E+03  0.12509170982E+03 0.  0.
          5    1    3    3  502    0  0.56100819085E+02  0.15841626161E+02  0.50105313973E+02  0.76982296080E+02  0.41800000000E+01 0.  1.
         -5    1    3    3    0  502  0.31153413330E+02  0.12166695210E+02 -0.72161850516E+02  0.79645267935E+02  0.41800000000E+01 0.  1.
        -11    1    1    2    0    0 -0.10449954908E+03 -0.12015551058E+02 -0.16984010827E+03  0.19977535284E+03  0.00000000000E+00 0. -1.
         11    1    1    2    0    0  0.17245316661E+02 -0.15992770313E+02 -0.25153165876E+02  0.34436193207E+02  0.00000000000E+00 0.  1.
</event>
<event>
 7    1  0.5109948E-006  0.1048394E+03  0.7561462E-02  0.1270436E+00
          2   -1    0    0  501    0  0.00000000000E+00  0.00000000000E+00  0.44140920746E+03  0.44140920746E+03  0.00000000000E+00 0. -1.
         -2   -1    0    0    0  501 -0.00000000000E+00 -0.00000000000E+00 -0.32479130319E+02  0.32479130319E+02  0.00000000000E+00 0.  1.
         23    2    1    2    0    0  0.41998419171E+02  0.23903285615E+02  0.19217879878E+03  0.23433994170E+03  0.12508910144E+03 0.  0.
          5    1    3    3  502    0 -0.25092506787E+02 -0.15572544384E+02  0.13343879679E+03  0.13673157252E+03  0.41800000000E+01 0. -1.
         -5    1    3    3    0  502  0.67090925958E+02  0.39475830000E+02  0.58740001986E+02  0.97608369177E+02  0.41800000000E+01 0. -1.
        -11    1    1    2    0    0 -0.70265365826E+02 -0.12263122029E+02  0.15636908208E+03  0.17186883262E+03  0.00000000000E+00 0.  1.
         11    1    1    2    0    0  0.28266946655E+02 -0.11640163586E+02  0.60382196285E+02  0.67679563457E+02  0.00000000000E+00 0. -1.
</event>
<event>
 7    1  0.5109948E-006  0.1903098E+03  0.7561462E-02  0.1158182E+00
         -1   -1    0    0    0  501 -0.00000000000E+00  0.00000000000E+00  0.61683045396E+02  0.61683045396E+02  0.00000000000E+00 0.  1.
          1   -1    0    0  501    0  0.00000000000E+00 -0.00000000000E+00 -0.10408673756E+04  0.10408673756E+04  0.00000000000E+00 0. -1.
         23    2    1    2    0    0  0.64008924179E+02 -0.16107478985E+03 -0.17717959282E+03  0.27763906530E+03  0.12509441302E+03 0.  0.
          5    1    3    3  502    0 -0.15873264739E+02 -0.10512841782E+02  0.12062883632E+02  0.22923043806E+02  0.41800000000E+01 0. -1.
         -5    1    3    3    0  502  0.79882188918E+02 -0.15056194807E+03 -0.18924247645E+03  0.25471602150E+03  0.41800000000E+01 0. -1.
        -11    1    1    2    0    0 -0.82346093432E+02  0.11873715390E+03 -0.54683813434E+03  0.56560705086E+03  0.00000000000E+00 0.  1.
         11    1    1    2    0    0  0.18337169254E+02  0.42337635948E+02 -0.25516660302E+03  0.25930430481E+03  0.00000000000E+00 0. -1.
</event>
<event>
 7    1  0.5109948E-006  0.1131184E+03  0.7561462E-02  0.1254902E+00
          3   -1    0    0  501    0  0.00000000000E+00  0.00000000000E+00  0.39889302835E+02  0.39889302835E+02  0.00000000000E+00 0. -1.
         -3   -1    0    0    0  501 -0.00000000000E+00 -0.00000000000E+00 -0.53869007753E+03  0.53869007753E+03  0.00000000000E+00 0.  1.
         23    2    1    2    0    0  0.19782650049E+02  0.48512834033E+02 -0.44063459738E+03  0.46103264019E+03  0.12508956230E+03 0.  0.
          5    1    3    3  502    0  0.35500649810E+02  0.82252339502E+02 -0.37390164198E+03  0.38450702694E+03  0.41800000000E+01 0.  1.
         -5    1    3    3    0  502 -0.15717999761E+02 -0.33739505469E+02 -0.66732955408E+02  0.76525613250E+02  0.41800000000E+01 0.  1.
        -11    1    1    2    0    0 -0.17778914606E+02  0.22152138053E+02 -0.44283224401E+01  0.28747470576E+02  0.00000000000E+00 0.  1.
         11    1    1    2    0    0 -0.20037354429E+01 -0.70664972086E+02 -0.53737854867E+02  0.88799269599E+02  0.00000000000E+00 0. -1.
</event>
<event>
 7    1  0.5109948E-006  0.1390961E+03  0.7561462E-02  0.1214550E+00
          4   -1    0    0  501    0  0.00000000000E+00  0.00000000000E+00  0.17624983216E+02  0.17624983216E+02  0.00000000000E+00 0. -1.
         -4   -1    0    0    0  501 -0.00000000000E+00 -0.00000000000E+00 -0.11332732427E+04  0.11332732427E+04  0.00000000000E+00 0.  1.
         23    2    1    2    0    0  0.26102838048E+02 -0.85234421973E+02 -0.66663736776E+03  0.68410549571E+03  0.12509470145E+03 0.  0.
          5    1    3    3  502    0  0.69639514500E+02 -0.16439915332E+02 -0.28708201136E+03  0.29589438393E+03  0.41800000000E+01 0. -1.
         -5    1    3    3    0  502 -0.43536676452E+02 -0.68794506641E+02 -0.37955535640E+03  0.38821111178E+03  0.41800000000E+01 0. -1.
        -11    1    1    2    0    0 -0.42349351358E+02  0.44368306112E+01 -0.20052512768E+03  0.20499629230E+03  0.00000000000E+00 0.  1.
         11    1    1    2    0    0  0.16246513310E+02  0.80797591362E+02 -0.24848576408E+03  0.26179643794E+03  0.00000000000E+00 0. -1.
</event>
<event>
 7    1  0.5109948E-006  0.1975179E+03  0.7561462E-02  0.1151850E+00
         -1   -1    0    0    0  501 -0.00000000000E+00  0.00000000000E+00  0.61157605941E+03  0.61157605941E+03  0.00000000000E+00 0.  1.
          1   -1    0    0  501    0  0.00000000000E+00 -0.00000000000E+00 -0.78278464287E+02  0.78278464287E+02  0.00000000000E+00 0. -1.
         23    2    1    2    0    0 -0.16342407606E+03 -0.33678741326E+02  0.42110373653E+03  0.46991214245E+03  0.12508948175E+03 0.  0.
          5    1    3    3  502    0 -0.61406689255E+01  0.35275362700E+02  0.88634554043E+02  0.95684981052E+02  0.41800000000E+01 0. -1.
         -5    1    3    3    0  502 -0.15728340713E+03 -0.68954104026E+02  0.33246918249E+03  0.37422716140E+03  0.41800000000E+01 0. -1.
        -11    1    1    2    0    0  0.35430473169E+02  0.46619668159E+02  0.50245739034E+02  0.77157930114E+02  0.00000000000E+00 0.  1.
         11    1    1    2    0    0  0.12799360289E+03 -0.12940926833E+02  0.61948119551E+02  0.14278445113E+03  0.00000000000E+00 0. -1.
</event>
<event>
 7    1  0.5109948E-006  0.1097689E+03  0.7561462E-02  0.1260998E+00
          1   -1    0    0  501    0  0.00000000000E+00  0.00000000000E+00  0.74203519586E+03  0.74203519586E+03  0.00000000000E+00 0. -1.
         -1   -1    0    0    0  501 -0.00000000000E+00 -0.00000000000E+00 -0.24759977132E+02  0.24759977132E+02  0.00000000000E+00 0.  1.
         23    2    1    2    0    0 -0.26614867349E+02 -0.72447123637E+02  0.31434609122E+03  0.34701353836E+03  0.12509194159E+03 0.  0.
          5    1    3    3  502    0 -0.10660702031E+02 -0.82897757414E+02  0.31649404189E+03  0.32737079849E+03  0.41800000000E+01 0.  1.
         -5    1    3    3    0  502 -0.15954165318E+02  0.10450633776E+02 -0.21479506716E+01  0.19642739865E+02  0.41800000000E+01 0.  1.
        -11    1    1    2    0    0  0.58800305721E+02  0.45419450348E+02  0.22475144626E+03  0.23671420536E+03  0.00000000000E+00 0.  1.
         11    1    1    2    0    0 -0.32185438372E+02  0.27027673289E+02  0.17817768126E+03  0.18306742928E+03  0.00000000000E+00 0. -1.
</event>
<event>
 7    1  0.5109948E-006  0.1552268E+03  0.7561462E-02  0.1194194E+00
          2   -1    0    0  501    0  0.00000000000E+00  0.00000000000E+00  0.92282633941E+02  0.92282633941E+02  0.00000000000E+00 0. -1.
         -2   -1    0    0    0  501 -0.00000000000E+00 -0.00000000000E+00 -0.30472051613E+03  0.30472051613E+03  0.00000000000E+00 0.  1.
         23    2    1    2    0    0  0.31129401666E+01 -0.11663575122E+03 -0.16712458092E+03  0.23915022228E+03  0.12509442198E+03 0.  0.
          5    1    3    3  502    0 -0.41195731425E+02 -0.11105587350E+03 -0.14991420698E+03  0.19110792025E+03  0.41800000000E+01 0. -1.
         -5    1    3    3    0  502  0.44308671591E+02 -0.55798777157E+01 -0.17210373937E+02  0.48042302032E+02  0.41800000000E+01 0. -1.
        -11    1    1    2    0    0 -0.46275218797E+02  0.55977417601E+02 -0.40718615396E+02  0.83263874494E+02  0.00000000000E+00 0.  1.
         11    1    1    2    0    0  0.43162278630E+02  0.60658333617E+02 -0.45946858790E+01  0.74589053299E+02  0.00000000000E+00 0. -1.
</event>
<event>
 7    1  0.5109948E-006  0.1492448E+03  0.7561462E-02  0.1201404E+00
         -4   -1    0    0    0  501 -0.00000000000E+00  0.00000000000E+00  0.77200398382E+02  0.77200398382E+02  0.00000000000E+00 0.  1.
          4   -1    0    0  501    0  0.00000000000E+00 -0.00000000000E+00 -0.36863806388E+03  0.36863806388E+03  0.00000000000E+00 0. -1.
         23    2    1    2    0    0 -0.85831708850E+02 -0.83712960684E+02 -0.92392756977E+02  0.19654729156E+03  0.12537732748E+03 0.  0.
          5    1    3    3  502    0 -0.24623818822E+02 -0.83892378797E+02 -0.10204383638E+03  0.13444210879E+03  0.41800000000E+01 0. -1.
         -5    1    3    3    0  502 -0.61207890029E+02  0.17941811307E+00  0.96510794022E+01  0.62105182765E+02  0.41800000000E+01 0. -1.
        -11    1    1    2    0    0 -0.18543093155E+02  0.20231200108E+02 -0.44669346264E+02  0.52426121898E+02  0.00000000000E+00 0.  1.
         11    1    1    2    0    0  0.10437480200E+03  0.63481760576E+02 -0.15437556226E+03  0.19686504880E+03  0.00000000000E+00 0. -1.
</event>
<event>
 7    1  0.5109948E-006  0.1015463E+03  0.7561462E-02  0.1277077E+00
          2   -1    0    0  501    0  0.00000000000E+00  0.00000000000E+00  0.74459640472E+02  0.74459640472E+02  0.00000000000E+00 0. -1.
         -2   -1    0    0    0  501 -0.00000000000E+00 -0.00000000000E+00 -0.18320548621E+03  0.18320548621E+03  0.00000000000E+00 0.  1.
         23    2    1    2    0    0 -0.75140403258E+01  0.35482968860E+02 -0.90640925790E+02  0.15867984130E+03  0.12509201704E+03 0.  0.
          5    1    3    3  502    0 -0.49347775286E+02  0.61428615917E+02 -0.42164088703E+02  0.89464856538E+02  0.41800000000E+01 0.  1.
         -5    1    3    3    0  502  0.41833734961E+02 -0.25945647057E+02 -0.48476837087E+02  0.69214984764E+02  0.41800000000E+01 0.  1.
        -11    1    1    2    0    0 -0.29145262534E+02 -0.14702028283E+02 -0.39892663744E+02  0.51546295545E+02  0.00000000000E+00 0.  1.
         11    1    1    2    0    0  0.36659302860E+02 -0.20780940577E+02  0.21787743791E+02  0.47438989839E+02  0.00000000000E+00 0. -1.
</event>
<event>
 7    1  0.5109948E-006  0.1051543E+03  0.7561462E-02  0.1269816E+00
         -1   -1    0    0    0  501 -0.00000000000E+00  0.00000000000E+00  0.78614451008E+02  0.78614451008E+02  0.00000000000E+00 0.  1.
          1   -1    0    0  501    0  0.00000000000E+00 -0.00000000000E+00 -0.19610188290E+03  0.19610188290E+03  0.00000000000E+00 0. -1.
         23    2    1    2    0    0 -0.58131385860E+02 -0.14075571254E+02 -0.55851067331E+02  0.14948035638E+03  0.12509058915E+03 0.  0.
          5    1    3    3  502    0  0.14315561752E+01  0.28528684232E+02  0.26507913966E+02  0.39192819239E+02  0.41800000000E+01 0.  1.
         -5    1    3    3    0  502 -0.59562942035E+02 -0.42604255486E+02 -0.82358981297E+02  0.11028753715E+03  0.41800000000E+01 0.  1.
        -11    1    1    2    0    0  0.16013184394E+02 -0.37927444535E+02 -0.15673218865E+02  0.44051820768E+02  0.00000000000E+00 0.  1.
         11    1    1    2    0    0  0.42118201466E+02  0.52003015790E+02 -0.45963145695E+02  0.81184156755E+02  0.00000000000E+00 0. -1.
</event>
<event>
 7    1  0.5109948E-006  0.1098215E+03  0.7561462E-02  0.1260901E+00
          3   -1    0    0  501    0  0.00000000000E+00  0.00000000000E+00  0.12189539380E+03  0.12189539380E+03  0.00000000000E+00 0. -1.
         -3   -1    0    0    0  501 -0.00000000000E+00 -0.00000000000E+00 -0.16635761760E+03  0.16635761760E+03  0.00000000000E+00 0.  1.
         23    2    1    2    0    0 -0.17436838887E+02 -0.34221791802E+02 -0.10902750295E+03  0.17030962476E+03  0.12507276883E+03 0.  0.
          5    1    3    3  502    0 -0.56390086375E+02 -0.56413932712E+02 -0.92819899378E+02  0.12245562366E+03  0.41800000000E+01 0. -1.
         -5    1    3    3    0  502  0.38953247488E+02  0.22192140910E+02 -0.16207603576E+02  0.47854001104E+02  0.41800000000E+01 0. -1.
        -11    1    1    2    0    0 -0.29269643718E+02  0.37906608163E+02  0.16077678148E+02  0.50518459205E+02  0.00000000000E+00 0.  1.
         11    1    1    2    0    0  0.46706482606E+02 -0.36848163613E+01  0.48487601006E+02  0.67424927440E+02  0.00000000000E+00 0. -1.
</event>
<event>
 7    1  0.5109948E-006  0.1788171E+03  0.7561462E-02  0.1168953E+00
          1   -1    0    0  501    0  0.00000000000E+00  0.00000000000E+00  0.15727931979E+03  0.15727931979E+03  0.00000000000E+00 0. -1.
         -1   -1    0    0    0  501 -0.00000000000E+00 -0.00000000000E+00 -0.30398034292E+03  0.30398034292E+03  0.00000000000E+00 0.  1.
         23    2    1    2    0    0 -0.82463284002E+02  0.14380903181E+03 -0.17272389803E+03  0.27011507792E+03  0.12508948609E+03 0.  0.
          5    1    3    3  502    0 -0.62914830240E+02  0.13377494687E+03 -0.67546103984E+02  0.16258524176E+03  0.41800000000E+01 0. -1.
         -5    1    3    3    0  502 -0.19548453762E+02  0.10034084946E+02 -0.10517779404E+03  0.10752983616E+03  0.41800000000E+01 0. -1.
        -11    1    1    2    0    0  0.30640058185E+02 -0.13025530437E+03  0.59562912612E+01  0.13394302852E+03  0.00000000000E+00 0. -1.
         11    1    1    2    0    0  0.51823225817E+02 -0.13553727442E+02  0.20066583638E+02  0.57201556277E+02  0.00000000000E+00 0.  1.
</event>
<event>
 7    1  0.5109948E-006  0.9945643E+02  0.7561462E-02  0.1281443E+00
          1   -1    0    0  501    0  0.00000000000E+00  0.00000000000E+00  0.32019790074E+02  0.32019790074E+02  0.00000000000E+00 0. -1.
         -1   -1    0    0    0  501 -0.00000000000E+00 -0.00000000000E+00 -0.43170828079E+03  0.43170828079E+03  0.00000000000E+00 0.  1.
         23    2    1    2    0    0  0.27735444741E+02 -0.39546792448E+02 -0.24227361322E+03  0.27690768382E+03  0.12509259772E+03 0.  0.
          5    1    3    3  502    0  0.62707732228E+02  0.14342047442E+02 -0.15958607366E+03  0.17211374527E+03  0.41800000000E+01 0.  1.
         -5    1    3    3    0  502 -0.34972287487E+02 -0.53888839889E+02 -0.82687539568E+02  0.10479393855E+03  0.41800000000E+01 0.  1.
        -11    1    1    2    0    0 -0.42693075452E+02  0.26697828462E+02 -0.15924563066E+03  0.16701689622E+03  0.00000000000E+00 0.  1.
         11    1    1    2    0    0  0.14957630711E+02  0.12848963986E+02  0.18307531679E+01  0.19803490832E+02  0.00000000000E+00 0. -1.
</event>
<event>
 7    1  0.5109948E-006  0.1143928E+03  0.7561462E-02  0.1252645E+00
          1   -1    0    0  501    0  0.00000000000E+00  0.00000000000E+00  0.44006490111E+03  0.44006490111E+03  0.00000000000E+00 0. -1.
         -1   -1    0    0    0  501 -0.00000000000E+00 -0.00000000000E+00 -0.36958249112E+02  0.36958249112E+02  0.00000000000E+00 0.  1.
         23    2    1    2    0    0 -0.44602324180E+02 -0.29506630947E+02  0.14716414329E+03  0.20040973481E+03  0.12508704227E+03 0.  0.
          5    1    3    3  502    0 -0.54878615725E+02  0.34592348961E+02  0.10294555040E+03  0.12175200951E+03  0.41800000000E+01 0.  1.
         -5    1    3    3    0  502  0.10276291545E+02 -0.64098979909E+02  0.44218592886E+02  0.78657725305E+02  0.41800000000E+01 0.  1.
        -11    1    1    2    0    0  0.89760530704E+01  0.54483738990E+02  0.94887195282E+02  0.10978445779E+03  0.00000000000E+00 0. -1.
         11    1    1    2    0    0  0.35626271110E+02 -0.24977108043E+02  0.16105531343E+03  0.16682895763E+03  0.00000000000E+00 0.  1.
</event>
<event>
 7    1  0.5109948E-006  0.8611591E+02  0.7561462E-02  0.1312540E+00
          2   -1    0    0  501    0  0.00000000000E+00  0.00000000000E+00  0.39686081419E+03  0.39686081419E+03  0.00000000000E+00 0.  1.
         -2   -1    0    0    0  501 -0.00000000000E+00 -0.00000000000E+00 -0.51550147127E+02  0.51550147127E+02  0.00000000000E+00 0. -1.
         23    2    1    2    0    0  0.62977869575E+02 -0.10267757369E+02  0.84545890660E+02  0.16391200586E+03  0.12508996419E+03 0.  0.
          5    1    3    3  502    0  0.25350133111E+02 -0.21562764560E+02 -0.28591900295E+02  0.44074382885E+02  0.41800000000E+01 0. -1.
         -5    1    3    3    0  502  0.37627736464E+02  0.11295007191E+02  0.11313779095E+03  0.11983762298E+03  0.41800000000E+01 0. -1.
        -11    1    1    2    0    0 -0.23353452029E+02  0.42240696755E+02  0.19738684055E+03  0.20320242372E+03  0.00000000000E+00 0.  1.
         11    1    1    2    0    0 -0.39624417546E+02 -0.31972939386E+02  0.63377935853E+02  0.81296531732E+02  0.00000000000E+00 0. -1.
</event>
<event>
 7    1  0.5109948E-006  0.2486711E+03  0.7561462E-02  0.1114148E+00
         -1   -1    0    0    0  501 -0.00000000000E+00  0.00000000000E+00  0.47636547322E+02  0.47636547322E+02  0.00000000000E+00 0.  1.
          1   -1    0    0  501    0  0.00000000000E+00 -0.00000000000E+00 -0.14067655205E+04  0.14067655205E+04  0.00000000000E+00 0. -1.
         23    2    1    2    0    0 -0.23391807864E+03 -0.14575855499E+02 -0.67136994523E+03  0.72202221426E+03  0.12509337092E+03 0.  0.
          5    1    3    3  502    0 -0.24274892345E+03 -0.10876830859E+02 -0.56383556628E+03  0.61398156608E+03  0.41800000000E+01 0. -1.
         -5    1    3    3    0  502  0.88308448047E+01 -0.36990246395E+01 -0.10753437894E+03  0.10804064818E+03  0.41800000000E+01 0. -1.
        -11    1    1    2    0    0  0.23403728320E+02  0.23496460420E+02 -0.44547267149E+02  0.55536268888E+02  0.00000000000E+00 0.  1.
         11    1    1    2    0    0  0.21051435032E+03 -0.89206049215E+01 -0.64321176081E+03  0.67684358468E+03  0.00000000000E+00 0. -1.
</event>
<event>
 7    1  0.5109948E-006  0.9211865E+02  0.7561462E-02  0.1297801E+00
          2   -1    0    0  501    0  0.00000000000E+00  0.00000000000E+00  0.23036727154E+03  0.23036727154E+03  0.00000000000E+00 0. -1.
         -2   -1    0    0    0  501 -0.00000000000E+00 -0.00000000000E+00 -0.75122372018E+02  0.75122372018E+02  0.00000000000E+00 0.  1.
         23    2    1    2    0    0  0.31895367778E+02 -0.22954536400E+01  0.72526106020E+01  0.12931667677E+03  0.12509044303E+03 0.  0.
          5    1    3    3  502    0 -0.15454538986E+00 -0.54683925361E+02  0.31396229105E+02  0.63194550233E+02  0.41800000000E+01 0. -1.
         -5    1    3    3    0  502  0.32049913168E+02  0.52388471721E+02 -0.24143618503E+02  0.66122126537E+02  0.41800000000E+01 0. -1.
        -11    1    1    2    0    0  0.12042820510E+02  0.17586004028E+02  0.28903477594E+00  0.21316205212E+02  0.00000000000E+00 0.  1.
         11    1    1    2    0    0 -0.43938188288E+02 -0.15290550388E+02  0.14770325414E+03  0.15485676158E+03  0.00000000000E+00 0. -1.
</event>
<event>
 7    1  0.5109948E-006  0.9184097E+02  0.7561462E-02  0.1298454E+00
         -1   -1    0    0    0  501 -0.00000000000E+00  0.00000000000E+00  0.40598509829E+03  0.40598509829E+03  0.00000000000E+00 0.  1.
          1   -1    0    0  501    0  0.00000000000E+00 -0.00000000000E+00 -0.27800406640E+02  0.27800406640E+02  0.00000000000E+00 0. -1.
         23    2    1    2    0    0  0.36237687799E+02  0.26009604158E+02  0.21095357705E+03  0.24926561904E+03  0.12506905149E+03 0.  0.
          5    1    3    3  502    0  0.65322508401E+01 -0.36584496322E+02  0.13158238043E+02  0.39644763848E+02  0.41800000000E+01 0.  1.
         -5    1    3    3    0  502  0.29705436958E+02  0.62594100480E+02  0.19779533901E+03  0.20962085520E+03  0.41800000000E+01 0.  1.
        -11    1    1    2    0    0 -0.52706207561E+02 -0.28966468034E+02  0.14238165161E+03  0.15456239937E+03  0.00000000000E+00 0.  1.
         11    1    1    2    0    0  0.16468519762E+02  0.29568638763E+01  0.24849462991E+02  0.29957486512E+02  0.00000000000E+00 0. -1.
</event>
<event>
 7    1  0.5109948E-006  0.1387863E+03  0.7561462E-02  0.1214972E+00
          2   -1    0    0  501    0  0.00000000000E+00  0.00000000000E+00  0.37175114965E+02  0.37175114965E+02  0.00000000000E+00 0. -1.
         -2   -1    0    0    0  501 -0.00000000000E+00 -0.00000000000E+00 -0.56272465609E+03  0.56272465609E+03  0.00000000000E+00 0.  1.
         23    2    1    2    0    0  0.49939091788E+02 -0.80496705082E+02 -0.29558945906E+03  0.33465767279E+03  0.12509595210E+03 0.  0.
          5    1    3    3  502    0 -0.31911354534E+02  0.45872327577E+01 -0.31125679911E+02  0.45007306101E+02  0.41800000000E+01 0.  1.
         -5    1    3    3    0  502  0.81850446321E+02 -0.85083937840E+02 -0.26446377915E+03  0.28965036669E+03  0.41800000000E+01 0.  1.
        -11    1    1    2    0    0  0.16892079916E+02  0.51275890000E+02 -0.62511817011E+02  0.82597133881E+02  0.00000000000E+00 0. -1.
         11    1    1    2    0    0 -0.66831171704E+02  0.29220815082E+02 -0.16744826505E+03  0.18264496438E+03  0.00000000000E+00 0.  1.
</event>
<event>
 7    1  0.5109948E-006  0.1257790E+03  0.7561462E-02  0.1233857E+00
         -2   -1    0    0    0  501 -0.00000000000E+00  0.00000000000E+00  0.45040851452E+02  0.45040851452E+02  0.00000000000E+00 0.  1.
          2   -1    0    0  501    0  0.00000000000E+00 -0.00000000000E+00 -0.64147494353E+03  0.64147494353E+03  0.00000000000E+00 0. -1.
         23    2    1    2    0    0 -0.42037818972E+02 -0.10724715545E+03 -0.19682654574E+03  0.26010465267E+03  0.12507841804E+03 0.  0.
          5    1    3    3  502    0 -0.55150781771E+01 -0.41752704485E+02 -0.17760512078E+03  0.18257808123E+03  0.41800000000E+01 0. -1.
         -5    1    3    3    0  502 -0.36522740795E+02 -0.65494450966E+02 -0.19221424963E+02  0.77526571446E+02  0.41800000000E+01 0. -1.
        -11    1    1    2    0    0  0.52705673746E+02  0.40324638760E+02 -0.10580683501E+03  0.12489616035E+03  0.00000000000E+00 0.  1.
         11    1    1    2    0    0 -0.10667854774E+02  0.66922516692E+02 -0.29380071134E+03  0.30151498196E+03  0.00000000000E+00 0. -1.
</event>
<event>
 7    1  0.5109948E-006  0.1213903E+03  0.7561462E-02  0.1240821E+00
         -3   -1    0    0    0  501 -0.00000000000E+00  0.00000000000E+00  0.96225411077E+02  0.96225411077E+02  0.00000000000E+00 0.  1.
          3   -1    0    0  501    0  0.00000000000E+00 -0.00000000000E+00 -0.25370875446E+03  0.25370875446E+03  0.00000000000E+00 0. -1.
         23    2    1    2    0    0 -0.71075318634E+02 -0.70411767645E+02 -0.13807934560E+03  0.21148213617E+03  0.12509704352E+03 0.  0.
          5    1    3    3  502    0 -0.53883996935E+01  0.23984524997E+02  0.73816750685E+01  0.26004880646E+02  0.41800000000E+01 0.  1.
         -5    1    3    3    0  502 -0.65686918940E+02 -0.94396292642E+02 -0.14546102067E+03  0.18547725553E+03  0.41800000000E+01 0.  1.
        -11    1    1    2    0    0  0.65706361346E+02  0.52608363235E+02  0.27052034511E+02  0.88412546479E+02  0.00000000000E+00 0.  1.
         11    1    1    2    0    0  0.53689572873E+01  0.17803404410E+02 -0.46456032297E+02  0.50039482888E+02  0.00000000000E+00 0. -1.
</event>
<event>
 7    1  0.5109948E-006  0.1294754E+03  0.7561462E-02  0.1228236E+00
         -1   -1    0    0    0  501 -0.00000000000E+00  0.00000000000E+00  0.45505150999E+03  0.45505150999E+03  0.00000000000E+00 0.  1.
          1   -1    0    0  501    0  0.00000000000E+00 -0.00000000000E+00 -0.44149517576E+02  0.44149517576E+02  0.00000000000E+00 0. -1.
         23    2    1    2    0    0  0.40789676171E+02 -0.81122223842E+02  0.24196132921E+03  0.28711830847E+03  0.12508807034E+03 0.  0.
          5    1    3    3  502    0 -0.26902354270E+02  0.36367669012E+01  0.12318340623E+03  0.12620850490E+03  0.41800000000E+01 0. -1.
         -5    1    3    3    0  502  0.67692030441E+02 -0.84758990743E+02  0.11877792298E+03  0.16090980357E+03  0.41800000000E+01 0. -1.
        -11    1    1    2    0    0  0.25757544132E+02  0.20680173770E+02  0.21552968386E+02  0.39441743282E+02  0.00000000000E+00 0.  1.
         11    1    1    2    0    0 -0.66547220302E+02  0.60442050072E+02  0.14738769482E+03  0.17264097582E+03  0.00000000000E+00 0. -1.
</event>
<event>
 7    1  0.5109948E-006  0.3490841E+03  0.7561462E-02  0.1062992E+00
          1   -1    0    0  501    0  0.00000000000E+00  0.00000000000E+00  0.64217995625E+03  0.64217995625E+03  0.00000000000E+00 0. -1.
         -1   -1    0    0    0  501 -0.00000000000E+00 -0.00000000000E+00 -0.23212038675E+03  0.23212038675E+03  0.00000000000E+00 0.  1.
         23    2    1    2    0    0  0.82501553349E+02 -0.33481585863E+03  0.36038216704E+03  0.51423301401E+03  0.12510843653E+03 0.  0.
          5    1    3    3  502    0  0.80011888582E+02 -0.18051379792E+03  0.27265923406E+03  0.33667144796E+03  0.41800000000E+01 0. -1.
         -5    1    3    3    0  502  0.24896647675E+01 -0.15430206071E+03  0.87722932974E+02  0.17756156605E+03  0.41800000000E+01 0. -1.
        -11    1    1    2    0    0 -0.57751760070E+02  0.16794364653E+03 -0.17564331933E+02  0.17846243290E+03  0.00000000000E+00 0.  1.
         11    1    1    2    0    0 -0.24749793280E+02  0.16687221210E+03  0.67241734401E+02  0.18160489609E+03  0.00000000000E+00 0. -1.
</event>
<event>
 7    1  0.5109948E-006  0.1597197E+03  0.7561462E-02  0.1189014E+00
          2   -1    0    0  501    0  0.00000000000E+00  0.00000000000E+00  0.32046313278E+03  0.32046313278E+03  0.00000000000E+00 0. -1.
         -2   -1    0    0    0  501 -0.00000000000E+00 -0.00000000000E+00 -0.99391903450E+02  0.99391903450E+02  0.00000000000E+00 0.  1.
         23    2    1    2    0    0 -0.91157704023E+02 -0.10901423157E+03  0.11924976060E+03  0.22374536923E+03  0.12509058782E+03 0.  0.
          5    1    3    3  502    0  0.22540242058E+02 -0.11650621870E+02  0.55159347202E+02  0.60859062479E+02  0.41800000000E+01 0. -1.
         -5    1    3    3    0  502 -0.11369794608E+03 -0.97363609703E+02  0.64090413403E+02  0.16288630675E+03  0.41800000000E+01 0. -1.
        -11    1    1    2    0    0  0.85842992107E+02  0.90594512574E+02  0.11744699973E+03  0.17137731107E+03  0.00000000000E+00 0. -1.
         11    1    1    2    0    0  0.53147119161E+01  0.18419718999E+02 -0.15625531007E+02  0.24732355933E+02  0.00000000000E+00 0.  1.
</event>
<event>
 7    1  0.5109948E-006  0.1299580E+03  0.7561462E-02  0.1227518E+00
         -4   -1    0    0    0  501 -0.00000000000E+00  0.00000000000E+00  0.34880830333E+03  0.34880830333E+03  0.00000000000E+00 0.  1.
          4   -1    0    0  501    0  0.00000000000E+00 -0.00000000000E+00 -0.68467940042E+02  0.68467940042E+02  0.00000000000E+00 0. -1.
         23    2    1    2    0    0  0.58170189521E+02  0.66791819204E+02  0.23985891599E+03  0.28464599183E+03  0.12508446354E+03 0.  0.
          5    1    3    3  502    0  0.83086090888E+02  0.58871867301E+01  0.16506506616E+03  0.18493757307E+03  0.41800000000E+01 0.  1.
         -5    1    3    3    0  502 -0.24915901368E+02  0.60904632474E+02  0.74793849838E+02  0.99708418758E+02  0.41800000000E+01 0.  1.
        -11    1    1    2    0    0 -0.73091737099E+02 -0.57542097545E+02  0.56522193372E+02  0.10884968243E+03  0.00000000000E+00 0.  1.
         11    1    1    2    0    0  0.14921547579E+02 -0.92497216588E+01 -0.16040746075E+02  0.23780569118E+02  0.00000000000E+00 0. -1.
</event>
<event>
 7    1  0.5109948E-006  0.1194588E+03  0.7561462E-02  0.1243993E+00
          1   -1    0    0  501    0  0.00000000000E+00  0.00000000000E+00  0.36135441327E+03  0.36135441327E+03  0.00000000000E+00 0. -1.
         -1   -1    0    0    0  501 -0.00000000000E+00 -0.00000000000E+00 -0.43075890976E+02  0.43075890976E+02  0.00000000000E+00 0.  1.
         23    2    1    2    0    0 -0.46381086455E+02  0.41109757131E+02  0.15662037391E+03  0.20980686078E+03  0.12509100685E+03 0.  0.
          5    1    3    3  502    0 -0.85569456861E+02  0.24207029647E+02  0.70351255692E+02  0.11346754518E+03  0.41800000000E+01 0.  1.
         -5    1    3    3    0  502  0.39188370406E+02  0.16902727484E+02  0.86269118223E+02  0.96339315601E+02  0.41800000000E+01 0.  1.
        -11    1    1    2    0    0 -0.12807689055E+02 -0.45874766177E+02  0.87478424081E+02  0.99604245644E+02  0.00000000000E+00 0.  1.
         11    1    1    2    0    0  0.59188775510E+02  0.47650090458E+01  0.74179724298E+02  0.95019197821E+02  0.00000000000E+00 0. -1.
</event>
<event>
 7    1  0.5109948E-006  0.1462806E+03  0.7561462E-02  0.1205119E+00
         -2   -1    0    0    0  501 -0.00000000000E+00  0.00000000000E+00  0.30549461025E+02  0.30549461025E+02  0.00000000000E+00 0.  1.
          2   -1    0    0  501    0  0.00000000000E+00 -0.00000000000E+00 -0.77282133047E+03  0.77282133047E+03  0.00000000000E+00 0. -1.
         23    2    1    2    0    0  0.98857680180E+02 -0.43116612457E+02 -0.36565782092E+03  0.40122779728E+03  0.12508485165E+03 0.  0.
          5    1    3    3  502    0  0.47703391285E+02 -0.78612798298E+02 -0.14361300343E+03  0.17058063416E+03  0.41800000000E+01 0.  1.
         -5    1    3    3    0  502  0.51154288895E+02  0.35496185841E+02 -0.22204481749E+03  0.23064716312E+03  0.41800000000E+01 0.  1.
        -11    1    1    2    0    0 -0.37106118034E+02  0.63102025203E+02 -0.23960030479E+03  0.25053350202E+03  0.00000000000E+00 0.  1.
         11    1    1    2    0    0 -0.61751562146E+02 -0.19985412745E+02 -0.13701374375E+03  0.15160949220E+03  0.00000000000E+00 0. -1.
</event>
<event>
 7    1  0.5109948E-006  0.2715259E+03  0.7561462E-02  0.1100409E+00
          1   -1    0    0  501    0  0.00000000000E+00  0.00000000000E+00  0.11157356064E+04  0.11157356064E+04  0.00000000000E+00 0. -1.
         -1   -1    0    0    0  501 -0.00000000000E+00 -0.00000000000E+00 -0.67994466664E+02  0.67994466664E+02  0.00000000000E+00 0.  1.
         23    2    1    2    0    0  0.24010496502E+03 -0.53612345903E+01  0.43965179893E+03  0.51634994385E+03  0.12507766848E+03 0.  0.
          5    1    3    3  502    0  0.71369378297E+02  0.56143128710E+02  0.15806266056E+03  0.18233736897E+03  0.41800000000E+01 0. -1.
         -5    1    3    3    0  502  0.16873558672E+03 -0.61504363301E+02  0.28158913836E+03  0.33401257488E+03  0.41800000000E+01 0. -1.
        -11    1    1    2    0    0 -0.13301524117E+03  0.67008171201E+02  0.28722067415E+03  0.32354113347E+03  0.00000000000E+00 0.  1.
         11    1    1    2    0    0 -0.10708972385E+03 -0.61646936611E+02  0.32086866670E+03  0.34383899578E+03  0.00000000000E+00 0. -1.
</event>
<event>
 7    1  0.5109948E-006  0.1181583E+03  0.7561462E-02  0.1246167E+00
         -1   -1    0    0    0  501 -0.00000000000E+00  0.00000000000E+00  0.23370931021E+02  0.23370931021E+02  0.00000000000E+00 0.  1.
          1   -1    0    0  501    0  0.00000000000E+00 -0.00000000000E+00 -0.63022657102E+03  0.63022657102E+03  0.00000000000E+00 0. -1.
         23    2    1    2    0    0 -0.53938025968E+02  0.10831989369E+02 -0.31930672329E+03  0.34731996476E+03  0.12509089392E+03 0.  0.
          5    1    3    3  502    0 -0.79623308177E+02 -0.32484201382E+02 -0.20445296971E+03  0.22184134819E+03  0.41800000000E+01 0.  1.
         -5    1    3    3    0  502  0.25685282209E+02  0.43316190751E+02 -0.11485375359E+03  0.12547861657E+03  0.41800000000E+01 0.  1.
        -11    1    1    2    0    0  0.48430942692E+02 -0.44380876203E+02 -0.13696429517E+03  0.15190272063E+03  0.00000000000E+00 0.  1.
         11    1    1    2    0    0  0.55070832758E+01  0.33548886834E+02 -0.15058462153E+03  0.15437481665E+03  0.00000000000E+00 0. -1.
</event>
<event>
 7    1  0.5109948E-006  0.1519424E+03  0.7561462E-02  0.1198106E+00
         -2   -1    0    0    0  501 -0.00000000000E+00  0.00000000000E+00  0.59612509651E+02  0.59612509651E+02  0.00000000000E+00 0.  1.
          2   -1    0    0  501    0  0.00000000000E+00 -0.00000000000E+00 -0.43109351232E+03  0.43109351232E+03  0.00000000000E+00 0. -1.
         23    2    1    2    0    0 -0.44439425355E+02 -0.10294996834E+03 -0.14828340511E+03  0.22407606210E+03  0.12509418399E+03 0.  0.
          5    1    3    3  502    0  0.40223651483E+01  0.26671350259E+02 -0.39453026039E+02  0.47974514168E+02  0.41800000000E+01 0. -1.
         -5    1    3    3    0  502 -0.48461790503E+02 -0.12962131860E+03 -0.10883037907E+03  0.17610154793E+03  0.41800000000E+01 0. -1.
        -11    1    1    2    0    0  0.65171539481E+02  0.96470853330E+02 -0.21276317330E+03  0.24253272565E+03  0.00000000000E+00 0. -1.
         11    1    1    2    0    0 -0.20732114126E+02  0.64791150124E+01 -0.10434424266E+02  0.24097234224E+02  0.00000000000E+00 0.  1.
</event>
<event>
 6    1  0.5109948E-006  0.1199899E+03  0.7561462E-02  0.1243114E+00
          1   -1    0    0  501    0  0.00000000000E+00  0.00000000000E+00  0.33248579839E+03  0.33248579839E+03  0.00000000000E+00 0. -1.
         -1   -1    0    0    0  501 -0.00000000000E+00 -0.00000000000E+00 -0.97276372298E+02  0.97276372298E+02  0.00000000000E+00 0.  1.
          5    1    1    2  502    0  0.16068034468E+02 -0.10085787573E+03 -0.43714401559E+02  0.11117065319E+03  0.41800000000E+01 0. -1.
         -5    1    1    2    0  502  0.19051601439E+02  0.10207584380E+02  0.46663829027E+02  0.51595965304E+02  0.41800000000E+01 0.  1.
        -11    1    1    2    0    0 -0.37114351493E+02  0.14931756381E+02  0.14970076820E+03  0.15495403330E+03  0.00000000000E+00 0. -1.
         11    1    1    2    0    0  0.19947155862E+01  0.75718534967E+02  0.82559230427E+02  0.11204151890E+03  0.00000000000E+00 0.  1.
</event>
<event>
 7    1  0.5109948E-006  0.1085424E+03  0.7561462E-02  0.1263293E+00
          1   -1    0    0  501    0  0.00000000000E+00  0.00000000000E+00  0.54539233015E+03  0.54539233015E+03  0.00000000000E+00 0. -1.
         -1   -1    0    0    0  501 -0.00000000000E+00 -0.00000000000E+00 -0.25206048108E+02  0.25206048108E+02  0.00000000000E+00 0.  1.
         23    2    1    2    0    0 -0.83311480775E+01 -0.43740740013E+02  0.23050600380E+03  0.26601526772E+03  0.12509374286E+03 0.  0.
          5    1    3    3  502    0 -0.36694417407E+02  0.33798197222E+02  0.83420829135E+02  0.97289801819E+02  0.41800000000E+01 0.  1.
         -5    1    3    3    0  502  0.28363269330E+02 -0.77538937236E+02  0.14708517467E+03  0.16872546590E+03  0.41800000000E+01 0.  1.
        -11    1    1    2    0    0 -0.16235908453E+02  0.54986932903E+02  0.25058205546E+03  0.25705745278E+03  0.00000000000E+00 0. -1.
         11    1    1    2    0    0  0.24567056531E+02 -0.11246192889E+02  0.39098222787E+02  0.47525657767E+02  0.00000000000E+00 0.  1.
</event>
<event>
 7    1  0.5109948E-006  0.6853089E+02  0.7561462E-02  0.1365161E+00
          2   -1    0    0  501    0  0.00000000000E+00  0.00000000000E+00  0.47709192086E+02  0.47709192086E+02  0.00000000000E+00 0. -1.
         -2   -1    0    0    0  501 -0.00000000000E+00 -0.00000000000E+00 -0.25675144486E+03  0.25675144486E+03  0.00000000000E+00 0.  1.
         23    2    1    2    0    0 -0.21118212712E+02  0.95118434417E+01 -0.13372833189E+03  0.18455913584E+03  0.12506939593E+03 0.  0.
          5    1    3    3  502    0 -0.33243019730E+02 -0.18533638920E+02 -0.14632140578E+03  0.15124820766E+03  0.41800000000E+01 0. -1.
         -5    1    3    3    0  502  0.12124807019E+02  0.28045482361E+02  0.12593073888E+02  0.33310928178E+02  0.41800000000E+01 0. -1.
        -11    1    1    2    0    0  0.68359679142E+01 -0.36641800610E+02  0.13869443555E+01  0.37299807291E+02  0.00000000000E+00 0. -1.
         11    1    1    2    0    0  0.14282244798E+02  0.27129957168E+02 -0.76700865241E+02  0.82601693815E+02  0.00000000000E+00 0.  1.
</event>
<event>
 7    1  0.5109948E-006  0.1091344E+03  0.7561462E-02  0.1262181E+00
          1   -1    0    0  501    0  0.00000000000E+00  0.00000000000E+00  0.10248399729E+03  0.10248399729E+03  0.00000000000E+00 0. -1.
         -1   -1    0    0    0  501 -0.00000000000E+00 -0.00000000000E+00 -0.20333404078E+03  0.20333404078E+03  0.00000000000E+00 0.  1.
         23    2    1    2    0    0  0.30651799975E+02 -0.65301465736E+02 -0.12248817289E+03  0.18776028441E+03  0.12266522587E+03 0.  0.
          5    1    3    3  502    0  0.43931218250E+02 -0.75729769820E+02 -0.28485869909E+02  0.92162178568E+02  0.41800000000E+01 0. -1.
         -5    1    3    3    0  502 -0.13279418275E+02  0.10428304084E+02 -0.94002302980E+02  0.95598105846E+02  0.41800000000E+01 0.  1.
        -11    1    1    2    0    0 -0.27145190036E+02 -0.16224111820E+02 -0.54250838984E+01  0.32086051202E+02  0.00000000000E+00 0.  1.
         11    1    1    2    0    0 -0.35066099384E+01  0.81525577556E+02  0.27063213293E+02  0.85971702454E+02  0.00000000000E+00 0. -1.
</event>
<event>
 7    1  0.5109948E-006  0.1034600E+03  0.7561462E-02  0.1273184E+00
          2   -1    0    0  501    0  0.00000000000E+00  0.00000000000E+00  0.18381714631E+03  0.18381714631E+03  0.00000000000E+00 0. -1.
         -2   -1    0    0    0  501 -0.00000000000E+00 -0.00000000000E+00 -0.64268194202E+02  0.64268194202E+02  0.00000000000E+00 0.  1.
         23    2    1    2    0    0  0.13298387267E+01 -0.19966341409E+02  0.67231440208E+02  0.14341382388E+03  0.12508810921E+03 0.  0.
          5    1    3    3  502    0 -0.39370340660E+02  0.32972105004E+02  0.55063848590E+02  0.75410100475E+02  0.41800000000E+01 0.  1.
         -5    1    3    3    0  502  0.40700179387E+02 -0.52938446413E+02  0.12167591618E+02  0.68003723402E+02  0.41800000000E+01 0.  1.
        -11    1    1    2    0    0  0.31288357059E+02 -0.19823535625E+02  0.10866842935E+02  0.38600804752E+02  0.00000000000E+00 0.  1.
         11    1    1    2    0    0 -0.32618195786E+02  0.39789877034E+02  0.41450668962E+02  0.66070711878E+02  0.00000000000E+00 0. -1.
</event>
<event>
 7    1  0.5109948E-006  0.1230701E+03  0.7561462E-02  0.1238117E+00
          1   -1    0    0  501    0  0.00000000000E+00  0.00000000000E+00  0.31732443873E+03  0.31732443873E+03  0.00000000000E+00 0. -1.
         -1   -1    0    0    0  501 -0.00000000000E+00 -0.00000000000E+00 -0.64107656990E+02  0.64107656990E+02  0.00000000000E+00 0.  1.
         23    2    1    2    0    0 -0.61995305005E+02  0.67463740709E+02  0.12194350616E+03  0.19726192050E+03  0.12508905800E+03 0.  0.
          5    1    3    3  502    0  0.30360847719E+02 -0.17021133382E+01  0.57131252835E+02  0.64854689225E+02  0.41800000000E+01 0.  1.
         -5    1    3    3    0  502 -0.92356152725E+02  0.69165854047E+02  0.64812253320E+02  0.13240723127E+03  0.41800000000E+01 0.  1.
        -11    1    1    2    0    0  0.33748605548E+02 -0.88021993010E+01  0.11043052307E+03  0.11580737245E+03  0.00000000000E+00 0. -1.
         11    1    1    2    0    0  0.28246699458E+02 -0.58661541408E+02  0.20842752518E+02  0.68362802774E+02  0.00000000000E+00 0.  1.
</event>
<event>
 7    1  0.5109948E-006  0.1461306E+03  0.7561462E-02  0.1205310E+00
          2   -1    0    0  501    0  0.00000000000E+00  0.00000000000E+00  0.11939727791E+03  0.11939727791E+03  0.00000000000E+00 0. -1.
         -2   -1    0    0    0  501 -0.00000000000E+00 -0.00000000000E+00 -0.21578970986E+03  0.21578970986E+03  0.00000000000E+00 0.  1.
         23    2    1    2    0    0  0.73079075874E+02  0.94907786603E+02 -0.66802346268E+02  0.18563022300E+03  0.12509191395E+03 0.  0.
          5    1    3    3  502    0 -0.22504258198E+02  0.67908838707E+02 -0.42405399625E+02  0.83269095882E+02  0.41800000000E+01 0. -1.
         -5    1    3    3    0  502  0.95583334072E+02  0.26998947895E+02 -0.24396946643E+02  0.10236112712E+03  0.41800000000E+01 0. -1.
        -11    1    1    2    0    0 -0.56286988711E+02 -0.58976026128E+02 -0.58614300299E+02  0.10040932704E+03  0.00000000000E+00 0.  1.
         11    1    1    2    0    0 -0.16792087163E+02 -0.35931760474E+02  0.29024214616E+02  0.49147437737E+02  0.00000000000E+00 0. -1.
</event>
<event>
 7    1  0.5109948E-006  0.1345004E+03  0.7561462E-02  0.1220927E+00
          3   -1    0    0  501    0  0.00000000000E+00  0.00000000000E+00  0.51765160392E+03  0.51765160392E+03  0.00000000000E+00 0. -1.
         -3   -1    0    0    0  501 -0.00000000000E+00 -0.00000000000E+00 -0.41722863486E+02  0.41722863486E+02  0.00000000000E+00 0.  1.
         23    2    1    2    0    0  0.69778887346E+02 -0.61785008521E+02  0.19735078722E+03  0.25155587819E+03  0.12508615526E+03 0.  0.
          5    1    3    3  502    0  0.97827484639E+02 -0.62877544597E+02  0.11160489648E+03  0.16123562784E+03  0.41800000000E+01 0.  1.
         -5    1    3    3    0  502 -0.28048597294E+02  0.10925360765E+01  0.85745890740E+02  0.90320250354E+02  0.41800000000E+01 0.  1.
        -11    1    1    2    0    0 -0.88590085567E+02  0.46721895866E+02  0.17652303589E+03  0.20295694374E+03  0.00000000000E+00 0.  1.
         11    1    1    2    0    0  0.18811198221E+02  0.15063112655E+02  0.10205491732E+03  0.10486164547E+03  0.00000000000E+00 0. -1.
</event>
<event>
 7    1  0.5109948E-006  0.8826874E+02  0.7561462E-02  0.1307099E+00
         -1   -1    0    0    0  501 -0.00000000000E+00  0.00000000000E+00  0.54662935371E+02  0.54662935371E+02  0.00000000000E+00 0.  1.
          1   -1    0    0  501    0  0.00000000000E+00 -0.00000000000E+00 -0.23195506748E+03  0.23195506748E+03  0.00000000000E+00 0. -1.
         23    2    1    2    0    0  0.17234716535E+02  0.83599132974E+01 -0.68324462939E+02  0.14381157230E+03  0.12508642007E+03 0.  0.
          5    1    3    3  502    0 -0.35172710440E+02  0.24968974614E+02  0.13281576533E+02  0.45325952039E+02  0.41800000000E+01 0.  1.
         -5    1    3    3    0  502  0.52407426975E+02 -0.16609061317E+02 -0.81606039472E+02  0.98485620261E+02  0.41800000000E+01 0.  1.
        -11    1    1    2    0    0 -0.30996904101E+02  0.26377958969E+02 -0.94222375261E+02  0.10263752132E+03  0.00000000000E+00 0. -1.
         11    1    1    2    0    0  0.13762187567E+02 -0.34737872267E+02 -0.14745293910E+02  0.40168909230E+02  0.00000000000E+00 0.  1.
</event>
<event>
 7    1  0.5109948E-006  0.1160908E+03  0.7561462E-02  0.1249689E+00
          1   -1    0    0  501    0  0.00000000000E+00  0.00000000000E+00  0.62932274136E+02  0.62932274136E+02  0.00000000000E+00 0. -1.
         -1   -1    0    0    0  501 -0.00000000000E+00 -0.00000000000E+00 -0.30435526793E+03  0.30435526793E+03  0.00000000000E+00 0.  1.
         23    2    1    2    0    0 -0.32938579514E+02  0.73744425480E+02 -0.17471414215E+03  0.22955754947E+03  0.12509375182E+03 0.  0.
          5    1    3    3  502    0  0.43937546876E+02  0.57993506970E+01 -0.69552677487E+02  0.82578373922E+02  0.41800000000E+01 0.  1.
         -5    1    3    3    0  502 -0.76876126390E+02  0.67945074782E+02 -0.10516146466E+03  0.14697917555E+03  0.41800000000E+01 0.  1.
        -11    1    1    2    0    0  0.29793931555E+02 -0.34383630951E+02 -0.83288194863E+02  0.94904350998E+02  0.00000000000E+00 0.  1.
         11    1    1    2    0    0  0.31446479590E+01 -0.39360794528E+02  0.16579343216E+02  0.42825641596E+02  0.00000000000E+00 0. -1.
</event>
<event>
 7    1  0.5109948E-006  0.1326102E+03  0.7561462E-02  0.1223633E+00
          1   -1    0    0  501    0  0.00000000000E+00  0.00000000000E+00  0.10026359165E+03  0.10026359165E+03  0.00000000000E+00 0. -1.
         -1   -1    0    0    0  501 -0.00000000000E+00 -0.00000000000E+00 -0.24444248825E+03  0.24444248825E+03  0.00000000000E+00 0.  1.
         23    2    1    2    0    0 -0.40877543732E+02 -0.87232299929E+02 -0.14250070615E+03  0.21268589895E+03  0.12509353551E+03 0.  0.
          5    1    3    3  502    0  0.18299229389E+01  0.30832198902E+02 -0.38963668776E+02  0.49896021801E+02  0.41800000000E+01 0. -1.
         -5    1    3    3    0  502 -0.42707466671E+02 -0.11806449883E+03 -0.10353703737E+03  0.16278987714E+03  0.41800000000E+01 0. -1.
        -11    1    1    2    0    0  0.52594692566E+02  0.69019287230E+02  0.31571413575E+02  0.92339687301E+02  0.00000000000E+00 0. -1.
         11    1    1    2    0    0 -0.11717148835E+02  0.18213012699E+02 -0.33249604025E+02  0.39680493648E+02  0.00000000000E+00 0.  1.
</event>
<event>
 7    1  0.5109948E-006  0.1488285E+03  0.7561462E-02  0.1201920E+00
         -1   -1    0    0    0  501 -0.00000000000E+00  0.00000000000E+00  0.86778698896E+02  0.86778698896E+02  0.00000000000E+00 0.  1.
          1   -1    0    0  501    0  0.00000000000E+00 -0.00000000000E+00 -0.34237033802E+03  0.34237033802E+03  0.00000000000E+00 0. -1.
         23    2    1    2    0    0 -0.12958056846E+03  0.28818365472E+02 -0.11063974748E+03  0.21333304114E+03  0.12509280877E+03 0.  0.
          5    1    3    3  502    0 -0.66295440618E+02  0.44558135473E+02  0.53883644357E+01  0.80168695603E+02  0.41800000000E+01 0. -1.
         -5    1    3    3    0  502 -0.63285127847E+02 -0.15739770001E+02 -0.11602811192E+03  0.13316434553E+03  0.41800000000E+01 0. -1.
        -11    1    1    2    0    0  0.36986385029E+02 -0.45080240628E+02 -0.89039998932E+02  0.10643468505E+03  0.00000000000E+00 0.  1.
         11    1    1    2    0    0  0.92594183436E+02  0.16261875156E+02 -0.55911892712E+02  0.10938131073E+03  0.00000000000E+00 0. -1.
</event>
<event>
 7    1  0.5109948E-006  0.9241126E+02  0.7561462E-02  0.1297115E+00
          2   -1    0    0  501    0  0.00000000000E+00  0.00000000000E+00  0.53219562873E+02  0.53219562873E+02  0.00000000000E+00 0. -1.
         -2   -1    0    0    0  501 -0.00000000000E+00 -0.00000000000E+00 -0.48439301694E+03  0.48439301694E+03  0.00000000000E+00 0.  1.
         23    2    1    2    0    0 -0.61919420032E+02  0.15031894981E+02 -0.40056411994E+03  0.42445190518E+03  0.12509129940E+03 0.  0.
          5    1    3    3  502    0 -0.28097434496E+02 -0.13490714179E+02 -0.12482621791E+02  0.33834205194E+02  0.41800000000E+01 0.  1.
         -5    1    3    3    0  502 -0.33821985536E+02  0.28522609160E+02 -0.38808149815E+03  0.39061769999E+03  0.41800000000E+01 0.  1.
        -11    1    1    2    0    0  0.56822421876E+01 -0.44900015810E+02 -0.13365382708E+02  0.47190388333E+02  0.00000000000E+00 0. -1.
         11    1    1    2    0    0  0.56237177845E+02  0.29868120829E+02 -0.17243951421E+02  0.65970286299E+02  0.00000000000E+00 0.  1.
</event>
<event>
 7    1  0.5109948E-006  0.1102642E+03  0.7561462E-02  0.1260081E+00
          3   -1    0    0  501    0  0.00000000000E+00  0.00000000000E+00  0.69480526002E+02  0.69480526002E+02  0.00000000000E+00 0. -1.
         -3   -1    0    0    0  501 -0.00000000000E+00 -0.00000000000E+00 -0.26051699063E+03  0.26051699063E+03  0.00000000000E+00 0.  1.
         23    2    1    2    0    0 -0.76450861672E+02  0.12390756839E+02 -0.11837947620E+03  0.18883452788E+03  0.12508602412E+03 0.  0.
          5    1    3    3  502    0  0.90671780665E+01  0.35828283270E+02  0.42627307746E+01  0.37436918594E+02  0.41800000000E+01 0.  1.
         -5    1    3    3    0  502 -0.85518039739E+02 -0.23437526431E+02 -0.12264220698E+03  0.15139760929E+03  0.41800000000E+01 0.  1.
        -11    1    1    2    0    0  0.80989343035E+02  0.40269063603E+00 -0.88723025070E+02  0.12012997554E+03  0.00000000000E+00 0.  1.
         11    1    1    2    0    0 -0.45384813633E+01 -0.12793447475E+02  0.16066036643E+02  0.21033013213E+02  0.00000000000E+00 0. -1.
</event>
<event>
 7    1  0.5109948E-006  0.9905898E+02  0.7561462E-02  0.1282287E+00
          1   -1    0    0  501    0  0.00000000000E+00  0.00000000000E+00  0.49384839354E+03  0.49384839354E+03  0.00000000000E+00 0. -1.
         -1   -1    0    0    0  501 -0.00000000000E+00 -0.00000000000E+00 -0.40111686628E+02  0.40111686628E+02  0.00000000000E+00 0.  1.
         23    2    1    2    0    0 -0.11524960766E+02  0.73813670018E+02  0.15629562318E+03  0.21367430479E+03  0.12508838515E+03 0.  0.
          5    1    3    3  502    0 -0.52762470737E+01 -0.32576933368E+01  0.13243279152E+03  0.13264376359E+03  0.41800000000E+01 0.  1.
         -5    1    3    3    0  502 -0.62487136926E+01  0.77071363355E+02  0.23862831655E+02  0.81030541198E+02  0.41800000000E+01 0.  1.
        -11    1    1    2    0    0 -0.29355934791E+02 -0.65086625685E+02  0.23104977556E+03  0.24183059884E+03  0.00000000000E+00 0.  1.
         11    1    1    2    0    0  0.40880895557E+02 -0.87270443330E+01  0.66391308174E+02  0.78455176537E+02  0.00000000000E+00 0. -1.
</event>
<event>
 7    1  0.5109948E-006  0.1219947E+03  0.7561462E-02  0.1239842E+00
          1   -1    0    0  501    0  0.00000000000E+00  0.00000000000E+00  0.11548414106E+04  0.11548414106E+04  0.00000000000E+00 0. -1.
         -1   -1    0    0    0  501 -0.00000000000E+00 -0.00000000000E+00 -0.18622260738E+02  0.18622260738E+02  0.00000000000E+00 0.  1.
         23    2    1    2    0    0  0.68046843938E+01 -0.95979883510E+02  0.54048004862E+03  0.56304977286E+03  0.12509165435E+03 0.  0.
          5    1    3    3  502    0  0.30160202024E+02 -0.70703983945E+02  0.12981565241E+03  0.15092470686E+03  0.41800000000E+01 0.  1.
         -5    1    3    3    0  502 -0.23355517630E+02 -0.25275899565E+02  0.41066439622E+03  0.41212506600E+03  0.41800000000E+01 0.  1.
        -11    1    1    2    0    0 -0.43655249007E+02  0.20255380743E+02  0.24761187065E+03  0.25224531651E+03  0.00000000000E+00 0. -1.
         11    1    1    2    0    0  0.36850564613E+02  0.75724502767E+02  0.34812723057E+03  0.35816858195E+03  0.00000000000E+00 0.  1.
</event>
<event>
 7    1  0.5109948E-006  0.9550542E+02  0.7561462E-02  0.1290042E+00
         -1   -1    0    0    0  501 -0.00000000000E+00  0.00000000000E+00  0.43810274822E+02  0.43810274822E+02  0.00000000000E+00 0.  1.
          1   -1    0    0  501    0  0.00000000000E+00 -0.00000000000E+00 -0.32150448528E+03  0.32150448528E+03  0.00000000000E+00 0. -1.
         23    2    1    2    0    0 -0.45778020357E+02 -0.20788065307E+02 -0.16666890917E+03  0.21436826498E+03  0.12508979550E+03 0.  0.
          5    1    3    3  502    0 -0.84384341637E+02 -0.36040209476E+02 -0.10056366868E+03  0.13619889012E+03  0.41800000000E+01 0. -1.
         -5    1    3    3    0  502  0.38606321280E+02  0.15252144170E+02 -0.66105240497E+02  0.78169374858E+02  0.41800000000E+01 0. -1.
        -11    1    1    2    0    0  0.37659917074E+02  0.28736957111E+01  0.42728880069E+00  0.37771815641E+02  0.00000000000E+00 0.  1.
         11    1    1    2    0    0  0.81181032829E+01  0.17914369595E+02 -0.11145259008E+03  0.11317467948E+03  0.00000000000E+00 0. -1.
</event>
<event>
 7    1  0.5109948E-006  0.1660381E+03  0.7561462E-02  0.1182044E+00
          3   -1    0    0  501    0  0.00000000000E+00  0.00000000000E+00  0.66839101637E+03  0.66839101637E+03  0.00000000000E+00 0. -1.
         -3   -1    0    0    0  501 -0.00000000000E+00 -0.00000000000E+00 -0.44162500826E+02  0.44162500826E+02  0.00000000000E+00 0.  1.
         23    2    1    2    0    0  0.11416404960E+03 -0.68266226300E+02  0.33417669012E+03  0.38080959328E+03  0.12509267861E+03 0.  0.
          5    1    3    3  502    0  0.11261608547E+03 -0.68523384161E+00  0.17935470256E+03  0.21182170328E+03  0.41800000000E+01 0. -1.
         -5    1    3    3    0  502  0.15479641328E+01 -0.67580992458E+02  0.15482198756E+03  0.16898789000E+03  0.41800000000E+01 0. -1.
        -11    1    1    2    0    0 -0.88502767305E+02  0.83612211911E+02  0.17718861582E+03  0.21498731911E+03  0.00000000000E+00 0.  1.
         11    1    1    2    0    0 -0.25661282293E+02 -0.15345985611E+02  0.11286320961E+03  0.11675660481E+03  0.00000000000E+00 0. -1.
</event>
<event>
 7    1  0.5109948E-006  0.7429897E+02  0.7561462E-02  0.1346056E+00
         -1   -1    0    0    0  501 -0.00000000000E+00  0.00000000000E+00  0.50232766965E+03  0.50232766965E+03  0.00000000000E+00 0.  1.
          1   -1    0    0  501    0  0.00000000000E+00 -0.00000000000E+00 -0.96158833313E+02  0.96158833313E+02  0.00000000000E+00 0. -1.
         23    2    1    2    0    0  0.67953416595E+01 -0.63543314438E+02  0.45713860864E+03  0.47478780493E+03  0.11119272782E+03 0.  0.
          5    1    3    3  502    0 -0.14403329536E+02 -0.58740623504E+02  0.99845356250E+02  0.11680960712E+03  0.41800000000E+01 0. -1.
         -5    1    3    3    0  502  0.21198671195E+02 -0.48026909342E+01  0.35729325239E+03  0.35797819781E+03  0.41800000000E+01 0.  1.
        -11    1    1    2    0    0 -0.84178237087E+01  0.14482924608E+02  0.26875748446E+02  0.31668923501E+02  0.00000000000E+00 0.  1.
         11    1    1    2    0    0  0.16224820491E+01  0.49060389830E+02 -0.77845520754E+02  0.92029774528E+02  0.00000000000E+00 0. -1.
</event>
<event>
 7    1  0.5109948E-006  0.1753987E+03  0.7561462E-02  0.1172332E+00
          1   -1    0    0  501    0  0.00000000000E+00  0.00000000000E+00  0.69002439725E+03  0.69002439725E+03  0.00000000000E+00 0. -1.
         -1   -1    0    0    0  501 -0.00000000000E+00 -0.00000000000E+00 -0.48692310449E+02  0.48692310449E+02  0.00000000000E+00 0.  1.
         23    2    1    2    0    0  0.14725300471E+03  0.30985116076E+02  0.31890446924E+03  0.37411211007E+03  0.12496513747E+03 0.  0.
          5    1    3    3  502    0  0.20881337470E+02 -0.43448628995E+02  0.90943834435E+02  0.10301488746E+03  0.41800000000E+01 0.  1.
         -5    1    3    3    0  502  0.12637166724E+03  0.74433745071E+02  0.22796063481E+03  0.27109722261E+03  0.41800000000E+01 0.  1.
        -11    1    1    2    0    0 -0.72974738655E+02 -0.35740752622E+02  0.93467100878E+02  0.12384996095E+03  0.00000000000E+00 0.  1.
         11    1    1    2    0    0 -0.74278266053E+02  0.47556365465E+01  0.22896051668E+03  0.24075463669E+03  0.00000000000E+00 0. -1.
</event>
<event>
 7    1  0.5109948E-006  0.1155413E+03  0.7561462E-02  0.1250639E+00
         -2   -1    0    0    0  501 -0.00000000000E+00  0.00000000000E+00  0.21276535247E+03  0.21276535247E+03  0.00000000000E+00 0.  1.
          2   -1    0    0  501    0  0.00000000000E+00 -0.00000000000E+00 -0.90604033665E+02  0.90604033665E+02  0.00000000000E+00 0. -1.
         23    2    1    2    0    0  0.61894718087E+02 -0.85688626089E+01  0.13261152166E+03  0.19271180534E+03  0.12509053804E+03 0.  0.
          5    1    3    3  502    0  0.83103321672E+02  0.27344455894E+02  0.12070899515E+03  0.14913757156E+03  0.41800000000E+01 0.  1.
         -5    1    3    3    0  502 -0.21208603585E+02 -0.35913318503E+02  0.11902526509E+02  0.43574233777E+02  0.41800000000E+01 0.  1.
        -11    1    1    2    0    0 -0.74830692341E+02 -0.13461383160E+02 -0.26464322503E+02  0.80505911077E+02  0.00000000000E+00 0. -1.
         11    1    1    2    0    0  0.12935974254E+02  0.22030245769E+02  0.16014119642E+02  0.30151669712E+02  0.00000000000E+00 0.  1.
</event>
<event>
 7    1  0.5109948E-006  0.7802334E+02  0.7561462E-02  0.1334756E+00
          3   -1    0    0  501    0  0.00000000000E+00  0.00000000000E+00  0.10030713442E+03  0.10030713442E+03  0.00000000000E+00 0. -1.
         -3   -1    0    0    0  501 -0.00000000000E+00 -0.00000000000E+00 -0.14089965807E+03  0.14089965807E+03  0.00000000000E+00 0.  1.
         23    2    1    2    0    0 -0.32075253322E+02 -0.12085454739E+02  0.11294161424E+02  0.13019615694E+03  0.12509436881E+03 0.  0.
          5    1    3    3  502    0 -0.24502221452E+02 -0.30997162417E+02 -0.50926416382E+02  0.64592222593E+02  0.41800000000E+01 0. -1.
         -5    1    3    3    0  502 -0.75730318706E+01  0.18911707678E+02  0.62220577806E+02  0.65603934345E+02  0.41800000000E+01 0. -1.
        -11    1    1    2    0    0 -0.30978288922E+02 -0.15125453008E+01 -0.53518198894E+01  0.31473546892E+02  0.00000000000E+00 0. -1.
         11    1    1    2    0    0  0.63053542244E+02  0.13598000040E+02 -0.46534865191E+02  0.79537088663E+02  0.00000000000E+00 0.  1.
</event>
<event>
 7    1  0.5179377E-006  0.2522649E+03  0.7561462E-02  0.1111882E+00
         -2   -1    0    0    0  501 -0.00000000000E+00  0.00000000000E+00  0.22866324914E+03  0.22866324914E+03  0.00000000000E+00 0.  1.
          2   -1    0    0  501    0  0.00000000000E+00 -0.00000000000E+00 -0.31875034672E+03  0.31875034672E+03  0.00000000000E+00 0. -1.
         23    2    1    2    0    0 -0.99835584435E+02 -0.22295066808E+03 -0.80427466812E+02  0.28598957998E+03  0.12508924065E+03 0.  0.
          5    1    3    3  502    0 -0.44387862319E+02 -0.65903006362E+02  0.31181627393E+02  0.85459082933E+02  0.41800000000E+01 0. -1.
         -5    1    3    3    0  502 -0.55447722116E+02 -0.15704766172E+03 -0.11160909421E+03  0.20053049705E+03  0.41800000000E+01 0. -1.
        -11    1    1    2    0    0 -0.46478640998E+01  0.85899821175E+02 -0.21532707806E+02  0.88679419394E+02  0.00000000000E+00 0.  1.
         11    1    1    2    0    0  0.10448344853E+03  0.13705084690E+03  0.11873077038E+02  0.17274459648E+03  0.00000000000E+00 0. -1.
</event>
<event>
 7    1  0.5109948E-006  0.1342933E+03  0.7561462E-02  0.1221221E+00
          2   -1    0    0  501    0  0.00000000000E+00  0.00000000000E+00  0.27217308234E+03  0.27217308234E+03  0.00000000000E+00 0. -1.
         -2   -1    0    0    0  501 -0.00000000000E+00 -0.00000000000E+00 -0.10861343483E+03  0.10861343483E+03  0.00000000000E+00 0.  1.
         23    2    1    2    0    0  0.69738426736E+02  0.11319363106E+03  0.98650410897E+02  0.20749534745E+03  0.12508464880E+03 0.  0.
          5    1    3    3  502    0  0.22102354024E+02  0.34243235058E+02  0.10723392341E+03  0.11479416331E+03  0.41800000000E+01 0.  1.
         -5    1    3    3    0  502  0.47636072713E+02  0.78950396005E+02 -0.85835125161E+01  0.92701184134E+02  0.41800000000E+01 0.  1.
        -11    1    1    2    0    0 -0.35872643984E+02 -0.35079612300E+02 -0.19096223124E+02  0.53685114540E+02  0.00000000000E+00 0.  1.
         11    1    1    2    0    0 -0.33865782752E+02 -0.78114018762E+02  0.84005459735E+02  0.11960605517E+03  0.00000000000E+00 0. -1.
</event>
<event>
 7    1  0.5109948E-006  0.8242625E+02  0.7561462E-02  0.1322304E+00
          1   -1    0    0  501    0  0.00000000000E+00  0.00000000000E+00  0.11108661477E+03  0.11108661477E+03  0.00000000000E+00 0. -1.
         -1   -1    0    0    0  501 -0.00000000000E+00 -0.00000000000E+00 -0.17968636730E+03  0.17968636730E+03  0.00000000000E+00 0.  1.
         23    2    1    2    0    0  0.22936802934E+02  0.30547281876E+01 -0.12761177694E+03  0.18018811717E+03  0.12509022209E+03 0.  0.
          5    1    3    3  502    0 -0.46963737288E+01  0.56976274144E+02 -0.95768020691E+02  0.11161244522E+03  0.41800000000E+01 0. -1.
         -5    1    3    3    0  502  0.27633176663E+02 -0.53921545956E+02 -0.31843756249E+02  0.68575671946E+02  0.41800000000E+01 0. -1.
        -11    1    1    2    0    0 -0.91643084101E+01  0.18828371227E+02  0.76536448761E+02  0.79349354759E+02  0.00000000000E+00 0. -1.
         11    1    1    2    0    0 -0.13772494524E+02 -0.21883099414E+02 -0.17524424349E+02  0.31235510147E+02  0.00000000000E+00 0.  1.
</event>
<event>
 7    1  0.5109948E-006  0.1306128E+03  0.7561462E-02  0.1226549E+00
          2   -1    0    0  501    0  0.00000000000E+00  0.00000000000E+00  0.15850808774E+03  0.15850808774E+03  0.00000000000E+00 0. -1.
         -2   -1    0    0    0  501 -0.00000000000E+00 -0.00000000000E+00 -0.20543160902E+03  0.20543160902E+03  0.00000000000E+00 0.  1.
         23    2    1    2    0    0  0.11563570964E+03  0.10281798443E+02 -0.11056580565E+03  0.20334471610E+03  0.12508774306E+03 0.  0.
          5    1    3    3  502    0  0.10836164170E+03 -0.22129895801E+02 -0.27875315054E+02  0.11413362024E+03  0.41800000000E+01 0. -1.
         -5    1    3    3    0  502  0.72740679345E+01  0.32411694244E+02 -0.82690490600E+02  0.89211095856E+02  0.41800000000E+01 0. -1.
        -11    1    1    2    0    0 -0.95845785739E+02 -0.14206944960E+02  0.86655527728E+02  0.12999012430E+03  0.00000000000E+00 0. -1.
         11    1    1    2    0    0 -0.19789923898E+02  0.39251465165E+01 -0.23013243361E+02  0.30604856364E+02  0.00000000000E+00 0.  1.
</event>
<event>
 7    1  0.5109948E-006  0.1358195E+03  0.7561462E-02  0.1219067E+00
         -2   -1    0    0    0  501 -0.00000000000E+00  0.00000000000E+00  0.36121409170E+02  0.36121409170E+02  0.00000000000E+00 0.  1.
          2   -1    0    0  501    0  0.00000000000E+00 -0.00000000000E+00 -0.55718905181E+03  0.55718905181E+03  0.00000000000E+00 0. -1.
         23    2    1    2    0    0 -0.40966734985E+02 -0.76963363033E+02 -0.22622849767E+03  0.27281531568E+03  0.12508889115E+03 0.  0.
          5    1    3    3  502    0  0.29353017285E+02 -0.72666539366E+02 -0.14753297638E+03  0.16710917715E+03  0.41800000000E+01 0. -1.
         -5    1    3    3    0  502 -0.70319752271E+02 -0.42968236673E+01 -0.78695521285E+02  0.10570613853E+03  0.41800000000E+01 0. -1.
        -11    1    1    2    0    0  0.16674063574E+02 -0.18014252079E+02 -0.34766833891E+02  0.42559022696E+02  0.00000000000E+00 0.  1.
         11    1    1    2    0    0  0.24292671411E+02  0.94977615112E+02 -0.26007231108E+03  0.27793612260E+03  0.00000000000E+00 0. -1.
</event>
<event>
 7    1  0.5109948E-006  0.1781823E+03  0.7561462E-02  0.1169574E+00
          1   -1    0    0  501    0  0.00000000000E+00  0.00000000000E+00  0.47196983837E+02  0.47196983837E+02  0.00000000000E+00 0. -1.
         -1   -1    0    0    0  501 -0.00000000000E+00 -0.00000000000E+00 -0.77870801809E+03  0.77870801809E+03  0.00000000000E+00 0.  1.
         23    2    1    2    0    0 -0.56896030762E+02 -0.13197636390E+03 -0.36301634319E+03  0.40997938808E+03  0.12508922529E+03 0.  0.
          5    1    3    3  502    0  0.29994005799E+02 -0.69319429051E+02 -0.95839910841E+02  0.12209661968E+03  0.41800000000E+01 0. -1.
         -5    1    3    3    0  502 -0.86890036561E+02 -0.62656934846E+02 -0.26717643235E+03  0.28788276840E+03  0.41800000000E+01 0. -1.
        -11    1    1    2    0    0 -0.20507363223E+02  0.74040145268E+02 -0.25754502692E+03  0.26875999693E+03  0.00000000000E+00 0.  1.
         11    1    1    2    0    0  0.77403393985E+02  0.57936218629E+02 -0.11094966414E+03  0.14716561691E+03  0.00000000000E+00 0. -1.
</event>
<event>
 7    1  0.5109948E-006  0.1192652E+03  0.7561462E-02  0.1244314E+00
         -2   -1    0    0    0  501 -0.00000000000E+00  0.00000000000E+00  0.30917173007E+03  0.30917173007E+03  0.00000000000E+00 0.  1.
          2   -1    0    0  501    0  0.00000000000E+00 -0.00000000000E+00 -0.53542523345E+02  0.53542523345E+02  0.00000000000E+00 0. -1.
         23    2    1    2    0    0  0.63335487932E+02  0.40556139486E+01  0.10403894216E+03  0.17464023553E+03  0.12508908164E+03 0.  0.
          5    1    3    3  502    0 -0.21853048297E+02  0.41384389938E+02  0.39113003213E+02  0.61135283354E+02  0.41800000000E+01 0.  1.
         -5    1    3    3    0  502  0.85188536229E+02 -0.37328775989E+02  0.64925938945E+02  0.11350495218E+03  0.41800000000E+01 0.  1.
        -11    1    1    2    0    0  0.15884571024E+02  0.88411404260E+01  0.74857145469E+02  0.77032964297E+02  0.00000000000E+00 0.  1.
         11    1    1    2    0    0 -0.79220058956E+02 -0.12896754375E+02  0.76733119099E+02  0.11104105358E+03  0.00000000000E+00 0. -1.
</event>
<event>
 7    1  0.5109948E-006  0.9020691E+02  0.7561462E-02  0.1302351E+00
          2   -1    0    0  501    0  0.00000000000E+00  0.00000000000E+00  0.39958819787E+02  0.39958819787E+02  0.00000000000E+00 0. -1.
         -2   -1    0    0    0  501 -0.00000000000E+00 -0.00000000000E+00 -0.32422455541E+03  0.32422455541E+03  0.00000000000E+00 0.  1.
         23    2    1    2    0    0 -0.26918413636E+02 -0.25613560255E+01 -0.12634508562E+03  0.17983863559E+03  0.12509073768E+03 0.  0.
          5    1    3    3  502    0  0.48632979597E+02  0.43248229829E+01 -0.69078815546E+02  0.84694899230E+02  0.41800000000E+01 0.  1.
         -5    1    3    3    0  502 -0.75551393233E+02 -0.68861790084E+01 -0.57266270075E+02  0.95143736362E+02  0.41800000000E+01 0.  1.
        -11    1    1    2    0    0  0.48002670339E+01 -0.21918876892E+02  0.58092380633E+00  0.22445872677E+02  0.00000000000E+00 0. -1.
         11    1    1    2    0    0  0.22118146602E+02  0.24480232917E+02 -0.15850157381E+03  0.16189886693E+03  0.00000000000E+00 0.  1.
</event>
<event>
 7    1  0.5109948E-006  0.1346523E+03  0.7561462E-02  0.1220711E+00
          1   -1    0    0  501    0  0.00000000000E+00  0.00000000000E+00  0.19801071012E+03  0.19801071012E+03  0.00000000000E+00 0. -1.
         -1   -1    0    0    0  501 -0.00000000000E+00 -0.00000000000E+00 -0.13280263361E+03  0.13280263361E+03  0.00000000000E+00 0.  1.
         23    2    1    2    0    0  0.11055541038E+03  0.17575173441E+02 -0.94755987618E+01  0.16813403331E+03  0.12509148932E+03 0.  0.
          5    1    3    3  502    0 -0.89968237386E+01 -0.25866362485E+02 -0.28157810352E+02  0.39501218075E+02  0.41800000000E+01 0. -1.
         -5    1    3    3    0  502  0.11955223412E+03  0.43441535926E+02  0.18682211590E+02  0.12863281524E+03  0.41800000000E+01 0. -1.
        -11    1    1    2    0    0 -0.32012494174E+02  0.54741252381E+01 -0.19511497158E+02  0.37887522375E+02  0.00000000000E+00 0.  1.
         11    1    1    2    0    0 -0.78542916204E+02 -0.23049298679E+02  0.94195172428E+02  0.12479178805E+03  0.00000000000E+00 0. -1.
</event>
<event>
 7    1  0.5109948E-006  0.1451400E+03  0.7561462E-02  0.1206575E+00
         -1   -1    0    0    0  501 -0.00000000000E+00  0.00000000000E+00  0.97083188267E+02  0.97083188267E+02  0.00000000000E+00 0.  1.
          1   -1    0    0  501    0  0.00000000000E+00 -0.00000000000E+00 -0.27498459645E+03  0.27498459645E+03  0.00000000000E+00 0. -1.
         23    2    1    2    0    0 -0.97569997862E+02  0.68965689941E+02 -0.12126153262E+03  0.21125310850E+03  0.12508935081E+03 0.  0.
          5    1    3    3  502    0 -0.10045735508E+03  0.87071883058E+02 -0.13379178659E+03  0.18865552620E+03  0.41800000000E+01 0. -1.
         -5    1    3    3    0  502  0.28873572179E+01 -0.18106193117E+02  0.12530253972E+02  0.22597582293E+02  0.41800000000E+01 0. -1.
        -11    1    1    2    0    0  0.79462987935E+02 -0.83486625273E+02 -0.69187743737E+02  0.13442963563E+03  0.00000000000E+00 0. -1.
         11    1    1    2    0    0  0.18107009927E+02  0.14520935333E+02  0.12547868171E+02  0.26385040593E+02  0.00000000000E+00 0.  1.
</event>
<event>
 7    1  0.5109948E-006  0.1531969E+03  0.7561462E-02  0.1196599E+00
          2   -1    0    0  501    0  0.00000000000E+00  0.00000000000E+00  0.44953727318E+03  0.44953727318E+03  0.00000000000E+00 0. -1.
         -2   -1    0    0    0  501 -0.00000000000E+00 -0.00000000000E+00 -0.58240968087E+02  0.58240968087E+02  0.00000000000E+00 0.  1.
         23    2    1    2    0    0 -0.15477447080E+02 -0.12007107258E+03  0.22600324955E+03  0.28527496359E+03  0.12509085581E+03 0.  0.
          5    1    3    3  502    0  0.47296007878E+02 -0.93602553017E+02  0.15064125674E+03  0.18359904935E+03  0.41800000000E+01 0.  1.
         -5    1    3    3    0  502 -0.62773454958E+02 -0.26468519567E+02  0.75361992813E+02  0.10167591424E+03  0.41800000000E+01 0.  1.
        -11    1    1    2    0    0 -0.20880610236E+02  0.51454913112E+02  0.12093152459E+03  0.13307156573E+03  0.00000000000E+00 0. -1.
         11    1    1    2    0    0  0.36358057316E+02  0.68616159473E+02  0.44361530959E+02  0.89431711946E+02  0.00000000000E+00 0.  1.
</event>
<event>
 7    1  0.5109948E-006  0.9398348E+02  0.7561462E-02  0.1293482E+00
         -1   -1    0    0    0  501 -0.00000000000E+00  0.00000000000E+00  0.35325364089E+02  0.35325364089E+02  0.00000000000E+00 0.  1.
          1   -1    0    0  501    0  0.00000000000E+00 -0.00000000000E+00 -0.35793434179E+03  0.35793434179E+03  0.00000000000E+00 0. -1.
         23    2    1    2    0    0  0.65109362727E+00  0.27544856263E+01 -0.14180008721E+03  0.18911247356E+03  0.12509297267E+03 0.  0.
          5    1    3    3  502    0  0.41939449212E+02 -0.24617262808E+02 -0.12209719482E+02  0.50313782190E+02  0.41800000000E+01 0. -1.
         -5    1    3    3    0  502 -0.41288355585E+02  0.27371748434E+02 -0.12959036772E+03  0.13879869137E+03  0.41800000000E+01 0. -1.
        -11    1    1    2    0    0  0.37149074046E+02 -0.25747865755E+02 -0.57484538040E+02  0.73126454906E+02  0.00000000000E+00 0.  1.
         11    1    1    2    0    0 -0.37800167673E+02  0.22993380129E+02 -0.12332435246E+03  0.13102077741E+03  0.00000000000E+00 0. -1.
</event>
<event>
 7    1  0.5109948E-006  0.1188076E+03  0.7561462E-02  0.1245077E+00
          2   -1    0    0  501    0  0.00000000000E+00  0.00000000000E+00  0.57516372550E+02  0.57516372550E+02  0.00000000000E+00 0. -1.
         -2   -1    0    0    0  501 -0.00000000000E+00 -0.00000000000E+00 -0.25722237108E+03  0.25722237108E+03  0.00000000000E+00 0.  1.
         23    2    1    2    0    0 -0.31399291864E+02 -0.43720039726E+02 -0.12652124008E+03  0.18588291332E+03  0.12508987118E+03 0.  0.
          5    1    3    3  502    0 -0.49160618665E+02  0.28783995982E+02 -0.78282912418E+02  0.96907025694E+02  0.41800000000E+01 0. -1.
         -5    1    3    3    0  502  0.17761326801E+02 -0.72504035709E+02 -0.48238327663E+02  0.88975887630E+02  0.41800000000E+01 0. -1.
        -11    1    1    2    0    0  0.72587674379E+01 -0.28589756928E+02 -0.25046825061E+02  0.38696348039E+02  0.00000000000E+00 0.  1.
         11    1    1    2    0    0  0.24140524426E+02  0.72309796655E+02 -0.48137933387E+02  0.90159482266E+02  0.00000000000E+00 0. -1.
</event>
<event>
 7    1  0.6178252E-006  0.9177829E+02  0.7561462E-02  0.1298602E+00
          2   -1    0    0  501    0  0.00000000000E+00  0.00000000000E+00  0.16424704372E+03  0.16424704372E+03  0.00000000000E+00 0. -1.
         -2   -1    0    0    0  501 -0.00000000000E+00 -0.00000000000E+00 -0.76953919949E+02  0.76953919949E+02  0.00000000000E+00 0.  1.
         23    2    1    2    0    0  0.78319814599E+01 -0.26470211964E+02  0.37060604162E+02  0.13335193582E+03  0.12508892178E+03 0.  0.
          5    1    3    3  502    0 -0.36324790660E+02  0.22352337295E+02 -0.18911744356E+02  0.46842756896E+02  0.41800000000E+01 0.  1.
         -5    1    3    3    0  502  0.44156772120E+02 -0.48822549259E+02  0.55972348518E+02  0.86509178928E+02  0.41800000000E+01 0.  1.
        -11    1    1    2    0    0 -0.34204731014E+02 -0.40038452079E+01 -0.95618645351E+01  0.35741063968E+02  0.00000000000E+00 0.  1.
         11    1    1    2    0    0  0.26372749554E+02  0.30474057172E+02  0.59794384148E+02  0.72107963882E+02  0.00000000000E+00 0. -1.
</event>
<event>
 7    1  0.5109948E-006  0.1307177E+03  0.7561462E-02  0.1226395E+00
         -1   -1    0    0    0  501 -0.00000000000E+00  0.00000000000E+00  0.47707701092E+02  0.47707701092E+02  0.00000000000E+00 0.  1.
          1   -1    0    0  501    0  0.00000000000E+00 -0.00000000000E+00 -0.47471221222E+03  0.47471221222E+03  0.00000000000E+00 0. -1.
         23    2    1    2    0    0  0.96869074055E+02 -0.16636768139E+02 -0.17167288845E+03  0.23404832850E+03  0.12508652958E+03 0.  0.
          5    1    3    3  502    0  0.40218248902E+02 -0.70073676744E+02 -0.81693262058E+02  0.11497429792E+03  0.41800000000E+01 0.  1.
         -5    1    3    3    0  502  0.56650825153E+02  0.53436908605E+02 -0.89979626395E+02  0.11907403058E+03  0.41800000000E+01 0.  1.
        -11    1    1    2    0    0 -0.48174004862E+02 -0.65364738838E+01 -0.31020891224E+02  0.57669367324E+02  0.00000000000E+00 0.  1.
         11    1    1    2    0    0 -0.48695069193E+02  0.23173242023E+02 -0.22431073145E+03  0.23070221748E+03  0.00000000000E+00 0. -1.
</event>
<event>
 7    1  0.5270228E-006  0.2136866E+03  0.7561462E-02  0.1138679E+00
          2   -1    0    0  501    0  0.00000000000E+00  0.00000000000E+00  0.18354698639E+04  0.18354698639E+04  0.00000000000E+00 0. -1.
         -2   -1    0    0    0  501 -0.00000000000E+00 -0.00000000000E+00 -0.28037888597E+02  0.28037888597E+02  0.00000000000E+00 0.  1.
         23    2    1    2    0    0  0.16968110425E+03 -0.95891968311E+02  0.77877404255E+03  0.81248024111E+03  0.12509271013E+03 0.  0.
          5    1    3    3  502    0  0.18655066691E+02 -0.63286383546E+02  0.13375670118E+03  0.14920289999E+03  0.41800000000E+01 0. -1.
         -5    1    3    3    0  502  0.15102603756E+03 -0.32605584765E+02  0.64501734137E+03  0.66327734112E+03  0.41800000000E+01 0. -1.
        -11    1    1    2    0    0 -0.26917201236E+01  0.25234102362E+02  0.54246559648E+02  0.59889018300E+02  0.00000000000E+00 0.  1.
         11    1    1    2    0    0 -0.16698938412E+03  0.70657865949E+02  0.97441137306E+03  0.99113849304E+03  0.00000000000E+00 0. -1.
</event>
<event>
 7    1  0.5109948E-006  0.1152523E+03  0.7561462E-02  0.1251141E+00
         -1   -1    0    0    0  501 -0.00000000000E+00  0.00000000000E+00  0.52233878772E+02  0.52233878772E+02  0.00000000000E+00 0.  1.
          1   -1    0    0  501    0  0.00000000000E+00 -0.00000000000E+00 -0.33348263055E+03  0.33348263055E+03  0.00000000000E+00 0. -1.
         23    2    1    2    0    0  0.75062972929E+02 -0.15649515842E+02 -0.14946444042E+03  0.20944575093E+03  0.12509415007E+03 0.  0.
          5    1    3    3  502    0 -0.17720944597E+02  0.27775617609E+02 -0.70294657258E+01  0.33947055827E+02  0.41800000000E+01 0.  1.
         -5    1    3    3    0  502  0.92783917526E+02 -0.43425133451E+02 -0.14243497469E+03  0.17549869510E+03  0.41800000000E+01 0.  1.
        -11    1    1    2    0    0 -0.13365869411E+01 -0.14900025020E+02  0.67356884140E+01  0.16406300883E+02  0.00000000000E+00 0.  1.
         11    1    1    2    0    0 -0.73726385988E+02  0.30549540862E+02 -0.13851999977E+03  0.15986445751E+03  0.00000000000E+00 0. -1.
</event>
<event>
 7    1  0.5109948E-006  0.1061654E+03  0.7561462E-02  0.1267840E+00
         -2   -1    0    0    0  501 -0.00000000000E+00  0.00000000000E+00  0.40774192060E+02  0.40774192060E+02  0.00000000000E+00 0.  1.
          2   -1    0    0  501    0  0.00000000000E+00 -0.00000000000E+00 -0.31097985266E+03  0.31097985266E+03  0.00000000000E+00 0. -1.
         23    2    1    2    0    0  0.21226354116E+02 -0.55633190773E+01 -0.13091926439E+03  0.18239871971E+03  0.12509168852E+03 0.  0.
          5    1    3    3  502    0  0.29116116966E+02  0.53712122082E+02 -0.93383537519E+02  0.11167227859E+03  0.41800000000E+01 0.  1.
         -5    1    3    3    0  502 -0.78897628502E+01 -0.59275441160E+02 -0.37535726870E+02  0.70726441125E+02  0.41800000000E+01 0.  1.
        -11    1    1    2    0    0 -0.28264396231E+02 -0.37810229915E+02 -0.99274173403E+02  0.10992657133E+03  0.00000000000E+00 0. -1.
         11    1    1    2    0    0  0.70380421147E+01  0.43373548992E+02 -0.40012222809E+02  0.59428753673E+02  0.00000000000E+00 0.  1.
</event>
<event>
 7    1  0.5109948E-006  0.1109207E+03  0.7561462E-02  0.1258874E+00
         -1   -1    0    0    0  501 -0.00000000000E+00  0.00000000000E+00  0.20332094714E+03  0.20332094714E+03  0.00000000000E+00 0.  1.
          1   -1    0    0  501    0  0.00000000000E+00 -0.00000000000E+00 -0.96618768721E+02  0.96618768721E+02  0.00000000000E+00 0. -1.
         23    2    1    2    0    0 -0.30043441752E+02 -0.59280955421E+02  0.11710139212E+03  0.18378654374E+03  0.12509163663E+03 0.  0.
          5    1    3    3  502    0 -0.24838532728E+02  0.21032580635E+02 -0.90955629803E+01  0.34051781483E+02  0.41800000000E+01 0. -1.
         -5    1    3    3    0  502 -0.52049090239E+01 -0.80313536056E+02  0.12619695510E+03  0.14973476226E+03  0.41800000000E+01 0. -1.
        -11    1    1    2    0    0  0.54919518063E+02  0.62672014754E+02 -0.25139350516E+02  0.87039771610E+02  0.00000000000E+00 0.  1.
         11    1    1    2    0    0 -0.24876076310E+02 -0.33910593333E+01  0.14740136817E+02  0.29113400512E+02  0.00000000000E+00 0. -1.
</event>
<event>
 7    1  0.5109948E-006  0.9807244E+02  0.7561462E-02  0.1284402E+00
         -2   -1    0    0    0  501 -0.00000000000E+00  0.00000000000E+00  0.61812651734E+03  0.61812651734E+03  0.00000000000E+00 0.  1.
          2   -1    0    0  501    0  0.00000000000E+00 -0.00000000000E+00 -0.29279827435E+02  0.29279827435E+02  0.00000000000E+00 0. -1.
         23    2    1    2    0    0 -0.80775923872E+01  0.66745626196E+02  0.43467346881E+03  0.45728378484E+03  0.12508880558E+03 0.  0.
          5    1    3    3  502    0  0.50762161939E+02  0.25714057829E+02  0.29217180426E+03  0.29769085552E+03  0.41800000000E+01 0. -1.
         -5    1    3    3    0  502 -0.58839754327E+02  0.41031568367E+02  0.14250166455E+03  0.15959292933E+03  0.41800000000E+01 0. -1.
        -11    1    1    2    0    0  0.25203187353E+01 -0.21401340493E+02 -0.69546374547E+01  0.22643682641E+02  0.00000000000E+00 0. -1.
         11    1    1    2    0    0  0.55572736520E+01 -0.45344285703E+02  0.16112785855E+03  0.16747887729E+03  0.00000000000E+00 0.  1.
</event>
<event>
 7    1  0.5109948E-006  0.1710090E+03  0.7561462E-02  0.1176800E+00
          1   -1    0    0  501    0  0.00000000000E+00  0.00000000000E+00  0.36749993159E+03  0.36749993159E+03  0.00000000000E+00 0. -1.
         -1   -1    0    0    0  501 -0.00000000000E+00 -0.00000000000E+00 -0.11166436948E+03  0.11166436948E+03  0.00000000000E+00 0.  1.
         23    2    1    2    0    0  0.11748358973E+03  0.12121042160E+03  0.10344434082E+03  0.23418584955E+03  0.12509164769E+03 0.  0.
          5    1    3    3  502    0  0.56026405400E+02  0.82110879067E+02  0.12343174380E+03  0.15853713238E+03  0.41800000000E+01 0.  1.
         -5    1    3    3    0  502  0.61457184335E+02  0.39099542531E+02 -0.19987402980E+02  0.75648717177E+02  0.41800000000E+01 0.  1.
        -11    1    1    2    0    0 -0.65238438149E+02 -0.78603986932E+02  0.32084003290E+02  0.10707018185E+03  0.00000000000E+00 0.  1.
         11    1    1    2    0    0 -0.52245151585E+02 -0.42606434667E+02  0.12030721800E+03  0.13790826966E+03  0.00000000000E+00 0. -1.
</event>
<event>
 7    1  0.5109948E-006  0.1048280E+03  0.7561462E-02  0.1270459E+00
          2   -1    0    0  501    0  0.00000000000E+00  0.00000000000E+00  0.59543453761E+03  0.59543453761E+03  0.00000000000E+00 0. -1.
         -2   -1    0    0    0  501 -0.00000000000E+00 -0.00000000000E+00 -0.27546011503E+02  0.27546011503E+02  0.00000000000E+00 0.  1.
         23    2    1    2    0    0 -0.55963360993E+02 -0.11652090655E+02  0.19600689002E+03  0.23944323185E+03  0.12508673531E+03 0.  0.
          5    1    3    3  502    0  0.28939888026E+02 -0.14465181914E+02  0.12332123522E+03  0.12756315324E+03  0.41800000000E+01 0. -1.
         -5    1    3    3    0  502 -0.84903249019E+02  0.28130912595E+01  0.72685654798E+02  0.11188007861E+03  0.41800000000E+01 0. -1.
        -11    1    1    2    0    0  0.34142803978E+02  0.42299022326E+02  0.25577503031E+03  0.26148767559E+03  0.00000000000E+00 0. -1.
         11    1    1    2    0    0  0.21820557014E+02 -0.30646931671E+02  0.11610660577E+03  0.12204964168E+03  0.00000000000E+00 0.  1.
</event>
<event>
 7    1  0.5109948E-006  0.9519519E+02  0.7561462E-02  0.1290737E+00
          1   -1    0    0  501    0  0.00000000000E+00  0.00000000000E+00  0.83410811429E+02  0.83410811429E+02  0.00000000000E+00 0. -1.
         -1   -1    0    0    0  501 -0.00000000000E+00 -0.00000000000E+00 -0.14722903302E+03  0.14722903302E+03  0.00000000000E+00 0.  1.
         23    2    1    2    0    0 -0.24572300362E+02  0.15891050298E+02 -0.41967482423E+02  0.13515085957E+03  0.12509261304E+03 0.  0.
          5    1    3    3  502    0  0.16354302164E+02  0.45488790758E+02 -0.63644038066E+02  0.80029552449E+02  0.41800000000E+01 0. -1.
         -5    1    3    3    0  502 -0.40926602527E+02 -0.29597740460E+02  0.21676555642E+02  0.55121307125E+02  0.41800000000E+01 0. -1.
        -11    1    1    2    0    0  0.37677472457E+02 -0.45343179981E+02 -0.22874875055E+02  0.63236506942E+02  0.00000000000E+00 0. -1.
         11    1    1    2    0    0 -0.13105172095E+02  0.29452129683E+02  0.10241358858E+01  0.32252477933E+02  0.00000000000E+00 0.  1.
</event>
<event>
 7    1  0.5109948E-006  0.1064102E+03  0.7561462E-02  0.1267366E+00
         -2   -1    0    0    0  501 -0.00000000000E+00  0.00000000000E+00  0.19529673687E+03  0.19529673687E+03  0.00000000000E+00 0. -1.
          2   -1    0    0  501    0  0.00000000000E+00 -0.00000000000E+00 -0.11672976376E+03  0.11672976376E+03  0.00000000000E+00 0.  1.
         23    2    1    2    0    0 -0.47230637681E+02 -0.22366066126E+02  0.13651100292E+03  0.19238712883E+03  0.12508628770E+03 0.  0.
          5    1    3    3  502    0 -0.87452745614E+02 -0.11745834762E+02  0.65460369739E+02  0.10994762278E+03  0.41800000000E+01 0.  1.
         -5    1    3    3    0  502  0.40222107933E+02 -0.10620231364E+02  0.71050633185E+02  0.82439506044E+02  0.41800000000E+01 0.  1.
        -11    1    1    2    0    0  0.24112500081E+02 -0.22003091600E+02 -0.61349156684E+02  0.69492932921E+02  0.00000000000E+00 0.  1.
         11    1    1    2    0    0  0.23118137600E+02  0.44369157726E+02  0.34051268707E+01  0.50146438881E+02  0.00000000000E+00 0. -1.
</event>
<event>
 7    1  0.5109948E-006  0.1657671E+03  0.7561462E-02  0.1182335E+00
         -1   -1    0    0    0  501 -0.00000000000E+00  0.00000000000E+00  0.28602542126E+02  0.28602542126E+02  0.00000000000E+00 0.  1.
          1   -1    0    0  501    0  0.00000000000E+00 -0.00000000000E+00 -0.11419596099E+04  0.11419596099E+04  0.00000000000E+00 0. -1.
         23    2    1    2    0    0  0.49308015079E+02 -0.13398367736E+03 -0.56732572959E+03  0.59823872287E+03  0.12509268538E+03 0.  0.
          5    1    3    3  502    0  0.33605143447E+02 -0.97980785517E+01 -0.31057364406E+03  0.31256802267E+03  0.41800000000E+01 0. -1.
         -5    1    3    3    0  502  0.15702871633E+02 -0.12418559881E+03 -0.25675208553E+03  0.28567070020E+03  0.41800000000E+01 0. -1.
        -11    1    1    2    0    0 -0.66064758045E+02  0.43697240501E+02 -0.23257219963E+03  0.24569051493E+03  0.00000000000E+00 0. -1.
         11    1    1    2    0    0  0.16756742966E+02  0.90286436864E+02 -0.31345913852E+03  0.32663291420E+03  0.00000000000E+00 0.  1.
</event>
<event>
 7    1  0.5109948E-006  0.1773587E+03  0.7561462E-02  0.1170384E+00
         -1   -1    0    0    0  501 -0.00000000000E+00  0.00000000000E+00  0.28303721176E+03  0.28303721176E+03  0.00000000000E+00 0.  1.
          1   -1    0    0  501    0  0.00000000000E+00 -0.00000000000E+00 -0.11426576091E+03  0.11426576091E+03  0.00000000000E+00 0. -1.
         23    2    1    2    0    0  0.54287636460E+02  0.13188317242E+03  0.84096734028E+02  0.20750679748E+03  0.12508593721E+03 0.  0.
          5    1    3    3  502    0 -0.24480793604E+02  0.94611236233E+02  0.67115145250E+02  0.11862761230E+03  0.41800000000E+01 0.  1.
         -5    1    3    3    0  502  0.78768430064E+02  0.37271936188E+02  0.16981588778E+02  0.88879185186E+02  0.41800000000E+01 0.  1.
        -11    1    1    2    0    0  0.48955586953E+01 -0.10421126471E+03  0.47541706532E+02  0.11464801807E+03  0.00000000000E+00 0. -1.
         11    1    1    2    0    0 -0.59183195155E+02 -0.27671907710E+02  0.37133010286E+02  0.75148157117E+02  0.00000000000E+00 0.  1.
</event>
<event>
 7    1  0.5109948E-006  0.1755480E+03  0.7561462E-02  0.1172183E+00
          2   -1    0    0  501    0  0.00000000000E+00  0.00000000000E+00  0.76278891079E+03  0.76278891079E+03  0.00000000000E+00 0. -1.
         -2   -1    0    0    0  501 -0.00000000000E+00 -0.00000000000E+00 -0.82366495818E+02  0.82366495818E+02  0.00000000000E+00 0.  1.
         23    2    1    2    0    0  0.23524856152E+02  0.14225522153E+03  0.59566149621E+02  0.19996474760E+03  0.12509119549E+03 0.  0.
          5    1    3    3  502    0  0.58942397298E+02  0.12355256818E+03  0.75815047230E+02  0.15654020918E+03  0.41800000000E+01 0. -1.
         -5    1    3    3    0  502 -0.35417541146E+02  0.18702653353E+02 -0.16248897609E+02  0.43424538418E+02  0.41800000000E+01 0. -1.
        -11    1    1    2    0    0 -0.54921137176E+01 -0.15285445400E+03  0.51264044431E+03  0.53497184278E+03  0.00000000000E+00 0.  1.
         11    1    1    2    0    0 -0.18032742435E+02  0.10599232467E+02  0.10821582104E+03  0.11021881623E+03  0.00000000000E+00 0. -1.
</event>
<event>
 7    1  0.5109948E-006  0.1124338E+03  0.7561462E-02  0.1256128E+00
          1   -1    0    0  501    0  0.00000000000E+00  0.00000000000E+00  0.39376006616E+03  0.39376006616E+03  0.00000000000E+00 0. -1.
         -1   -1    0    0    0  501 -0.00000000000E+00 -0.00000000000E+00 -0.43527060825E+02  0.43527060825E+02  0.00000000000E+00 0.  1.
         23    2    1    2    0    0  0.70487391363E+02  0.45355002762E+01  0.16735319212E+03  0.22054956257E+03  0.12508387400E+03 0.  0.
          5    1    3    3  502    0  0.43636333703E+01 -0.47810449187E+02  0.10516771217E+03  0.11568318992E+03  0.41800000000E+01 0. -1.
         -5    1    3    3    0  502  0.66123757993E+02  0.52345949463E+02  0.62185479948E+02  0.10486637265E+03  0.41800000000E+01 0. -1.
        -11    1    1    2    0    0 -0.46557557647E+01 -0.23318867542E+02  0.26286863760E+01  0.23923955301E+02  0.00000000000E+00 0.  1.
         11    1    1    2    0    0 -0.65831635599E+02  0.18783367266E+02  0.18025112684E+03  0.19281360911E+03  0.00000000000E+00 0. -1.
</event>
<event>
 7    1  0.5109948E-006  0.1531031E+03  0.7561462E-02  0.1196711E+00
         -2   -1    0    0    0  501 -0.00000000000E+00  0.00000000000E+00  0.33855396460E+02  0.33855396460E+02  0.00000000000E+00 0.  1.
          2   -1    0    0  501    0  0.00000000000E+00 -0.00000000000E+00 -0.72160477389E+03  0.72160477389E+03  0.00000000000E+00 0. -1.
         23    2    1    2    0    0  0.92521525579E+02  0.61871768828E+02 -0.33968862357E+03  0.37871371990E+03  0.12508945672E+03 0.  0.
          5    1    3    3  502    0 -0.31306839137E+02  0.10762699835E+02 -0.64287196868E+02  0.72431139474E+02  0.41800000000E+01 0. -1.
         -5    1    3    3    0  502  0.12382836472E+03  0.51109068993E+02 -0.27540142670E+03  0.30628258042E+03  0.41800000000E+01 0. -1.
        -11    1    1    2    0    0 -0.39572109856E+02  0.17605346634E+02 -0.65868273957E+02  0.78832287945E+02  0.00000000000E+00 0.  1.
         11    1    1    2    0    0 -0.52949415723E+02 -0.79477115462E+02 -0.28219247990E+03  0.29791416251E+03  0.00000000000E+00 0. -1.
</event>
<event>
 7    1  0.5109948E-006  0.8091984E+02  0.7561462E-02  0.1326461E+00
         -1   -1    0    0    0  501 -0.00000000000E+00  0.00000000000E+00  0.19880522726E+02  0.19880522726E+02  0.00000000000E+00 0.  1.
          1   -1    0    0  501    0  0.00000000000E+00 -0.00000000000E+00 -0.66742489844E+03  0.66742489844E+03  0.00000000000E+00 0. -1.
         23    2    1    2    0    0  0.32371102629E+02 -0.14994804956E+02 -0.30669542624E+03  0.33314009482E+03  0.12508999094E+03 0.  0.
          5    1    3    3  502    0  0.49282201848E+02 -0.27638770818E+02 -0.50064264509E+02  0.75607804175E+02  0.41800000000E+01 0. -1.
         -5    1    3    3    0  502 -0.16911099219E+02  0.12643965861E+02 -0.25663116174E+03  0.25753229064E+03  0.41800000000E+01 0. -1.
        -11    1    1    2    0    0 -0.28305517558E+02  0.45117198628E+02 -0.29058361503E+03  0.29542444256E+03  0.00000000000E+00 0. -1.
         11    1    1    2    0    0 -0.40655850710E+01 -0.30122393672E+02 -0.50265334444E+02  0.58740883797E+02  0.00000000000E+00 0.  1.
</event>
<event>
 7    1  0.5109948E-006  0.1042185E+03  0.7561462E-02  0.1271667E+00
          1   -1    0    0  501    0  0.00000000000E+00  0.00000000000E+00  0.75614427756E+03  0.75614427756E+03  0.00000000000E+00 0. -1.
         -1   -1    0    0    0  501 -0.00000000000E+00 -0.00000000000E+00 -0.28107724571E+02  0.28107724571E+02  0.00000000000E+00 0.  1.
         23    2    1    2    0    0  0.12673171973E+02  0.87685942410E+02  0.28683319167E+03  0.32522384944E+03  0.12509132113E+03 0.  0.
          5    1    3    3  502    0 -0.14654782553E+02  0.35408953561E+02  0.69615257083E+01  0.39172590981E+02  0.41800000000E+01 0. -1.
         -5    1    3    3    0  502  0.27327954525E+02  0.52276988849E+02  0.27987166596E+03  0.28605125846E+03  0.41800000000E+01 0. -1.
        -11    1    1    2    0    0  0.27362720762E+02 -0.30945088718E+02  0.69141016356E+02  0.80540655237E+02  0.00000000000E+00 0.  1.
         11    1    1    2    0    0 -0.40035892735E+02 -0.56740853692E+02  0.37206234497E+03  0.37848749745E+03  0.00000000000E+00 0. -1.
</event>
<event>
 7    1  0.5109948E-006  0.1056653E+03  0.7561462E-02  0.1268814E+00
         -2   -1    0    0    0  501 -0.00000000000E+00  0.00000000000E+00  0.21646615530E+02  0.21646615530E+02  0.00000000000E+00 0.  1.
          2   -1    0    0  501    0  0.00000000000E+00 -0.00000000000E+00 -0.87888880443E+03  0.87888880443E+03  0.00000000000E+00 0. -1.
         23    2    1    2    0    0  0.73101684656E+02 -0.46919948785E+02 -0.45292003861E+03  0.47782546793E+03  0.12504110736E+03 0.  0.
          5    1    3    3  502    0  0.41909919039E+02 -0.19419262558E+02 -0.42509306493E+03  0.42761563971E+03  0.41800000000E+01 0.  1.
         -5    1    3    3    0  502  0.31191765617E+02 -0.27500686227E+02 -0.27826973681E+02  0.50209828216E+02  0.41800000000E+01 0.  1.
        -11    1    1    2    0    0 -0.29254299342E+01 -0.23535266470E+02 -0.86672458958E+02  0.89858678211E+02  0.00000000000E+00 0.  1.
         11    1    1    2    0    0 -0.70176254722E+02  0.70455215255E+02 -0.31764969133E+03  0.33285127382E+03  0.00000000000E+00 0. -1.
</event>
<event>
 7    1  0.5109948E-006  0.1247161E+03  0.7561462E-02  0.1235514E+00
          1   -1    0    0  501    0  0.00000000000E+00  0.00000000000E+00  0.41392495153E+03  0.41392495153E+03  0.00000000000E+00 0. -1.
         -1   -1    0    0    0  501 -0.00000000000E+00 -0.00000000000E+00 -0.54638652453E+02  0.54638652453E+02  0.00000000000E+00 0.  1.
         23    2    1    2    0    0  0.16073787551E+02 -0.75215061999E+02  0.86275320154E+02  0.17031291584E+03  0.12508951289E+03 0.  0.
          5    1    3    3  502    0 -0.43603015441E+02 -0.46836357010E+02  0.33757149509E+01  0.64216315255E+02  0.41800000000E+01 0.  1.
         -5    1    3    3    0  502  0.59676802992E+02 -0.28378704990E+02  0.82899605203E+02  0.10609660058E+03  0.41800000000E+01 0.  1.
        -11    1    1    2    0    0  0.30522449864E+02  0.64385248971E+02  0.18160313648E+03  0.19508146865E+03  0.00000000000E+00 0. -1.
         11    1    1    2    0    0 -0.46596237415E+02  0.10829813029E+02  0.91407842439E+02  0.10316921949E+03  0.00000000000E+00 0.  1.
</event>
<event>
 7    1  0.5109948E-006  0.1226845E+03  0.7561462E-02  0.1238733E+00
         -2   -1    0    0    0  501 -0.00000000000E+00  0.00000000000E+00  0.50202445173E+02  0.50202445173E+02  0.00000000000E+00 0.  1.
          2   -1    0    0  501    0  0.00000000000E+00 -0.00000000000E+00 -0.48625901166E+03  0.48625901166E+03  0.00000000000E+00 0. -1.
         23    2    1    2    0    0 -0.13715035917E+02  0.69448275306E+02 -0.64371916671E+02  0.14694518605E+03  0.11152568715E+03 0.  0.
          5    1    3    3  502    0  0.23704412510E+02  0.86837652784E+02 -0.49985295531E+02  0.10304697610E+03  0.41800000000E+01 0. -1.
         -5    1    3    3    0  502 -0.37419448426E+02 -0.17389377478E+02 -0.14386621141E+02  0.43898209957E+02  0.41800000000E+01 0.  1.
        -11    1    1    2    0    0 -0.26322839463E+02 -0.68883388394E+02 -0.27840467043E+03  0.28800516244E+03  0.00000000000E+00 0.  1.
         11    1    1    2    0    0  0.40037875380E+02 -0.56488691158E+00 -0.93279979387E+02  0.10151110834E+03  0.00000000000E+00 0. -1.
</event>
<event>
 7    1  0.5109948E-006  0.1226277E+03  0.7561462E-02  0.1238824E+00
          1   -1    0    0  501    0  0.00000000000E+00  0.00000000000E+00  0.38658515034E+03  0.38658515034E+03  0.00000000000E+00 0. -1.
         -1   -1    0    0    0  501 -0.00000000000E+00 -0.00000000000E+00 -0.51915235821E+02  0.51915235821E+02  0.00000000000E+00 0.  1.
         23    2    1    2    0    0 -0.39781782690E+02  0.71875074719E+02  0.12169930928E+03  0.19289005940E+03  0.12508891452E+03 0.  0.
          5    1    3    3  502    0  0.44115853633E+02  0.10780553871E+02  0.41509629216E+02  0.61668067922E+02  0.41800000000E+01 0.  1.
         -5    1    3    3    0  502 -0.83897636324E+02  0.61094520848E+02  0.80189680066E+02  0.13122199148E+03  0.41800000000E+01 0.  1.
        -11    1    1    2    0    0  0.10541724216E+02 -0.64858976605E+02  0.57678001108E+02  0.87433212268E+02  0.00000000000E+00 0.  1.
         11    1    1    2    0    0  0.29240058475E+02 -0.70160981132E+01  0.15529260413E+03  0.15817711450E+03  0.00000000000E+00 0. -1.
</event>
<event>
 7    1  0.5109948E-006  0.1524921E+03  0.7561462E-02  0.1197444E+00
         -1   -1    0    0    0  501 -0.00000000000E+00  0.00000000000E+00  0.19257900826E+03  0.19257900826E+03  0.00000000000E+00 0.  1.
          1   -1    0    0  501    0  0.00000000000E+00 -0.00000000000E+00 -0.17483641759E+03  0.17483641759E+03  0.00000000000E+00 0. -1.
         23    2    1    2    0    0 -0.80180292395E+02  0.10995094230E+03  0.63545861995E+02  0.19545772846E+03  0.12509019960E+03 0.  0.
          5    1    3    3  502    0 -0.42790388807E+02  0.11830369161E+03  0.84484760633E+02  0.15159791556E+03  0.41800000000E+01 0.  1.
         -5    1    3    3    0  502 -0.37389903589E+02 -0.83527493096E+01 -0.20938898638E+02  0.43859812900E+02  0.41800000000E+01 0.  1.
        -11    1    1    2    0    0  0.34234604730E+02 -0.76275876473E+02  0.18936451812E+02  0.85724014721E+02  0.00000000000E+00 0.  1.
         11    1    1    2    0    0  0.45945687666E+02 -0.33675065828E+02 -0.64739723140E+02  0.86233682664E+02  0.00000000000E+00 0. -1.
</event>
<event>
 7    1  0.5109948E-006  0.1062653E+03  0.7561462E-02  0.1267647E+00
         -1   -1    0    0    0  501 -0.00000000000E+00  0.00000000000E+00  0.11731668339E+03  0.11731668339E+03  0.00000000000E+00 0.  1.
          1   -1    0    0  501    0  0.00000000000E+00 -0.00000000000E+00 -0.14586052617E+03  0.14586052617E+03  0.00000000000E+00 0. -1.
         23    2    1    2    0    0 -0.55901696674E+02  0.45765651005E+02 -0.88989881132E+01  0.14472720590E+03  0.12508907880E+03 0.  0.
          5    1    3    3  502    0  0.23470296128E+02 -0.98820653768E+01 -0.35715644605E+02  0.44063473376E+02  0.41800000000E+01 0. -1.
         -5    1    3    3    0  502 -0.79371992802E+02  0.55647716382E+02  0.26816656491E+02  0.10066373252E+03  0.41800000000E+01 0. -1.
        -11    1    1    2    0    0  0.53801082449E+02 -0.56934459406E+02 -0.45230602764E+02  0.90453836662E+02  0.00000000000E+00 0. -1.
         11    1    1    2    0    0  0.21006142252E+01  0.11168808401E+02  0.25585748092E+02  0.27996166999E+02  0.00000000000E+00 0.  1.
</event>
<event>
 7    1  0.5109948E-006  0.1842541E+03  0.7561462E-02  0.1163748E+00
         -1   -1    0    0    0  501 -0.00000000000E+00  0.00000000000E+00  0.11826446593E+03  0.11826446593E+03  0.00000000000E+00 0.  1.
          1   -1    0    0  501    0  0.00000000000E+00 -0.00000000000E+00 -0.43556941043E+03  0.43556941043E+03  0.00000000000E+00 0. -1.
         23    2    1    2    0    0  0.16319442263E+03  0.65802842309E+02 -0.37615031232E+02  0.21914561491E+03  0.12508987299E+03 0.  0.
          5    1    3    3  502    0  0.14083703138E+03  0.82938690634E+02 -0.68382649343E+02  0.17722176769E+03  0.41800000000E+01 0.  1.
         -5    1    3    3    0  502  0.22357391253E+02 -0.17135848325E+02  0.30767618111E+02  0.41923847220E+02  0.41800000000E+01 0.  1.
        -11    1    1    2    0    0 -0.13226927866E+03 -0.59190711986E+02 -0.18587539850E+03  0.23568700904E+03  0.00000000000E+00 0.  1.
         11    1    1    2    0    0 -0.30925143968E+02 -0.66121303231E+01 -0.93814514769E+02  0.99001252407E+02  0.00000000000E+00 0. -1.
</event>
<event>
 7    1  0.5109948E-006  0.8642347E+02  0.7561462E-02  0.1311751E+00
         -1   -1    0    0    0  501 -0.00000000000E+00  0.00000000000E+00  0.33846613787E+02  0.33846613787E+02  0.00000000000E+00 0.  1.
          1   -1    0    0  501    0  0.00000000000E+00 -0.00000000000E+00 -0.52131518938E+03  0.52131518938E+03  0.00000000000E+00 0. -1.
         23    2    1    2    0    0  0.74703725431E+02  0.21281921385E+02 -0.26480335384E+03  0.30298787148E+03  0.12508903745E+03 0.  0.
          5    1    3    3  502    0  0.26053988989E+02  0.32929430704E+02 -0.10106091184E+02  0.43390819625E+02  0.41800000000E+01 0.  1.
         -5    1    3    3    0  502  0.48649736442E+02 -0.11647509320E+02 -0.25469726265E+03  0.25959705185E+03  0.41800000000E+01 0.  1.
        -11    1    1    2    0    0 -0.33419881959E+02 -0.20406118752E+02 -0.20244262737E+03  0.20619484855E+03  0.00000000000E+00 0. -1.
         11    1    1    2    0    0 -0.41283843472E+02 -0.87580263272E+00 -0.20222594384E+02  0.45979083132E+02  0.00000000000E+00 0.  1.
</event>
<event>
 7    1  0.5109948E-006  0.1211458E+03  0.7561462E-02  0.1241219E+00
         -4   -1    0    0    0  501 -0.00000000000E+00  0.00000000000E+00  0.35148737573E+02  0.35148737573E+02  0.00000000000E+00 0.  1.
          4   -1    0    0  501    0  0.00000000000E+00 -0.00000000000E+00 -0.68420679357E+03  0.68420679357E+03  0.00000000000E+00 0. -1.
         23    2    1    2    0    0 -0.41438930545E+02 -0.43014627597E+02 -0.13236555923E+03  0.19166576535E+03  0.12509069184E+03 0.  0.
          5    1    3    3  502    0 -0.24433589219E+02 -0.87422964034E+02 -0.88018545703E+02  0.12650893925E+03  0.41800000000E+01 0.  1.
         -5    1    3    3    0  502 -0.17005341326E+02  0.44408336438E+02 -0.44347013523E+02  0.65156826098E+02  0.41800000000E+01 0.  1.
        -11    1    1    2    0    0 -0.13825939060E+02 -0.17125130999E+02 -0.63759646359E+02  0.67451606403E+02  0.00000000000E+00 0.  1.
         11    1    1    2    0    0  0.55264869605E+02  0.60139758595E+02 -0.45293285042E+03  0.46023815939E+03  0.00000000000E+00 0. -1.
</event>
<event>
 7    1  0.5109948E-006  0.1038247E+03  0.7561462E-02  0.1272453E+00
         -2   -1    0    0    0  501 -0.00000000000E+00  0.00000000000E+00  0.60794387346E+02  0.60794387346E+02  0.00000000000E+00 0. -1.
          2   -1    0    0  501    0  0.00000000000E+00 -0.00000000000E+00 -0.32850005362E+03  0.32850005362E+03  0.00000000000E+00 0.  1.
         23    2    1    2    0    0  0.10977404248E+02 -0.48756656346E+02 -0.53868373915E+02  0.14507688004E+03  0.12509110469E+03 0.  0.
          5    1    3    3  502    0 -0.56221153347E+01  0.40100244716E+02 -0.19593955431E+01  0.40754747430E+02  0.41800000000E+01 0.  1.
         -5    1    3    3    0  502  0.16599519582E+02 -0.88856901062E+02 -0.51908978372E+02  0.10432213261E+03  0.41800000000E+01 0.  1.
        -11    1    1    2    0    0 -0.14503458030E+02 -0.99821535735E+01  0.44314782188E+01  0.18155761730E+02  0.00000000000E+00 0. -1.
         11    1    1    2    0    0  0.35260537823E+01  0.58738809919E+02 -0.21826877058E+03  0.22606179920E+03  0.00000000000E+00 0.  1.
</event>
<event>
 7    1  0.5109948E-006  0.1171478E+03  0.7561462E-02  0.1247878E+00
         -1   -1    0    0    0  501 -0.00000000000E+00  0.00000000000E+00  0.26352514912E+03  0.26352514912E+03  0.00000000000E+00 0.  1.
          1   -1    0    0  501    0  0.00000000000E+00 -0.00000000000E+00 -0.83024271676E+02  0.83024271676E+02  0.00000000000E+00 0. -1.
         23    2    1    2    0    0 -0.39798819401E+02 -0.85341377857E+02  0.12908337894E+03  0.20292192675E+03  0.12509073842E+03 0.  0.
          5    1    3    3  502    0 -0.57438606918E+00 -0.48585141972E+02 -0.13402405331E+02  0.50576109068E+02  0.41800000000E+01 0.  1.
         -5    1    3    3    0  502 -0.39224433332E+02 -0.36756235885E+02  0.14248578427E+03  0.15234581768E+03  0.41800000000E+01 0.  1.
        -11    1    1    2    0    0  0.69994535671E+02  0.59450158644E+02  0.48216956242E+02  0.10372285792E+03  0.00000000000E+00 0.  1.
         11    1    1    2    0    0 -0.30195716270E+02  0.25891219212E+02  0.32005422662E+01  0.39904636123E+02  0.00000000000E+00 0. -1.
</event>
<event>
 7    1  0.5109948E-006  0.1125897E+03  0.7561462E-02  0.1255848E+00
          2   -1    0    0  501    0  0.00000000000E+00  0.00000000000E+00  0.52329140733E+03  0.52329140733E+03  0.00000000000E+00 0. -1.
         -2   -1    0    0    0  501 -0.00000000000E+00 -0.00000000000E+00 -0.34247798940E+02  0.34247798940E+02  0.00000000000E+00 0.  1.
         23    2    1    2    0    0 -0.31633278791E+02 -0.56830509798E+02  0.18484101950E+03  0.23247179941E+03  0.12508622569E+03 0.  0.
          5    1    3    3  502    0 -0.32628934974E+02  0.20738223714E+02  0.85409345931E+01  0.39813832823E+02  0.41800000000E+01 0.  1.
         -5    1    3    3    0  502  0.99565618288E+00 -0.77568733512E+02  0.17630008491E+03  0.19265796658E+03  0.41800000000E+01 0.  1.
        -11    1    1    2    0    0  0.50273563232E+02  0.15840470298E+01  0.90333752785E+02  0.10339307161E+03  0.00000000000E+00 0.  1.
         11    1    1    2    0    0 -0.18640284441E+02  0.55246462768E+02  0.21386883611E+03  0.22167433525E+03  0.00000000000E+00 0. -1.
</event>
<event>
 7    1  0.5109948E-006  0.9754722E+02  0.7561462E-02  0.1285540E+00
          1   -1    0    0  501    0  0.00000000000E+00  0.00000000000E+00  0.52757006133E+03  0.52757006133E+03  0.00000000000E+00 0. -1.
         -1   -1    0    0    0  501 -0.00000000000E+00 -0.00000000000E+00 -0.22060258289E+02  0.22060258289E+02  0.00000000000E+00 0.  1.
         23    2    1    2    0    0  0.11450353676E+02 -0.19642562854E+02  0.19815376590E+03  0.22803195075E+03  0.11052924839E+03 0.  0.
          5    1    3    3  502    0  0.10044176883E+02 -0.60893207515E+02  0.16049535430E+03  0.17200319579E+03  0.41800000000E+01 0. -1.
         -5    1    3    3    0  502  0.14061767933E+01  0.41250644661E+02  0.37658411600E+02  0.56028754961E+02  0.41800000000E+01 0.  1.
        -11    1    1    2    0    0 -0.78088432298E+01 -0.35570859829E+02  0.16256890893E+03  0.16659806197E+03  0.00000000000E+00 0. -1.
         11    1    1    2    0    0 -0.36415104460E+01  0.55213422683E+02  0.14478712821E+03  0.15500030690E+03  0.00000000000E+00 0.  1.
</event>
<event>
 7    1  0.5109948E-006  0.1983929E+03  0.7561462E-02  0.1151102E+00
         -2   -1    0    0    0  501 -0.00000000000E+00  0.00000000000E+00  0.12478196362E+03  0.12478196362E+03  0.00000000000E+00 0. -1.
          2   -1    0    0  501    0  0.00000000000E+00 -0.00000000000E+00 -0.46324783271E+03  0.46324783271E+03  0.00000000000E+00 0.  1.
         23    2    1    2    0    0 -0.17233865034E+03 -0.58174589755E+01 -0.18671918518E+02  0.21378161551E+03  0.12497793950E+03 0.  0.
          5    1    3    3  502    0 -0.22296812291E+02  0.39744927865E+02 -0.32770228016E+02  0.56286475938E+02  0.41800000000E+01 0. -1.
         -5    1    3    3    0  502 -0.15004183805E+03 -0.45562386840E+02  0.14098309497E+02  0.15749513958E+03  0.41800000000E+01 0. -1.
        -11    1    1    2    0    0  0.12950218708E+02 -0.28334305185E+02 -0.58500291838E+02  0.66278391351E+02  0.00000000000E+00 0.  1.
         11    1    1    2    0    0  0.15938843163E+03  0.34151764161E+02 -0.26129365873E+03  0.30796978947E+03  0.00000000000E+00 0. -1.
</event>
<event>
 7    1  0.5109948E-006  0.1114096E+03  0.7561462E-02  0.1257982E+00
         -1   -1    0    0    0  501 -0.00000000000E+00  0.00000000000E+00  0.14556225115E+03  0.14556225115E+03  0.00000000000E+00 0.  1.
          1   -1    0    0  501    0  0.00000000000E+00 -0.00000000000E+00 -0.99817953975E+02  0.99817953975E+02  0.00000000000E+00 0. -1.
         23    2    1    2    0    0  0.51663466277E+02 -0.17925424346E+02  0.22125167970E+02  0.13830413728E+03  0.12509227292E+03 0.  0.
          5    1    3    3  502    0 -0.14376599602E+02 -0.45818927807E+02 -0.23086055918E+02  0.53446226615E+02  0.41800000000E+01 0.  1.
         -5    1    3    3    0  502  0.66040065879E+02  0.27893503461E+02  0.45211223888E+02  0.84857910663E+02  0.41800000000E+01 0.  1.
        -11    1    1    2    0    0 -0.52158866057E+02 -0.26412089823E+02  0.22726781991E+02  0.62726807800E+02  0.00000000000E+00 0.  1.
         11    1    1    2    0    0  0.49539977977E+00  0.44337514169E+02  0.89234721840E+00  0.44349260052E+02  0.00000000000E+00 0. -1.
</event>
<event>
 7    1  0.5109948E-006  0.1086831E+03  0.7561462E-02  0.1263028E+00
         -2   -1    0    0    0  501 -0.00000000000E+00  0.00000000000E+00  0.11723741742E+03  0.11723741742E+03  0.00000000000E+00 0.  1.
          2   -1    0    0  501    0  0.00000000000E+00 -0.00000000000E+00 -0.11038843980E+03  0.11038843980E+03  0.00000000000E+00 0. -1.
         23    2    1    2    0    0  0.23924963026E+02  0.39612747239E+02  0.21144680205E+02  0.13504160457E+03  0.12509022289E+03 0.  0.
          5    1    3    3  502    0 -0.47025113338E+02  0.36549520719E+02  0.22728369831E+02  0.63884896058E+02  0.41800000000E+01 0. -1.
         -5    1    3    3    0  502  0.70950076364E+02  0.30632265201E+01 -0.15836896262E+01  0.71156708507E+02  0.41800000000E+01 0. -1.
        -11    1    1    2    0    0 -0.28788190543E+02 -0.59473387228E+02 -0.23542313453E+02  0.70143312054E+02  0.00000000000E+00 0. -1.
         11    1    1    2    0    0  0.48632275172E+01  0.19860639989E+02  0.92466108679E+01  0.22440940604E+02  0.00000000000E+00 0.  1.
</event>
<event>
 7    1  0.5109948E-006  0.1347616E+03  0.7561462E-02  0.1220557E+00
         -1   -1    0    0    0  501 -0.00000000000E+00  0.00000000000E+00  0.67346190790E+02  0.67346190790E+02  0.00000000000E+00 0.  1.
          1   -1    0    0  501    0  0.00000000000E+00 -0.00000000000E+00 -0.36746576729E+03  0.36746576729E+03  0.00000000000E+00 0. -1.
         23    2    1    2    0    0  0.29068255272E+00  0.10499830710E+03 -0.10120995976E+03  0.19213609973E+03  0.12509234939E+03 0.  0.
          5    1    3    3  502    0  0.30872412928E+02  0.12343118677E+03 -0.81143566242E+02  0.15096395096E+03  0.41800000000E+01 0.  1.
         -5    1    3    3    0  502 -0.30581730375E+02 -0.18432879668E+02 -0.20066393514E+02  0.41172148769E+02  0.41800000000E+01 0.  1.
        -11    1    1    2    0    0  0.79007206915E+01 -0.61680188368E+02 -0.18691491471E+03  0.19698744215E+03  0.00000000000E+00 0. -1.
         11    1    1    2    0    0 -0.81914032443E+01 -0.43318118735E+02 -0.11994702035E+02  0.45688416199E+02  0.00000000000E+00 0.  1.
</event>
<event>
 7    1  0.5109948E-006  0.1559985E+03  0.7561462E-02  0.1193290E+00
         -2   -1    0    0    0  501 -0.00000000000E+00  0.00000000000E+00  0.65731559244E+02  0.65731559244E+02  0.00000000000E+00 0. -1.
          2   -1    0    0  501    0  0.00000000000E+00 -0.00000000000E+00 -0.73841555933E+03  0.73841555933E+03  0.00000000000E+00 0.  1.
         23    2    1    2    0    0 -0.13001998441E+03  0.83877649978E+02 -0.14396169590E+03  0.24558673882E+03  0.12508884798E+03 0.  0.
          5    1    3    3  502    0 -0.12506155113E+03  0.76925009034E+02 -0.56134351232E+02  0.15724626029E+03  0.41800000000E+01 0. -1.
         -5    1    3    3    0  502 -0.49584332773E+01  0.69526409432E+01 -0.87827344664E+02  0.88340478532E+02  0.41800000000E+01 0. -1.
        -11    1    1    2    0    0  0.74171622849E+02 -0.38063318076E+02 -0.13808246167E+03  0.16129789844E+03  0.00000000000E+00 0. -1.
         11    1    1    2    0    0  0.55848361563E+02 -0.45814331901E+02 -0.39063984252E+03  0.39726248132E+03  0.00000000000E+00 0.  1.
</event>
<event>
 7    1  0.5109948E-006  0.1301116E+03  0.7561462E-02  0.1227290E+00
         -2   -1    0    0    0  501 -0.00000000000E+00  0.00000000000E+00  0.76122283988E+02  0.76122283988E+02  0.00000000000E+00 0.  1.
          2   -1    0    0  501    0  0.00000000000E+00 -0.00000000000E+00 -0.28002965538E+03  0.28002965538E+03  0.00000000000E+00 0. -1.
         23    2    1    2    0    0 -0.94536540389E+02  0.18073775740E+02 -0.13104734414E+03  0.20514578156E+03  0.12509023322E+03 0.  0.
          5    1    3    3  502    0  0.14250770955E+02 -0.32346812485E+02 -0.16366668466E+02  0.39175770413E+02  0.41800000000E+01 0.  1.
         -5    1    3    3    0  502 -0.10878731134E+03  0.50420588226E+02 -0.11468067568E+03  0.16597001115E+03  0.41800000000E+01 0.  1.
        -11    1    1    2    0    0  0.59666374288E+02  0.92161485286E+01  0.58905059361E+01  0.60660627054E+02  0.00000000000E+00 0.  1.
         11    1    1    2    0    0  0.34870166101E+02 -0.27289924269E+02 -0.78750533186E+02  0.90345530756E+02  0.00000000000E+00 0. -1.
</event>
<event>
 7    1  0.5109948E-006  0.2328993E+03  0.7561462E-02  0.1124616E+00
         -1   -1    0    0    0  501 -0.00000000000E+00  0.00000000000E+00  0.13132634646E+03  0.13132634646E+03  0.00000000000E+00 0.  1.
          1   -1    0    0  501    0  0.00000000000E+00 -0.00000000000E+00 -0.47241062772E+03  0.47241062772E+03  0.00000000000E+00 0. -1.
         23    2    1    2    0    0 -0.11155839096E+02 -0.22197920838E+03 -0.14608041152E+03  0.29391690241E+03  0.12509371364E+03 0.  0.
          5    1    3    3  502    0 -0.23409318585E+02 -0.15691638438E+03 -0.16083653711E+03  0.22595710201E+03  0.41800000000E+01 0. -1.
         -5    1    3    3    0  502  0.12253479488E+02 -0.65062824008E+02  0.14756125589E+02  0.67959800396E+02  0.41800000000E+01 0. -1.
        -11    1    1    2    0    0  0.38375972547E+02  0.20524006110E+03 -0.16937285637E+03  0.26885565351E+03  0.00000000000E+00 0.  1.
         11    1    1    2    0    0 -0.27220133451E+02  0.16739147281E+02 -0.25631013372E+02  0.40964418258E+02  0.00000000000E+00 0. -1.
</event>
<event>
 7    1  0.5109948E-006  0.1053398E+03  0.7561462E-02  0.1269452E+00
          3   -1    0    0  501    0  0.00000000000E+00  0.00000000000E+00  0.25103513245E+03  0.25103513245E+03  0.00000000000E+00 0. -1.
         -3   -1    0    0    0  501 -0.00000000000E+00 -0.00000000000E+00 -0.68276770413E+02  0.68276770413E+02  0.00000000000E+00 0.  1.
         23    2    1    2    0    0  0.23429474581E+02  0.64227767194E+02  0.68852859426E+02  0.15830769281E+03  0.12508582251E+03 0.  0.
          5    1    3    3  502    0  0.27793660600E+02 -0.33809647311E+02  0.26557891825E+02  0.51365103320E+02  0.41800000000E+01 0.  1.
         -5    1    3    3    0  502 -0.43641860187E+01  0.98037414506E+02  0.42294967602E+02  0.10694258949E+03  0.41800000000E+01 0.  1.
        -11    1    1    2    0    0 -0.12339920247E+02 -0.39648645434E+02  0.12509717338E+03  0.13180892043E+03  0.00000000000E+00 0. -1.
         11    1    1    2    0    0 -0.11089554334E+02 -0.24579121761E+02 -0.11191670768E+02  0.29195289628E+02  0.00000000000E+00 0.  1.
</event>
<event>
 7    1  0.5109948E-006  0.1390185E+03  0.7561462E-02  0.1214656E+00
          1   -1    0    0  501    0  0.00000000000E+00  0.00000000000E+00  0.48569907897E+03  0.48569907897E+03  0.00000000000E+00 0. -1.
         -1   -1    0    0    0  501 -0.00000000000E+00 -0.00000000000E+00 -0.59839657715E+02  0.59839657715E+02  0.00000000000E+00 0.  1.
         23    2    1    2    0    0  0.82355198700E+02 -0.98550484835E+02  0.18671156770E+03  0.25885493040E+03  0.12510031441E+03 0.  0.
          5    1    3    3  502    0  0.92826852847E+01 -0.70437018269E+02  0.16151601178E+03  0.17650052762E+03  0.41800000000E+01 0. -1.
         -5    1    3    3    0  502  0.73072513415E+02 -0.28113466566E+02  0.25195555917E+02  0.82354402779E+02  0.41800000000E+01 0. -1.
        -11    1    1    2    0    0 -0.67595380167E+02  0.79156586047E+02  0.96407511449E+02  0.14187779530E+03  0.00000000000E+00 0.  1.
         11    1    1    2    0    0 -0.14759818533E+02  0.19393898787E+02  0.14274034210E+03  0.14480601098E+03  0.00000000000E+00 0. -1.
</event>
<event>
 7    1  0.5109948E-006  0.1514722E+03  0.7561462E-02  0.1198676E+00
          1   -1    0    0  501    0  0.00000000000E+00  0.00000000000E+00  0.43520914856E+03  0.43520914856E+03  0.00000000000E+00 0. -1.
         -1   -1    0    0    0  501 -0.00000000000E+00 -0.00000000000E+00 -0.60937854177E+02  0.60937854177E+02  0.00000000000E+00 0.  1.
         23    2    1    2    0    0 -0.69220548838E+02  0.80744818364E+02  0.11107508172E+03  0.19823528460E+03  0.12509334198E+03 0.  0.
          5    1    3    3  502    0 -0.80782870642E+02  0.10757796173E+03  0.88672680551E+02  0.16118066483E+03  0.41800000000E+01 0. -1.
         -5    1    3    3    0  502  0.11562321804E+02 -0.26833143364E+02  0.22402401174E+02  0.37054619775E+02  0.41800000000E+01 0. -1.
        -11    1    1    2    0    0 -0.23308810247E+01 -0.65667658041E+02  0.10938886466E+03  0.12760720211E+03  0.00000000000E+00 0. -1.
         11    1    1    2    0    0  0.71551429863E+02 -0.15077160323E+02  0.15380734800E+03  0.17030451602E+03  0.00000000000E+00 0.  1.
</event>
<event>
 7    1  0.5109948E-006  0.1497069E+03  0.7561462E-02  0.1200834E+00
         -3   -1    0    0    0  501 -0.00000000000E+00  0.00000000000E+00  0.41310248586E+02  0.41310248586E+02  0.00000000000E+00 0.  1.
          3   -1    0    0  501    0  0.00000000000E+00 -0.00000000000E+00 -0.71116632590E+03  0.71116632590E+03  0.00000000000E+00 0. -1.
         23    2    1    2    0    0  0.11949578633E+03  0.26900318541E+02 -0.24686564006E+03  0.30306431037E+03  0.12610496379E+03 0.  0.
          5    1    3    3  502    0  0.10292748816E+03  0.73174667082E+02 -0.17258221364E+03  0.21389411536E+03  0.41800000000E+01 0. -1.
         -5    1    3    3    0  502  0.16568298160E+02 -0.46274348542E+02 -0.74283426427E+02  0.89170195013E+02  0.41800000000E+01 0. -1.
        -11    1    1    2    0    0 -0.63846858386E+02 -0.23291476612E+02 -0.95537379266E+02  0.11724463760E+03  0.00000000000E+00 0.  1.
         11    1    1    2    0    0 -0.55648927939E+02 -0.36088419289E+01 -0.32745305798E+03  0.33216762651E+03  0.00000000000E+00 0. -1.
</event>
<event>
 7    1  0.5109948E-006  0.1408356E+03  0.7561462E-02  0.1212209E+00
          2   -1    0    0  501    0  0.00000000000E+00  0.00000000000E+00  0.10514678035E+04  0.10514678035E+04  0.00000000000E+00 0. -1.
         -2   -1    0    0    0  501 -0.00000000000E+00 -0.00000000000E+00 -0.21507079784E+02  0.21507079784E+02  0.00000000000E+00 0.  1.
         23    2    1    2    0    0  0.97680437098E+02 -0.14808577258E+02  0.43883508336E+03  0.46689214734E+03  0.12510509627E+03 0.  0.
          5    1    3    3  502    0  0.10557221063E+03 -0.49823140695E+02  0.38271084405E+03  0.40014109956E+03  0.41800000000E+01 0. -1.
         -5    1    3    3    0  502 -0.78917735286E+01  0.35014563436E+02  0.56124239312E+02  0.66751047785E+02  0.41800000000E+01 0. -1.
        -11    1    1    2    0    0 -0.71654648054E+02  0.48221589630E+02  0.46728822680E+03  0.47520311152E+03  0.00000000000E+00 0. -1.
         11    1    1    2    0    0 -0.26025789043E+02 -0.33413012371E+02  0.12383741354E+03  0.13087962440E+03  0.00000000000E+00 0.  1.
</event>
<event>
 7    1  0.5109948E-006  0.1475701E+03  0.7561462E-02  0.1203491E+00
         -4   -1    0    0    0  501 -0.00000000000E+00  0.00000000000E+00  0.13912603761E+03  0.13912603761E+03  0.00000000000E+00 0.  1.
          4   -1    0    0  501    0  0.00000000000E+00 -0.00000000000E+00 -0.19803459280E+03  0.19803459280E+03  0.00000000000E+00 0. -1.
         23    2    1    2    0    0 -0.94266303630E+02 -0.53928550885E+02  0.31111699796E+02  0.16855360129E+03  0.12509178248E+03 0.  0.
          5    1    3    3  502    0 -0.41330936640E+02  0.32891447942E+02  0.40008257577E+02  0.66394478277E+02  0.41800000000E+01 0.  1.
         -5    1    3    3    0  502 -0.52935366990E+02 -0.86819998827E+02 -0.88965577813E+01  0.10215912301E+03  0.41800000000E+01 0.  1.
        -11    1    1    2    0    0  0.66508353413E+02  0.78797639351E+02 -0.78512481771E+02  0.12960184734E+03  0.00000000000E+00 0.  1.
         11    1    1    2    0    0  0.27757950216E+02 -0.24869088466E+02 -0.11507773211E+02  0.39005181780E+02  0.00000000000E+00 0. -1.
</event>
<event>
 7    1  0.5109948E-006  0.1978074E+03  0.7561462E-02  0.1151602E+00
          2   -1    0    0  501    0  0.00000000000E+00  0.00000000000E+00  0.15956528032E+04  0.15956528032E+04  0.00000000000E+00 0. -1.
         -2   -1    0    0    0  501 -0.00000000000E+00 -0.00000000000E+00 -0.24719881551E+02  0.24719881551E+02  0.00000000000E+00 0.  1.
         23    2    1    2    0    0  0.13928179680E+03 -0.90556953300E+02  0.83815890675E+03  0.86357511311E+03  0.12510652386E+03 0.  0.
          5    1    3    3  502    0  0.11302208617E+03 -0.12227418898E+03  0.66640099351E+03  0.68690081220E+03  0.41800000000E+01 0. -1.
         -5    1    3    3    0  502  0.26259710622E+02  0.31717235678E+02  0.17175791324E+03  0.17667430091E+03  0.41800000000E+01 0. -1.
        -11    1    1    2    0    0 -0.26384346985E+01  0.42853392245E+02  0.13066340495E+03  0.13753654045E+03  0.00000000000E+00 0.  1.
         11    1    1    2    0    0 -0.13664336210E+03  0.47703561055E+02  0.60211060997E+03  0.61926103121E+03  0.00000000000E+00 0. -1.
</event>
<event>
 7    1  0.5109948E-006  0.1075204E+03  0.7561462E-02  0.1265232E+00
          1   -1    0    0  501    0  0.00000000000E+00  0.00000000000E+00  0.19977074330E+03  0.19977074330E+03  0.00000000000E+00 0. -1.
         -1   -1    0    0    0  501 -0.00000000000E+00 -0.00000000000E+00 -0.83650703314E+02  0.83650703314E+02  0.00000000000E+00 0.  1.
         23    2    1    2    0    0 -0.66674301224E+02 -0.74242385487E+01  0.88581188729E+02  0.16728203190E+03  0.12504426991E+03 0.  0.
          5    1    3    3  502    0  0.57651312859E+01 -0.29543598984E+02 -0.18855902610E+02  0.35764206169E+02  0.41800000000E+01 0. -1.
         -5    1    3    3    0  502 -0.72439432510E+02  0.22119360435E+02  0.10743709134E+03  0.13151782573E+03  0.41800000000E+01 0. -1.
        -11    1    1    2    0    0  0.77089068598E+02  0.30947390900E+02  0.33768351418E+02  0.89670324291E+02  0.00000000000E+00 0. -1.
         11    1    1    2    0    0 -0.10414767374E+02 -0.23523152352E+02 -0.62295001591E+01  0.26469090431E+02  0.00000000000E+00 0.  1.
</event>
<event>
 7    1  0.5109948E-006  0.6269980E+02  0.7561462E-02  0.1386839E+00
         -1   -1    0    0    0  501 -0.00000000000E+00  0.00000000000E+00  0.61250884707E+02  0.61250884707E+02  0.00000000000E+00 0.  1.
          1   -1    0    0  501    0  0.00000000000E+00 -0.00000000000E+00 -0.20411757812E+03  0.20411757812E+03  0.00000000000E+00 0. -1.
         23    2    1    2    0    0 -0.75065651065E+01  0.18550596324E+02 -0.59665117652E+02  0.13999708931E+03  0.12505513027E+03 0.  0.
          5    1    3    3  502    0  0.29538302392E+02 -0.11768326468E+02 -0.81227086681E+02  0.87328785785E+02  0.41800000000E+01 0.  1.
         -5    1    3    3    0  502 -0.37044867499E+02  0.30318922793E+02  0.21561969028E+02  0.52668303520E+02  0.41800000000E+01 0.  1.
        -11    1    1    2    0    0 -0.98649026851E+01  0.85718133098E+01  0.16239069043E+02  0.20844655233E+02  0.00000000000E+00 0.  1.
         11    1    1    2    0    0  0.17371467792E+02 -0.27122409634E+02 -0.99440644804E+02  0.10452671829E+03  0.00000000000E+00 0. -1.
</event>
<event>
 6    1  0.6604927E-006  0.6489333E+03  0.7561462E-02  0.9808783E-01
         -2   -1    0    0    0  501 -0.00000000000E+00  0.00000000000E+00  0.46018958073E+03  0.46018958073E+03  0.00000000000E+00 0.  1.
          2   -1    0    0  501    0  0.00000000000E+00 -0.00000000000E+00 -0.10857748734E+04  0.10857748734E+04  0.00000000000E+00 0. -1.
          5    1    1    2  502    0  0.58584153718E+03 -0.12889022568E+03 -0.57507295033E+03  0.83099300091E+03  0.41800000000E+01 0. -1.
         -5    1    1    2    0  502 -0.58427171361E+03  0.11677251555E+03  0.99754024823E+01  0.59592469051E+03  0.41800000000E+01 0.  1.
        -11    1    1    2    0    0 -0.41109042607E+02 -0.24844169349E+02 -0.23367099953E+02  0.53415423755E+02  0.00000000000E+00 0.  1.
         11    1    1    2    0    0  0.39539219031E+02  0.36961879480E+02 -0.37120644844E+02  0.65631338931E+02  0.00000000000E+00 0. -1.
</event>
<event>
 7    1  0.5109948E-006  0.1450325E+03  0.7561462E-02  0.1206713E+00
         -1   -1    0    0    0  501 -0.00000000000E+00  0.00000000000E+00  0.22696186905E+03  0.22696186905E+03  0.00000000000E+00 0.  1.
          1   -1    0    0  501    0  0.00000000000E+00 -0.00000000000E+00 -0.23462853182E+03  0.23462853182E+03  0.00000000000E+00 0. -1.
         23    2    1    2    0    0  0.11544856013E+03  0.74783475985E+02  0.14635719774E+03  0.23663066558E+03  0.12511076792E+03 0.  0.
          5    1    3    3  502    0  0.47909753315E+02 -0.40379296780E+01  0.12016782197E+03  0.12949682303E+03  0.41800000000E+01 0.  1.
         -5    1    3    3    0  502  0.67538806811E+02  0.78821405663E+02  0.26189375765E+02  0.10713384255E+03  0.41800000000E+01 0.  1.
        -11    1    1    2    0    0 -0.99753899858E+02 -0.60291968491E+02 -0.65100852700E+02  0.13350686508E+03  0.00000000000E+00 0.  1.
         11    1    1    2    0    0 -0.15694660268E+02 -0.14491507494E+02 -0.88923007810E+02  0.91452870203E+02  0.00000000000E+00 0. -1.
</event>
<event>
 7    1  0.5109948E-006  0.5407530E+03  0.7561462E-02  0.1003657E+00
          1   -1    0    0  501    0  0.00000000000E+00  0.00000000000E+00  0.48750694646E+03  0.48750694646E+03  0.00000000000E+00 0. -1.
         -1   -1    0    0    0  501 -0.00000000000E+00 -0.00000000000E+00 -0.60574027525E+03  0.60574027525E+03  0.00000000000E+00 0.  1.
         23    2    1    2    0    0 -0.48487747146E+03  0.21547555788E+03 -0.19456849931E+02  0.54549335470E+03  0.12509417505E+03 0.  0.
          5    1    3    3  502    0 -0.48983673472E+03  0.20631323021E+03 -0.11355822405E+02  0.53164988738E+03  0.41800000000E+01 0. -1.
         -5    1    3    3    0  502  0.49592632604E+01  0.91623276757E+01 -0.81010275268E+01  0.13843467323E+02  0.41800000000E+01 0. -1.
        -11    1    1    2    0    0  0.89235054965E+02 -0.82032062539E+02 -0.20141785916E+02  0.12287329189E+03  0.00000000000E+00 0. -1.
         11    1    1    2    0    0  0.39564241650E+03 -0.13344349535E+03 -0.78634692947E+02  0.42488057513E+03  0.00000000000E+00 0.  1.
</event>
<event>
 7    1  0.1957297E-005  0.2178754E+03  0.7561462E-02  0.1135477E+00
         -2   -1    0    0    0  501 -0.00000000000E+00  0.00000000000E+00  0.45999028275E+02  0.45999028275E+02  0.00000000000E+00 0. -1.
          2   -1    0    0  501    0  0.00000000000E+00 -0.00000000000E+00 -0.10923015517E+04  0.10923015517E+04  0.00000000000E+00 0.  1.
         23    2    1    2    0    0 -0.11502346859E+03  0.15533544657E+03 -0.46060576821E+03  0.51494166228E+03  0.12509093715E+03 0.  0.
          5    1    3    3  502    0 -0.13101071464E+03  0.84871768700E+02 -0.34259760212E+03  0.37650712324E+03  0.41800000000E+01 0.  1.
         -5    1    3    3    0  502  0.15987246052E+02  0.70463677872E+02 -0.11800816609E+03  0.13843453904E+03  0.41800000000E+01 0.  1.
        -11    1    1    2    0    0  0.48829152893E+02 -0.12540039858E+03 -0.44658132266E+03  0.46641657762E+03  0.00000000000E+00 0.  1.
         11    1    1    2    0    0  0.66194315696E+02 -0.29935047992E+02 -0.13911543252E+03  0.15694234003E+03  0.00000000000E+00 0. -1.
</event>
<event>
 7    1  0.5109948E-006  0.1726690E+03  0.7561462E-02  0.1175093E+00
          2   -1    0    0  501    0  0.00000000000E+00  0.00000000000E+00  0.62527677758E+03  0.62527677758E+03  0.00000000000E+00 0. -1.
         -2   -1    0    0    0  501 -0.00000000000E+00 -0.00000000000E+00 -0.57828922017E+02  0.57828922017E+02  0.00000000000E+00 0.  1.
         23    2    1    2    0    0  0.15609659442E+03 -0.96121766397E+01  0.28298367742E+03  0.34667826395E+03  0.12509003268E+03 0.  0.
          5    1    3    3  502    0  0.11462946310E+01  0.22811628646E+02  0.96585900721E+00  0.23239829528E+02  0.41800000000E+01 0.  1.
         -5    1    3    3    0  502  0.15495029979E+03 -0.32423805286E+02  0.28201781842E+03  0.32343843442E+03  0.41800000000E+01 0.  1.
        -11    1    1    2    0    0 -0.63340417923E+02  0.27903518503E+02  0.55519328110E+02  0.88729987497E+02  0.00000000000E+00 0.  1.
         11    1    1    2    0    0 -0.92756176502E+02 -0.18291341863E+02  0.22894485003E+03  0.24769744815E+03  0.00000000000E+00 0. -1.
</event>
<event>
 7    1  0.5109948E-006  0.1808015E+03  0.7561462E-02  0.1167030E+00
          1   -1    0    0  501    0  0.00000000000E+00  0.00000000000E+00  0.11138314352E+04  0.11138314352E+04  0.00000000000E+00 0.  1.
         -1   -1    0    0    0  501 -0.00000000000E+00 -0.00000000000E+00 -0.32276751199E+02  0.32276751199E+02  0.00000000000E+00 0. -1.
         23    2    1    2    0    0  0.14159887870E+03 -0.62405202965E+02  0.53252757300E+03  0.56848811655E+03  0.12509384817E+03 0.  0.
          5    1    3    3  502    0  0.77629885131E+02  0.29472560916E+02  0.17359268869E+03  0.19247577739E+03  0.41800000000E+01 0.  1.
         -5    1    3    3    0  502  0.63968993568E+02 -0.91877763881E+02  0.35893488431E+03  0.37601233917E+03  0.41800000000E+01 0.  1.
        -11    1    1    2    0    0 -0.67824449850E+02 -0.29247956259E+01  0.12450116131E+03  0.14180708584E+03  0.00000000000E+00 0. -1.
         11    1    1    2    0    0 -0.73774428849E+02  0.65329998591E+02  0.42452594973E+03  0.43581298404E+03  0.00000000000E+00 0.  1.
</event>
<event>
 7    1  0.5109948E-006  0.8923752E+02  0.7561462E-02  0.1304709E+00
         -3   -1    0    0    0  501 -0.00000000000E+00  0.00000000000E+00  0.64767516917E+02  0.64767516917E+02  0.00000000000E+00 0.  1.
          3   -1    0    0  501    0  0.00000000000E+00 -0.00000000000E+00 -0.25689745602E+03  0.25689745602E+03  0.00000000000E+00 0. -1.
         23    2    1    2    0    0 -0.20398080758E+02  0.60088026369E+02 -0.67916342244E+02  0.15584284596E+03  0.12509080894E+03 0.  0.
          5    1    3    3  502    0 -0.11817456525E+02  0.39399059866E+01 -0.92774795161E+02  0.93700641167E+02  0.41800000000E+01 0.  1.
         -5    1    3    3    0  502 -0.85806242332E+01  0.56148120383E+02  0.24858452917E+02  0.62142204790E+02  0.41800000000E+01 0.  1.
        -11    1    1    2    0    0  0.43775921639E+02  0.13971637989E+00 -0.37204890790E+02  0.57450454608E+02  0.00000000000E+00 0. -1.
         11    1    1    2    0    0 -0.23377840880E+02 -0.60227742749E+02 -0.87008706071E+02  0.10837167237E+03  0.00000000000E+00 0.  1.
</event>
<event>
 7    1  0.5109948E-006  0.1094600E+03  0.7561462E-02  0.1261573E+00
          1   -1    0    0  501    0  0.00000000000E+00  0.00000000000E+00  0.26792518383E+02  0.26792518383E+02  0.00000000000E+00 0. -1.
         -1   -1    0    0    0  501 -0.00000000000E+00 -0.00000000000E+00 -0.64082244909E+03  0.64082244909E+03  0.00000000000E+00 0.  1.
         23    2    1    2    0    0 -0.41317405480E+02 -0.95608883575E+01 -0.45114678897E+03  0.47008419111E+03  0.12508870036E+03 0.  0.
          5    1    3    3  502    0 -0.84191711031E+02  0.12295368422E+01 -0.34225722501E+03  0.35248721458E+03  0.41800000000E+01 0.  1.
         -5    1    3    3    0  502  0.42874305551E+02 -0.10790425200E+02 -0.10888956395E+03  0.11759697654E+03  0.41800000000E+01 0.  1.
        -11    1    1    2    0    0  0.13262058844E+02  0.43902899840E+02 -0.14062220999E+03  0.14791197639E+03  0.00000000000E+00 0. -1.
         11    1    1    2    0    0  0.28055346636E+02 -0.34342011483E+02 -0.22260931756E+02  0.49618799967E+02  0.00000000000E+00 0.  1.
</event>
<event>
 7    1  0.1040768E-005  0.1935263E+03  0.7561462E-02  0.1155319E+00
          2   -1    0    0  501    0  0.00000000000E+00  0.00000000000E+00  0.43811194945E+03  0.43811194945E+03  0.00000000000E+00 0. -1.
         -2   -1    0    0    0  501 -0.00000000000E+00 -0.00000000000E+00 -0.11419750781E+03  0.11419750781E+03  0.00000000000E+00 0.  1.
         23    2    1    2    0    0  0.14960737832E+03 -0.12141280361E+03  0.12940458210E+03  0.26366002038E+03  0.12509046305E+03 0.  0.
          5    1    3    3  502    0  0.40438389384E+02 -0.36780438532E+02  0.11157886607E+03  0.12431966758E+03  0.41800000000E+01 0. -1.
         -5    1    3    3    0  502  0.10916898894E+03 -0.84632365083E+02  0.17825716037E+02  0.13934035280E+03  0.41800000000E+01 0. -1.
        -11    1    1    2    0    0 -0.27715772869E+02  0.34877039171E+02  0.15701143965E+01  0.44576195287E+02  0.00000000000E+00 0.  1.
         11    1    1    2    0    0 -0.12189160545E+03  0.86535764444E+02  0.19293974514E+03  0.24407324159E+03  0.00000000000E+00 0. -1.
</event>
<event>
 7    1  0.5109948E-006  0.2525720E+03  0.7561462E-02  0.1111690E+00
         -1   -1    0    0    0  501 -0.00000000000E+00  0.00000000000E+00  0.17879964703E+03  0.17879964703E+03  0.00000000000E+00 0.  1.
          1   -1    0    0  501    0  0.00000000000E+00 -0.00000000000E+00 -0.52231153889E+03  0.52231153889E+03  0.00000000000E+00 0. -1.
         23    2    1    2    0    0  0.22310481216E+03  0.79585144767E+02  0.76989058467E+01  0.26798419900E+03  0.12508679101E+03 0.  0.
          5    1    3    3  502    0  0.15583600915E+03  0.10807983492E+03  0.28708032422E+02  0.19185342319E+03  0.41800000000E+01 0.  1.
         -5    1    3    3    0  502  0.67268803018E+02 -0.28494690155E+02 -0.21009126575E+02  0.76130775814E+02  0.41800000000E+01 0.  1.
        -11    1    1    2    0    0 -0.83528700087E+02 -0.56401095629E+02 -0.85817467438E+02  0.13237358137E+03  0.00000000000E+00 0.  1.
         11    1    1    2    0    0 -0.13957611208E+03 -0.23184049138E+02 -0.26539333027E+03  0.30075340555E+03  0.00000000000E+00 0. -1.
</event>
<event>
 7    1  0.5109948E-006  0.8475692E+02  0.7561462E-02  0.1316069E+00
         -1   -1    0    0    0  501 -0.00000000000E+00  0.00000000000E+00  0.14370089210E+03  0.14370089210E+03  0.00000000000E+00 0.  1.
          1   -1    0    0  501    0  0.00000000000E+00 -0.00000000000E+00 -0.86859956632E+02  0.86859956632E+02  0.00000000000E+00 0. -1.
         23    2    1    2    0    0  0.11276791846E+02  0.30331259737E+02  0.44667160306E+02  0.13671000216E+03  0.12508924066E+03 0.  0.
          5    1    3    3  502    0  0.65305650785E+02  0.75085308346E+01  0.55822148663E+01  0.66104762177E+02  0.41800000000E+01 0.  1.
         -5    1    3    3    0  502 -0.54028858939E+02  0.22822728902E+02  0.39084945440E+02  0.70605239981E+02  0.41800000000E+01 0.  1.
        -11    1    1    2    0    0 -0.18130812354E+02 -0.52960422915E+01 -0.35134323709E+02  0.39889787202E+02  0.00000000000E+00 0. -1.
         11    1    1    2    0    0  0.68540205075E+01 -0.25035217445E+02  0.47308098873E+02  0.53961059372E+02  0.00000000000E+00 0.  1.
</event>
<event>
 7    1  0.5109948E-006  0.1054453E+03  0.7561462E-02  0.1269245E+00
          1   -1    0    0  501    0  0.00000000000E+00  0.00000000000E+00  0.32248065840E+03  0.32248065840E+03  0.00000000000E+00 0. -1.
         -1   -1    0    0    0  501 -0.00000000000E+00 -0.00000000000E+00 -0.49863495113E+02  0.49863495113E+02  0.00000000000E+00 0.  1.
         23    2    1    2    0    0 -0.52336074456E+02  0.35245072574E+02  0.12854949632E+03  0.19014088174E+03  0.12508917649E+03 0.  0.
          5    1    3    3  502    0 -0.53711289128E+02  0.58363536106E+02  0.23997784739E+02  0.82973314981E+02  0.41800000000E+01 0. -1.
         -5    1    3    3    0  502  0.13752146719E+01 -0.23118463532E+02  0.10455171158E+03  0.10716756676E+03  0.41800000000E+01 0. -1.
        -11    1    1    2    0    0  0.61972704298E+02  0.90220623822E+01  0.60127689614E+02  0.86817928712E+02  0.00000000000E+00 0. -1.
         11    1    1    2    0    0 -0.96366298420E+01 -0.44267134957E+02  0.83939977359E+02  0.95385343062E+02  0.00000000000E+00 0.  1.
</event>
<event>
 7    1  0.5109948E-006  0.1652290E+03  0.7561462E-02  0.1182917E+00
         -2   -1    0    0    0  501 -0.00000000000E+00  0.00000000000E+00  0.33502604341E+03  0.33502604341E+03  0.00000000000E+00 0. -1.
          2   -1    0    0  501    0  0.00000000000E+00 -0.00000000000E+00 -0.98441616714E+02  0.98441616714E+02  0.00000000000E+00 0.  1.
         23    2    1    2    0    0 -0.28815102449E+02 -0.13568728622E+03  0.18159096926E+03  0.26051156754E+03  0.12509854890E+03 0.  0.
          5    1    3    3  502    0  0.14229433921E+02 -0.11934014014E+03  0.17708550056E+03  0.21405908704E+03  0.41800000000E+01 0. -1.
         -5    1    3    3    0  502 -0.43044536370E+02 -0.16347146086E+02  0.45054686981E+01  0.46452480500E+02  0.41800000000E+01 0. -1.
        -11    1    1    2    0    0 -0.31560300874E+02  0.42688917731E+02  0.16753367257E+02  0.55669305750E+02  0.00000000000E+00 0. -1.
         11    1    1    2    0    0  0.60375403323E+02  0.92998368492E+02  0.38240090188E+02  0.11728678684E+03  0.00000000000E+00 0.  1.
</event>
<event>
 7    1  0.5109948E-006  0.1122339E+03  0.7561462E-02  0.1256488E+00
          3   -1    0    0  501    0  0.00000000000E+00  0.00000000000E+00  0.69417788892E+02  0.69417788892E+02  0.00000000000E+00 0. -1.
         -3   -1    0    0    0  501 -0.00000000000E+00 -0.00000000000E+00 -0.23672187509E+03  0.23672187509E+03  0.00000000000E+00 0.  1.
         23    2    1    2    0    0 -0.52430336798E+02  0.34141347372E+02 -0.12273368741E+03  0.18607919825E+03  0.12508932081E+03 0.  0.
          5    1    3    3  502    0 -0.66721602271E+02 -0.13528591222E+02 -0.11750297285E+03  0.13586469747E+03  0.41800000000E+01 0.  1.
         -5    1    3    3    0  502  0.14291265474E+02  0.47669938594E+02 -0.52307145641E+01  0.50214500786E+02  0.41800000000E+01 0.  1.
        -11    1    1    2    0    0  0.64376295942E+02  0.57927810059E+01 -0.44329610667E+02  0.78377153386E+02  0.00000000000E+00 0.  1.
         11    1    1    2    0    0 -0.11945959144E+02 -0.39934128378E+02 -0.24078812342E+00  0.41683312346E+02  0.00000000000E+00 0. -1.
</event>
<event>
 7    1  0.5109948E-006  0.9093163E+02  0.7561462E-02  0.1300611E+00
         -1   -1    0    0    0  501 -0.00000000000E+00  0.00000000000E+00  0.22880692900E+03  0.22880692900E+03  0.00000000000E+00 0.  1.
          1   -1    0    0  501    0  0.00000000000E+00 -0.00000000000E+00 -0.84667826285E+02  0.84667826285E+02  0.00000000000E+00 0. -1.
         23    2    1    2    0    0  0.33965431827E+02  0.40479285319E+02  0.15625608693E+03  0.20701542853E+03  0.12508876788E+03 0.  0.
          5    1    3    3  502    0 -0.38930032918E+02  0.15253599791E+02  0.12536724824E+02  0.43850446280E+02  0.41800000000E+01 0. -1.
         -5    1    3    3    0  502  0.72895464745E+02  0.25225685529E+02  0.14371936210E+03  0.16316498225E+03  0.41800000000E+01 0. -1.
        -11    1    1    2    0    0 -0.24100997559E+02 -0.45526617577E+02  0.32219756309E+02  0.60758898015E+02  0.00000000000E+00 0.  1.
         11    1    1    2    0    0 -0.98644342678E+01  0.50473322581E+01 -0.44336740523E+02  0.45700428734E+02  0.00000000000E+00 0. -1.
</event>
<event>
 7    1  0.5109948E-006  0.5843871E+02  0.7561462E-02  0.1404503E+00
          2   -1    0    0  501    0  0.00000000000E+00  0.00000000000E+00  0.14584016010E+03  0.14584016010E+03  0.00000000000E+00 0. -1.
         -2   -1    0    0    0  501 -0.00000000000E+00 -0.00000000000E+00 -0.68918156263E+02  0.68918156263E+02  0.00000000000E+00 0.  1.
         23    2    1    2    0    0 -0.18064912435E+02 -0.26294376316E+02  0.19137152436E+02  0.13050577587E+03  0.12509113336E+03 0.  0.
          5    1    3    3  502    0  0.83222351625E+01 -0.30016213245E+02  0.67876951183E+02  0.74799636079E+02  0.41800000000E+01 0. -1.
         -5    1    3    3    0  502 -0.26387147597E+02  0.37218369289E+01 -0.48739798747E+02  0.55706139791E+02  0.41800000000E+01 0. -1.
        -11    1    1    2    0    0  0.23721346392E+02  0.38387185400E+02  0.32337073617E+02  0.55515444767E+02  0.00000000000E+00 0.  1.
         11    1    1    2    0    0 -0.56564339573E+01 -0.12092809084E+02  0.25447777782E+02  0.28737095725E+02  0.00000000000E+00 0. -1.
</event>
<event>
 6    1  0.5109948E-006  0.7957765E+02  0.7561462E-02  0.1330254E+00
          2   -1    0    0  501    0  0.00000000000E+00  0.00000000000E+00  0.29272916475E+03  0.29272916475E+03  0.00000000000E+00 0.  1.
         -2   -1    0    0    0  501 -0.00000000000E+00 -0.00000000000E+00 -0.55331227851E+02  0.55331227851E+02  0.00000000000E+00 0. -1.
          5    1    1    2  502    0  0.37069407999E+02 -0.43722622665E+02 -0.12875687259E+02  0.58898764542E+02  0.41800000000E+01 0.  1.
         -5    1    1    2    0  502 -0.13658027145E+02  0.50011513371E+02  0.78568251943E+02  0.94223859975E+02  0.41800000000E+01 0.  1.
        -11    1    1    2    0    0 -0.26759356833E+02  0.13240321043E+02  0.17254200114E+03  0.17510600058E+03  0.00000000000E+00 0.  1.
         11    1    1    2    0    0  0.33479759790E+01 -0.19529211749E+02 -0.83662892405E+00  0.19831767512E+02  0.00000000000E+00 0. -1.
</event>
<event>
 7    1  0.5109948E-006  0.6352203E+02  0.7561462E-02  0.1383619E+00
          1   -1    0    0  501    0  0.00000000000E+00  0.00000000000E+00  0.38199205487E+03  0.38199205487E+03  0.00000000000E+00 0. -1.
         -1   -1    0    0    0  501 -0.00000000000E+00 -0.00000000000E+00 -0.40335044206E+02  0.40335044206E+02  0.00000000000E+00 0.  1.
         23    2    1    2    0    0 -0.32973774528E+01 -0.59790010652E+02  0.16859153903E+03  0.21830534600E+03  0.12509356094E+03 0.  0.
          5    1    3    3  502    0  0.15322707233E+01  0.16130982958E+01  0.15502566723E+03  0.15509796852E+03  0.41800000000E+01 0.  1.
         -5    1    3    3    0  502 -0.48296481761E+01 -0.61403108948E+02  0.13565871795E+02  0.63207377477E+02  0.41800000000E+01 0.  1.
        -11    1    1    2    0    0 -0.30834155209E+01  0.13561880484E+02 -0.86708810458E+01  0.16389515907E+02  0.00000000000E+00 0.  1.
         11    1    1    2    0    0  0.63807929738E+01  0.46228130168E+02  0.18173635268E+03  0.18763223716E+03  0.00000000000E+00 0. -1.
</event>
<event>
 7    1  0.5109948E-006  0.1321001E+03  0.7561462E-02  0.1224372E+00
         -2   -1    0    0    0  501 -0.00000000000E+00  0.00000000000E+00  0.52648311152E+02  0.52648311152E+02  0.00000000000E+00 0.  1.
          2   -1    0    0  501    0  0.00000000000E+00 -0.00000000000E+00 -0.36883642393E+03  0.36883642393E+03  0.00000000000E+00 0. -1.
         23    2    1    2    0    0 -0.59908697114E+02 -0.60020606960E+02 -0.16316792838E+03  0.22247349099E+03  0.12521643699E+03 0.  0.
          5    1    3    3  502    0  0.86348081012E+01 -0.70634388951E+02 -0.41835733609E+02  0.82652754461E+02  0.41800000000E+01 0.  1.
         -5    1    3    3    0  502 -0.68543505215E+02  0.10613781991E+02 -0.12133219477E+03  0.13982073653E+03  0.41800000000E+01 0.  1.
        -11    1    1    2    0    0 -0.20107861946E+02  0.33615196491E+02 -0.27609612937E+02  0.47922836662E+02  0.00000000000E+00 0.  1.
         11    1    1    2    0    0  0.80016559060E+02  0.26405410468E+02 -0.12541057146E+03  0.15108840743E+03  0.00000000000E+00 0. -1.
</event>
<event>
 7    1  0.5109948E-006  0.1096510E+03  0.7561462E-02  0.1261217E+00
          2   -1    0    0  501    0  0.00000000000E+00  0.00000000000E+00  0.60948251731E+02  0.60948251731E+02  0.00000000000E+00 0.  1.
         -2   -1    0    0    0  501 -0.00000000000E+00 -0.00000000000E+00 -0.28108649903E+03  0.28108649903E+03  0.00000000000E+00 0. -1.
         23    2    1    2    0    0 -0.24916149234E+02 -0.54520435107E+02 -0.18006962463E+03  0.22730108262E+03  0.12508964829E+03 0.  0.
          5    1    3    3  502    0 -0.57416971911E+02 -0.12593257801E+02 -0.26204051193E+02  0.64493592739E+02  0.41800000000E+01 0. -1.
         -5    1    3    3    0  502  0.32500822677E+02 -0.41927177306E+02 -0.15386557344E+03  0.16280748988E+03  0.41800000000E+01 0. -1.
        -11    1    1    2    0    0  0.40366133691E+02 -0.93592696975E+01 -0.20036786539E+02  0.46027095207E+02  0.00000000000E+00 0.  1.
         11    1    1    2    0    0 -0.15449984457E+02  0.63879704805E+02 -0.20031836127E+02  0.68706572934E+02  0.00000000000E+00 0. -1.
</event>
<event>
 7    1  0.5109948E-006  0.9964638E+02  0.7561462E-02  0.1281041E+00
          2   -1    0    0  501    0  0.00000000000E+00  0.00000000000E+00  0.16028132276E+03  0.16028132276E+03  0.00000000000E+00 0.  1.
         -2   -1    0    0    0  501 -0.00000000000E+00 -0.00000000000E+00 -0.72711516714E+02  0.72711516714E+02  0.00000000000E+00 0. -1.
         23    2    1    2    0    0  0.41084861591E+01 -0.18157050361E+01  0.50000941097E+02  0.13478465312E+03  0.12508649872E+03 0.  0.
          5    1    3    3  502    0 -0.11855804749E+02  0.52676150666E+02 -0.65340063084E+01  0.54548167647E+02  0.41800000000E+01 0.  1.
         -5    1    3    3    0  502  0.15964290908E+02 -0.54491855702E+02  0.56534947406E+02  0.80236485468E+02  0.41800000000E+01 0.  1.
        -11    1    1    2    0    0 -0.71929366615E+01 -0.42839850763E+02  0.30046890440E+02  0.52818621492E+02  0.00000000000E+00 0.  1.
         11    1    1    2    0    0  0.30844505024E+01  0.44655555799E+02  0.75219745118E+01  0.45389564871E+02  0.00000000000E+00 0. -1.
</event>
<event>
 7    1  0.5109948E-006  0.1167080E+03  0.7561462E-02  0.1248629E+00
          2   -1    0    0  501    0  0.00000000000E+00  0.00000000000E+00  0.46097446702E+03  0.46097446702E+03  0.00000000000E+00 0. -1.
         -2   -1    0    0    0  501 -0.00000000000E+00 -0.00000000000E+00 -0.39809462798E+02  0.39809462798E+02  0.00000000000E+00 0.  1.
         23    2    1    2    0    0  0.58698204442E+02  0.35271286821E+02  0.15284738870E+03  0.20904280141E+03  0.12508807183E+03 0.  0.
          5    1    3    3  502    0  0.26923694039E+02  0.81323703267E+02  0.81881262213E+02  0.11857674104E+03  0.41800000000E+01 0. -1.
         -5    1    3    3    0  502  0.31774510403E+02 -0.46052416447E+02  0.70966126482E+02  0.90466060375E+02  0.41800000000E+01 0. -1.
        -11    1    1    2    0    0 -0.34143783077E+02 -0.51730492743E+02  0.24859385704E+03  0.25620450340E+03  0.00000000000E+00 0. -1.
         11    1    1    2    0    0 -0.24554421364E+02  0.16459205922E+02  0.19723758486E+02  0.35536625008E+02  0.00000000000E+00 0.  1.
</event>
<event>
 7    1  0.5109948E-006  0.1060164E+03  0.7561462E-02  0.1268130E+00
         -2   -1    0    0    0  501 -0.00000000000E+00  0.00000000000E+00  0.53591353405E+03  0.53591353405E+03  0.00000000000E+00 0.  1.
          2   -1    0    0  501    0  0.00000000000E+00 -0.00000000000E+00 -0.22074074411E+02  0.22074074411E+02  0.00000000000E+00 0. -1.
         23    2    1    2    0    0  0.50026808340E+01 -0.10128454662E+02  0.29084818835E+03  0.31681043352E+03  0.12509424332E+03 0.  0.
          5    1    3    3  502    0  0.52160038251E+02  0.28146442813E+02  0.18935996828E+03  0.19846299862E+03  0.41800000000E+01 0.  1.
         -5    1    3    3    0  502 -0.47157357417E+02 -0.38274897475E+02  0.10148822007E+03  0.11834743490E+03  0.41800000000E+01 0.  1.
        -11    1    1    2    0    0 -0.71566960312E+01  0.50652553654E+02  0.11770463632E+03  0.12834048816E+03  0.00000000000E+00 0. -1.
         11    1    1    2    0    0  0.21540151972E+01 -0.40524098992E+02  0.10528663497E+03  0.11283668678E+03  0.00000000000E+00 0.  1.
</event>
<event>
 7    1  0.5109948E-006  0.1221607E+03  0.7561462E-02  0.1239575E+00
         -2   -1    0    0    0  501 -0.00000000000E+00  0.00000000000E+00  0.10561352154E+03  0.10561352154E+03  0.00000000000E+00 0. -1.
          2   -1    0    0  501    0  0.00000000000E+00 -0.00000000000E+00 -0.25405150939E+03  0.25405150939E+03  0.00000000000E+00 0.  1.
         23    2    1    2    0    0 -0.38507951798E+02 -0.94916862375E+02 -0.58910302507E+01  0.16177683877E+03  0.12507984734E+03 0.  0.
          5    1    3    3  502    0  0.79117514905E+01 -0.33273827918E+02 -0.58778232964E+02  0.68132932612E+02  0.41800000000E+01 0. -1.
         -5    1    3    3    0  502 -0.46419703289E+02 -0.61643034457E+02  0.52887202713E+02  0.93643906162E+02  0.41800000000E+01 0. -1.
        -11    1    1    2    0    0 -0.26538086262E+02  0.36716633358E+02 -0.25844994229E+02  0.52156925852E+02  0.00000000000E+00 0. -1.
         11    1    1    2    0    0  0.65046038060E+02  0.58200229017E+02 -0.11670196337E+03  0.14573126631E+03  0.00000000000E+00 0.  1.
</event>
<event>
 7    1  0.5109948E-006  0.1710240E+03  0.7561462E-02  0.1176784E+00
          2   -1    0    0  501    0  0.00000000000E+00  0.00000000000E+00  0.46993013224E+03  0.46993013224E+03  0.00000000000E+00 0. -1.
         -2   -1    0    0    0  501 -0.00000000000E+00 -0.00000000000E+00 -0.73532495201E+02  0.73532495201E+02  0.00000000000E+00 0.  1.
         23    2    1    2    0    0  0.90958089110E+02 -0.10568119252E+03  0.12172271848E+03  0.22339693149E+03  0.12509148803E+03 0.  0.
          5    1    3    3  502    0 -0.12259923540E+01 -0.86705526463E+02  0.29841508980E+02  0.91800541582E+02  0.41800000000E+01 0. -1.
         -5    1    3    3    0  502  0.92184081464E+02 -0.18975666060E+02  0.91881209496E+02  0.13159638991E+03  0.41800000000E+01 0. -1.
        -11    1    1    2    0    0 -0.17929443678E+01  0.61475709975E+02  0.75237097632E+02  0.97175606129E+02  0.00000000000E+00 0.  1.
         11    1    1    2    0    0 -0.89165144742E+02  0.44205482549E+02  0.19943782093E+03  0.22289008982E+03  0.00000000000E+00 0. -1.
</event>
<event>
 7    1  0.5109948E-006  0.1799564E+03  0.7561462E-02  0.1167845E+00
         -4   -1    0    0    0  501 -0.00000000000E+00  0.00000000000E+00  0.49919542844E+03  0.49919542844E+03  0.00000000000E+00 0.  1.
          4   -1    0    0  501    0  0.00000000000E+00 -0.00000000000E+00 -0.99944893149E+02  0.99944893149E+02  0.00000000000E+00 0. -1.
         23    2    1    2    0    0 -0.16694130069E+03  0.15506573589E+02  0.34085343100E+03  0.39993523866E+03  0.12512906135E+03 0.  0.
          5    1    3    3  502    0 -0.89072152480E+02  0.55065600131E+02  0.10481946695E+03  0.14822503741E+03  0.41800000000E+01 0. -1.
         -5    1    3    3    0  502 -0.77869148214E+02 -0.39559026541E+02  0.23603396405E+03  0.25171020125E+03  0.41800000000E+01 0. -1.
        -11    1    1    2    0    0  0.74950116318E+02 -0.60889868526E+01  0.73912753510E+02  0.10544046106E+03  0.00000000000E+00 0.  1.
         11    1    1    2    0    0  0.91991184376E+02 -0.94175867368E+01 -0.15515649223E+02  0.93764621866E+02  0.00000000000E+00 0. -1.
</event>
<event>
 7    1  0.5109948E-006  0.2128713E+03  0.7561462E-02  0.1139312E+00
          2   -1    0    0  501    0  0.00000000000E+00  0.00000000000E+00  0.10933944861E+04  0.10933944861E+04  0.00000000000E+00 0. -1.
         -2   -1    0    0    0  501 -0.00000000000E+00 -0.00000000000E+00 -0.55684230080E+02  0.55684230080E+02  0.00000000000E+00 0.  1.
         23    2    1    2    0    0  0.18825557206E+03 -0.75263844284E+02  0.32116161501E+03  0.39987043436E+03  0.12508706826E+03 0.  0.
          5    1    3    3  502    0  0.10846403877E+03 -0.61990442803E+01  0.24972752983E+03  0.27236774298E+03  0.41800000000E+01 0.  1.
         -5    1    3    3    0  502  0.79791533289E+02 -0.69064800004E+02  0.71434085179E+02  0.12750269138E+03  0.41800000000E+01 0.  1.
        -11    1    1    2    0    0 -0.54228479259E+02  0.52468590315E+02  0.35530910677E+03  0.36323304129E+03  0.00000000000E+00 0. -1.
         11    1    1    2    0    0 -0.13402709280E+03  0.22795253969E+02  0.36123953427E+03  0.38597524056E+03  0.00000000000E+00 0.  1.
</event>
<event>
 7    1  0.5109948E-006  0.9779315E+02  0.7561462E-02  0.1285006E+00
         -1   -1    0    0    0  501 -0.00000000000E+00  0.00000000000E+00  0.39406695268E+02  0.39406695268E+02  0.00000000000E+00 0.  1.
          1   -1    0    0  501    0  0.00000000000E+00 -0.00000000000E+00 -0.49216202116E+03  0.49216202116E+03  0.00000000000E+00 0. -1.
         23    2    1    2    0    0 -0.84972205438E+02  0.12211399512E+02 -0.24297809039E+03  0.28645262515E+03  0.12508940832E+03 0.  0.
          5    1    3    3  502    0 -0.68001761659E+02  0.81282665403E+01 -0.25551004474E+03  0.26456221134E+03  0.41800000000E+01 0. -1.
         -5    1    3    3    0  502 -0.16970443778E+02  0.40831329721E+01  0.12531954354E+02  0.21890413811E+02  0.41800000000E+01 0. -1.
        -11    1    1    2    0    0  0.81840191861E+01 -0.29246256716E+02 -0.12691878262E+02  0.32915125334E+02  0.00000000000E+00 0.  1.
         11    1    1    2    0    0  0.76788186252E+02  0.17034857203E+02 -0.19708535725E+03  0.21220096595E+03  0.00000000000E+00 0. -1.
</event>
<event>
 7    1  0.5109948E-006  0.1586811E+03  0.7561462E-02  0.1190194E+00
          1   -1    0    0  501    0  0.00000000000E+00  0.00000000000E+00  0.25357559631E+03  0.25357559631E+03  0.00000000000E+00 0. -1.
         -1   -1    0    0    0  501 -0.00000000000E+00 -0.00000000000E+00 -0.11930339627E+03  0.11930339627E+03  0.00000000000E+00 0.  1.
         23    2    1    2    0    0 -0.12051349678E+03  0.48827797298E+02  0.31132870374E+02  0.18309108436E+03  0.12508170472E+03 0.  0.
          5    1    3    3  502    0  0.12165292208E+02 -0.69957021149E+01 -0.24640511156E+02  0.28662891909E+02  0.41800000000E+01 0.  1.
         -5    1    3    3    0  502 -0.13267878899E+03  0.55823499413E+02  0.55773381529E+02  0.15442819245E+03  0.41800000000E+01 0.  1.
        -11    1    1    2    0    0 -0.44455487944E+01  0.16934037317E+02  0.16872972502E+02  0.24315051409E+02  0.00000000000E+00 0. -1.
         11    1    1    2    0    0  0.12495904558E+03 -0.65761834616E+02  0.86266357162E+02  0.16547285681E+03  0.00000000000E+00 0.  1.
</event>
<event>
 7    1  0.5109948E-006  0.1275540E+03  0.7561462E-02  0.1231131E+00
          2   -1    0    0  501    0  0.00000000000E+00  0.00000000000E+00  0.89908072482E+03  0.89908072482E+03  0.00000000000E+00 0. -1.
         -2   -1    0    0    0  501 -0.00000000000E+00 -0.00000000000E+00 -0.26953459978E+02  0.26953459978E+02  0.00000000000E+00 0.  1.
         23    2    1    2    0    0  0.10945677554E+03  0.81501650096E+01  0.42210454986E+03  0.45372520577E+03  0.12508837051E+03 0.  0.
          5    1    3    3  502    0  0.15558107426E+02  0.89028869685E+01 -0.27381524847E+01  0.18608760896E+02  0.41800000000E+01 0.  1.
         -5    1    3    3    0  502  0.93898668110E+02 -0.75272195893E+00  0.42484270234E+03  0.43511644487E+03  0.41800000000E+01 0.  1.
        -11    1    1    2    0    0 -0.93271718108E+02  0.32644185874E+02  0.28985024824E+03  0.30623262836E+03  0.00000000000E+00 0. -1.
         11    1    1    2    0    0 -0.16185057428E+02 -0.40794350884E+02  0.16017246675E+03  0.16607635067E+03  0.00000000000E+00 0.  1.
</event>
<event>
 7    1  0.5109948E-006  0.1057576E+03  0.7561462E-02  0.1268634E+00
          1   -1    0    0  501    0  0.00000000000E+00  0.00000000000E+00  0.36274680480E+03  0.36274680480E+03  0.00000000000E+00 0. -1.
         -1   -1    0    0    0  501 -0.00000000000E+00 -0.00000000000E+00 -0.46747363704E+02  0.46747363704E+02  0.00000000000E+00 0.  1.
         23    2    1    2    0    0 -0.66477949767E+02  0.30554372185E+02  0.18456457040E+03  0.23378956132E+03  0.12345278804E+03 0.  0.
          5    1    3    3  502    0 -0.27680264358E+02 -0.20474812914E+02 -0.36879746889E+01  0.34878195998E+02  0.41800000000E+01 0. -1.
         -5    1    3    3    0  502 -0.38797685409E+02  0.51029185099E+02  0.18825254508E+03  0.19891136533E+03  0.41800000000E+01 0.  1.
        -11    1    1    2    0    0 -0.16655753041E+02  0.10689392394E+02  0.81695122589E+01  0.21410701755E+02  0.00000000000E+00 0.  1.
         11    1    1    2    0    0  0.83133702808E+02 -0.41243764578E+02  0.12326535844E+03  0.15429390543E+03  0.00000000000E+00 0. -1.
</event>
<event>
 7    1  0.5109948E-006  0.8350680E+02  0.7561462E-02  0.1319384E+00
          2   -1    0    0  501    0  0.00000000000E+00  0.00000000000E+00  0.80172454989E+02  0.80172454989E+02  0.00000000000E+00 0. -1.
         -2   -1    0    0    0  501 -0.00000000000E+00 -0.00000000000E+00 -0.18000377070E+03  0.18000377070E+03  0.00000000000E+00 0.  1.
         23    2    1    2    0    0  0.15750991308E+02  0.11109916019E+02 -0.10053099126E+03  0.16163495003E+03  0.12509137823E+03 0.  0.
          5    1    3    3  502    0 -0.45336117464E+02  0.37494966983E+02 -0.37554599673E+02  0.69921788109E+02  0.41800000000E+01 0.  1.
         -5    1    3    3    0  502  0.61087108771E+02 -0.26385050963E+02 -0.62976391589E+02  0.91713161923E+02  0.41800000000E+01 0.  1.
        -11    1    1    2    0    0  0.12020866612E+02 -0.42867452758E+01  0.44465356184E+02  0.46260623858E+02  0.00000000000E+00 0. -1.
         11    1    1    2    0    0 -0.27771857920E+02 -0.68231707436E+01 -0.43765680631E+02  0.52280651798E+02  0.00000000000E+00 0.  1.
</event>
<event>
 7    1  0.5109948E-006  0.1050681E+03  0.7561462E-02  0.1269986E+00
         -1   -1    0    0    0  501 -0.00000000000E+00  0.00000000000E+00  0.54726115865E+02  0.54726115865E+02  0.00000000000E+00 0.  1.
          1   -1    0    0  501    0  0.00000000000E+00 -0.00000000000E+00 -0.21801379014E+03  0.21801379014E+03  0.00000000000E+00 0. -1.
         23    2    1    2    0    0 -0.29563336146E+02 -0.79163426359E+01 -0.70352729118E+02  0.14674347719E+03  0.12508989678E+03 0.  0.
          5    1    3    3  502    0 -0.39504377437E+02 -0.60052164297E+02 -0.23263403281E+02  0.75667143501E+02  0.41800000000E+01 0.  1.
         -5    1    3    3    0  502  0.99410412915E+01  0.52135821661E+02 -0.47089325837E+02  0.71076333684E+02  0.41800000000E+01 0.  1.
        -11    1    1    2    0    0 -0.25828470636E+02  0.13637822992E+02 -0.35963387943E+02  0.46329962052E+02  0.00000000000E+00 0. -1.
         11    1    1    2    0    0  0.55391806782E+02 -0.57214803562E+01 -0.56971557219E+02  0.79666466772E+02  0.00000000000E+00 0.  1.
</event>
<event>
 7    1  0.5109948E-006  0.7497527E+02  0.7561462E-02  0.1343948E+00
         -4   -1    0    0    0  501 -0.00000000000E+00  0.00000000000E+00  0.86766589243E+02  0.86766589243E+02  0.00000000000E+00 0.  1.
          4   -1    0    0  501    0  0.00000000000E+00 -0.00000000000E+00 -0.14508911629E+03  0.14508911629E+03  0.00000000000E+00 0. -1.
         23    2    1    2    0    0 -0.69772788373E+01 -0.15310103664E+02 -0.96424427322E+01  0.12658274206E+03  0.12508849744E+03 0.  0.
          5    1    3    3  502    0 -0.99549343881E+00 -0.35182115891E+02  0.51138605211E+02  0.62220588463E+02  0.41800000000E+01 0.  1.
         -5    1    3    3    0  502 -0.59817853984E+01  0.19872012227E+02 -0.60781047944E+02  0.64362153597E+02  0.41800000000E+01 0.  1.
        -11    1    1    2    0    0  0.36136820999E+02 -0.24741719462E+02 -0.22346438822E+02  0.49166918165E+02  0.00000000000E+00 0. -1.
         11    1    1    2    0    0 -0.29159542162E+02  0.40051823126E+02 -0.26333645488E+02  0.56106045302E+02  0.00000000000E+00 0.  1.
</event>
<event>
 7    1  0.5109948E-006  0.9336087E+02  0.7561462E-02  0.1294911E+00
         -3   -1    0    0    0  501 -0.00000000000E+00  0.00000000000E+00  0.14605053852E+03  0.14605053852E+03  0.00000000000E+00 0.  1.
          3   -1    0    0  501    0  0.00000000000E+00 -0.00000000000E+00 -0.10732086240E+03  0.10732086240E+03  0.00000000000E+00 0. -1.
         23    2    1    2    0    0  0.21325805193E+02 -0.50156777377E+02  0.55026896671E+02  0.14713248842E+03  0.12509803159E+03 0.  0.
          5    1    3    3  502    0 -0.32948809456E+02 -0.61849416782E+02  0.19802917900E+01  0.70230821983E+02  0.41800000000E+01 0. -1.
         -5    1    3    3    0  502  0.54274614649E+02  0.11692639405E+02  0.53046604881E+02  0.76901666438E+02  0.41800000000E+01 0. -1.
        -11    1    1    2    0    0 -0.26571404425E+02  0.30284099460E+02  0.33480874793E+02  0.52384493795E+02  0.00000000000E+00 0.  1.
         11    1    1    2    0    0  0.52455992317E+01  0.19872677916E+02 -0.49778095335E+02  0.53854418705E+02  0.00000000000E+00 0. -1.
</event>
<event>
 7    1  0.5109948E-006  0.9925025E+02  0.7561462E-02  0.1281881E+00
         -1   -1    0    0    0  501 -0.00000000000E+00  0.00000000000E+00  0.35172991886E+02  0.35172991886E+02  0.00000000000E+00 0.  1.
          1   -1    0    0  501    0  0.00000000000E+00 -0.00000000000E+00 -0.38046407373E+03  0.38046407373E+03  0.00000000000E+00 0. -1.
         23    2    1    2    0    0  0.10602137151E+02  0.40226907787E+02 -0.19745346583E+03  0.23741314363E+03  0.12508605110E+03 0.  0.
          5    1    3    3  502    0 -0.22054877770E+02  0.61895147332E+02 -0.44511881806E+02  0.79474567747E+02  0.41800000000E+01 0.  1.
         -5    1    3    3    0  502  0.32657014921E+02 -0.21668239545E+02 -0.15294158403E+03  0.15793857589E+03  0.41800000000E+01 0.  1.
        -11    1    1    2    0    0 -0.47348074202E+02 -0.21429581025E+02 -0.11235870335E+03  0.12379638643E+03  0.00000000000E+00 0. -1.
         11    1    1    2    0    0  0.36745937051E+02 -0.18797326761E+02 -0.35478912661E+02  0.54427535556E+02  0.00000000000E+00 0.  1.
</event>
<event>
 7    1  0.5109948E-006  0.1738590E+03  0.7561462E-02  0.1173882E+00
          3   -1    0    0  501    0  0.00000000000E+00  0.00000000000E+00  0.67629710654E+03  0.67629710654E+03  0.00000000000E+00 0. -1.
         -3   -1    0    0    0  501 -0.00000000000E+00 -0.00000000000E+00 -0.61994301253E+02  0.61994301253E+02  0.00000000000E+00 0.  1.
         23    2    1    2    0    0 -0.19521278256E+02  0.15202575751E+03  0.17216875669E+03  0.26226552810E+03  0.12509282632E+03 0.  0.
          5    1    3    3  502    0 -0.64075273140E+02  0.64388470618E+02  0.44964858955E+02  0.10144371206E+03  0.41800000000E+01 0. -1.
         -5    1    3    3    0  502  0.44553994884E+02  0.87637286888E+02  0.12720389774E+03  0.16082181603E+03  0.41800000000E+01 0. -1.
        -11    1    1    2    0    0 -0.37912561896E+01 -0.11198978710E+03  0.19776467732E+03  0.22730365952E+03  0.00000000000E+00 0.  1.
         11    1    1    2    0    0  0.23312534446E+02 -0.40035970410E+02  0.24436937128E+03  0.24872222017E+03  0.00000000000E+00 0. -1.
</event>
<event>
 7    1  0.5109948E-006  0.1441737E+03  0.7561462E-02  0.1207821E+00
         -4   -1    0    0    0  501 -0.00000000000E+00  0.00000000000E+00  0.59738160567E+02  0.59738160567E+02  0.00000000000E+00 0.  1.
          4   -1    0    0  501    0  0.00000000000E+00 -0.00000000000E+00 -0.37356101586E+03  0.37356101586E+03  0.00000000000E+00 0. -1.
         23    2    1    2    0    0 -0.49608868874E+02 -0.83504171481E+02 -0.22063243773E+03  0.27158922655E+03  0.12509216152E+03 0.  0.
          5    1    3    3  502    0  0.29996062630E+02 -0.69554344575E+02 -0.12597880346E+03  0.14705679836E+03  0.41800000000E+01 0.  1.
         -5    1    3    3    0  502 -0.79604931505E+02 -0.13949826907E+02 -0.94653634272E+02  0.12453242819E+03  0.41800000000E+01 0.  1.
        -11    1    1    2    0    0  0.64001056832E+02  0.94019051506E+02 -0.74970663495E+02  0.13622157577E+03  0.00000000000E+00 0. -1.
         11    1    1    2    0    0 -0.14392187958E+02 -0.10514880025E+02 -0.18219754072E+02  0.25488374107E+02  0.00000000000E+00 0.  1.
</event>
<event>
 7    1  0.5109948E-006  0.9076846E+02  0.7561462E-02  0.1301001E+00
         -1   -1    0    0    0  501 -0.00000000000E+00  0.00000000000E+00  0.35781072475E+03  0.35781072475E+03  0.00000000000E+00 0.  1.
          1   -1    0    0  501    0  0.00000000000E+00 -0.00000000000E+00 -0.46105635296E+02  0.46105635296E+02  0.00000000000E+00 0. -1.
         23    2    1    2    0    0  0.50767706089E+02  0.41379819901E+02  0.20510211525E+03  0.24900488200E+03  0.12508758572E+03 0.  0.
          5    1    3    3  502    0  0.25306654743E+02  0.34211426218E+02  0.60634187745E+00  0.42763167664E+02  0.41800000000E+01 0. -1.
         -5    1    3    3    0  502  0.25461051345E+02  0.71683936827E+01  0.20449577337E+03  0.20624171433E+03  0.41800000000E+01 0. -1.
        -11    1    1    2    0    0 -0.38764640454E+02  0.23956045517E+02  0.49855006381E+02  0.67543401807E+02  0.00000000000E+00 0.  1.
         11    1    1    2    0    0 -0.12003065635E+02 -0.65335865418E+02  0.56747967823E+02  0.87368076245E+02  0.00000000000E+00 0. -1.
</event>
<event>
 7    1  0.5109948E-006  0.1115492E+03  0.7561462E-02  0.1257728E+00
          2   -1    0    0  501    0  0.00000000000E+00  0.00000000000E+00  0.42084635112E+03  0.42084635112E+03  0.00000000000E+00 0. -1.
         -2   -1    0    0    0  501 -0.00000000000E+00 -0.00000000000E+00 -0.50176999582E+02  0.50176999582E+02  0.00000000000E+00 0.  1.
         23    2    1    2    0    0 -0.90428451167E+02 -0.21340797341E+01  0.14849863895E+03  0.21420047894E+03  0.12509252708E+03 0.  0.
          5    1    3    3  502    0 -0.65676750612E+02  0.11990845267E+02  0.16704619175E+03  0.17994198654E+03  0.41800000000E+01 0.  1.
         -5    1    3    3    0  502 -0.24751700555E+02 -0.14124925001E+02 -0.18547552799E+02  0.34258492399E+02  0.41800000000E+01 0.  1.
        -11    1    1    2    0    0  0.77606156263E+02  0.40082365463E+02  0.13364793518E+03  0.15965926872E+03  0.00000000000E+00 0.  1.
         11    1    1    2    0    0  0.12822294904E+02 -0.37948285729E+02  0.88522777406E+02  0.97163603042E+02  0.00000000000E+00 0. -1.
</event>
<event>
 7    1  0.5109948E-006  0.1636385E+03  0.7561462E-02  0.1184649E+00
         -2   -1    0    0    0  501 -0.00000000000E+00  0.00000000000E+00  0.19756207460E+03  0.19756207460E+03  0.00000000000E+00 0.  1.
          2   -1    0    0  501    0  0.00000000000E+00 -0.00000000000E+00 -0.31805114866E+03  0.31805114866E+03  0.00000000000E+00 0. -1.
         23    2    1    2    0    0 -0.10437673910E+03 -0.63802381386E+02  0.13248940600E+03  0.21946826890E+03  0.12509049051E+03 0.  0.
          5    1    3    3  502    0 -0.10637266313E+03  0.33633632375E+01  0.68836930878E+02  0.12681660430E+03  0.41800000000E+01 0. -1.
         -5    1    3    3    0  502  0.19959240335E+01 -0.67165744623E+02  0.63652475121E+02  0.92651664597E+02  0.41800000000E+01 0. -1.
        -11    1    1    2    0    0  0.23211141307E+02  0.68317374818E+02 -0.13110156414E+03  0.14964504971E+03  0.00000000000E+00 0. -1.
         11    1    1    2    0    0  0.81165597792E+02 -0.45149934326E+01 -0.12187691591E+03  0.14649990465E+03  0.00000000000E+00 0.  1.
</event>
<event>
 7    1  0.5109948E-006  0.1562019E+03  0.7561462E-02  0.1193053E+00
          4   -1    0    0  501    0  0.00000000000E+00  0.00000000000E+00  0.62772612819E+02  0.62772612819E+02  0.00000000000E+00 0. -1.
         -4   -1    0    0    0  501 -0.00000000000E+00 -0.00000000000E+00 -0.45714796227E+03  0.45714796227E+03  0.00000000000E+00 0.  1.
         23    2    1    2    0    0  0.49641628928E+02  0.10924952271E+03 -0.28789111202E+03  0.33604945787E+03  0.12509275046E+03 0.  0.
          5    1    3    3  502    0  0.29214031282E+02 -0.24226891172E+02 -0.59651636809E+02  0.70825080682E+02  0.41800000000E+01 0.  1.
         -5    1    3    3    0  502  0.20427597647E+02  0.13347641388E+03 -0.22823947521E+03  0.26522437718E+03  0.41800000000E+01 0.  1.
        -11    1    1    2    0    0  0.17669775974E+02 -0.32879463877E+02 -0.10926899823E+01  0.37342657902E+02  0.00000000000E+00 0. -1.
         11    1    1    2    0    0 -0.67311404903E+02 -0.76370058835E+02 -0.10539154745E+03  0.14652845932E+03  0.00000000000E+00 0.  1.
</event>
<event>
 7    1  0.5109948E-006  0.1132052E+03  0.7561462E-02  0.1254747E+00
          1   -1    0    0  501    0  0.00000000000E+00  0.00000000000E+00  0.25998276086E+02  0.25998276086E+02  0.00000000000E+00 0. -1.
         -1   -1    0    0    0  501 -0.00000000000E+00 -0.00000000000E+00 -0.80903379134E+03  0.80903379134E+03  0.00000000000E+00 0.  1.
         23    2    1    2    0    0  0.12851370731E+02 -0.94366339770E+02 -0.42607914448E+03  0.45415930030E+03  0.12508824433E+03 0.  0.
          5    1    3    3  502    0  0.19245339574E+02 -0.70926893753E+02 -0.42295100536E+03  0.42930878478E+03  0.41800000000E+01 0.  1.
         -5    1    3    3    0  502 -0.63939688432E+01 -0.23439446016E+02 -0.31281391250E+01  0.24850515518E+02  0.41800000000E+01 0.  1.
        -11    1    1    2    0    0 -0.48488367575E+02  0.69293736840E+02 -0.27933592345E+03  0.29185835928E+03  0.00000000000E+00 0.  1.
         11    1    1    2    0    0  0.35636996845E+02  0.25072602930E+02 -0.77620447323E+02  0.89014407848E+02  0.00000000000E+00 0. -1.
</event>
<event>
 6    1  0.5109948E-006  0.1222210E+03  0.7561462E-02  0.1239477E+00
         -1   -1    0    0    0  501 -0.00000000000E+00  0.00000000000E+00  0.57622897236E+02  0.57622897236E+02  0.00000000000E+00 0.  1.
          1   -1    0    0  501    0  0.00000000000E+00 -0.00000000000E+00 -0.46817616417E+03  0.46817616417E+03  0.00000000000E+00 0. -1.
          5    1    1    2  502    0 -0.75318895805E+02  0.46047843570E+02 -0.30770744994E+03  0.32014791443E+03  0.41800000000E+01 0. -1.
         -5    1    1    2    0  502  0.50770266325E+02 -0.42312614309E+02  0.51190954936E+00  0.66224706295E+02  0.41800000000E+01 0.  1.
        -11    1    1    2    0    0 -0.26596700824E+02 -0.23024725016E+02 -0.60427904206E+02  0.69921771026E+02  0.00000000000E+00 0.  1.
         11    1    1    2    0    0  0.51145330303E+02  0.19289495755E+02 -0.42929822333E+02  0.69504669655E+02  0.00000000000E+00 0. -1.
</event>
<event>
 7    1  0.5109948E-006  0.8621619E+02  0.7561462E-02  0.1312282E+00
          3   -1    0    0  501    0  0.00000000000E+00  0.00000000000E+00  0.40621514000E+03  0.40621514000E+03  0.00000000000E+00 0. -1.
         -3   -1    0    0    0  501 -0.00000000000E+00 -0.00000000000E+00 -0.55867427531E+02  0.55867427531E+02  0.00000000000E+00 0.  1.
         23    2    1    2    0    0 -0.28901441208E+02  0.34356481670E+02  0.44881679041E+02  0.14027794207E+03  0.12509146566E+03 0.  0.
          5    1    3    3  502    0  0.65025609191E+01  0.36166876563E+02  0.81279178201E+02  0.89297835740E+02  0.41800000000E+01 0.  1.
         -5    1    3    3    0  502 -0.35404002127E+02 -0.18103948925E+01 -0.36397499160E+02  0.50980106329E+02  0.41800000000E+01 0.  1.
        -11    1    1    2    0    0 -0.13391085087E+02 -0.52170455064E+02  0.19193832368E+03  0.19935244578E+03  0.00000000000E+00 0. -1.
         11    1    1    2    0    0  0.42292526295E+02  0.17813973393E+02  0.11352770975E+03  0.12245217968E+03  0.00000000000E+00 0.  1.
</event>
<event>
 7    1  0.5109948E-006  0.1251308E+03  0.7561462E-02  0.1234865E+00
         -1   -1    0    0    0  501 -0.00000000000E+00  0.00000000000E+00  0.93861342363E+02  0.93861342363E+02  0.00000000000E+00 0.  1.
          1   -1    0    0  501    0  0.00000000000E+00 -0.00000000000E+00 -0.24907727991E+03  0.24907727991E+03  0.00000000000E+00 0. -1.
         23    2    1    2    0    0  0.92267647994E+02 -0.53732720858E+02 -0.66494174612E+02  0.17738890996E+03  0.12507927870E+03 0.  0.
          5    1    3    3  502    0  0.53979455082E+02  0.16160498475E+01  0.28257229165E+02  0.61092852186E+02  0.41800000000E+01 0.  1.
         -5    1    3    3    0  502  0.38288192911E+02 -0.55348770706E+02 -0.94751403777E+02  0.11629605777E+03  0.41800000000E+01 0.  1.
        -11    1    1    2    0    0 -0.24515178788E+02 -0.17680963737E+02 -0.52650041955E+02  0.60709450562E+02  0.00000000000E+00 0. -1.
         11    1    1    2    0    0 -0.67752469205E+02  0.71413684595E+02 -0.36071720981E+02  0.10484026176E+03  0.00000000000E+00 0.  1.
</event>
<event>
 7    1  0.5109948E-006  0.9500885E+02  0.7561462E-02  0.1291156E+00
          1   -1    0    0  501    0  0.00000000000E+00  0.00000000000E+00  0.54918302593E+02  0.54918302593E+02  0.00000000000E+00 0. -1.
         -1   -1    0    0    0  501 -0.00000000000E+00 -0.00000000000E+00 -0.30140703698E+03  0.30140703698E+03  0.00000000000E+00 0.  1.
         23    2    1    2    0    0  0.41866566067E+02 -0.12591783631E+02 -0.20768050279E+03  0.24635318097E+03  0.12508931276E+03 0.  0.
          5    1    3    3  502    0  0.52985686784E+02 -0.52647266893E+02 -0.18330315997E+03  0.19798166221E+03  0.41800000000E+01 0. -1.
         -5    1    3    3    0  502 -0.11119120718E+02  0.40055483262E+02 -0.24377342821E+02  0.48371518768E+02  0.41800000000E+01 0. -1.
        -11    1    1    2    0    0  0.12994604472E+02 -0.74984493595E+01  0.21362143767E+02  0.26104169676E+02  0.00000000000E+00 0. -1.
         11    1    1    2    0    0 -0.54861170538E+02  0.20090232991E+02 -0.60170375361E+02  0.83867988921E+02  0.00000000000E+00 0.  1.
</event>
<event>
 7    1  0.5109948E-006  0.2310886E+03  0.7561462E-02  0.1125876E+00
          1   -1    0    0  501    0  0.00000000000E+00  0.00000000000E+00  0.46176475018E+03  0.46176475018E+03  0.00000000000E+00 0. -1.
         -1   -1    0    0    0  501 -0.00000000000E+00 -0.00000000000E+00 -0.12199910816E+03  0.12199910816E+03  0.00000000000E+00 0.  1.
         23    2    1    2    0    0 -0.20056217365E+03 -0.41335378379E+02  0.11408525951E+03  0.26570182993E+03  0.12509283346E+03 0.  0.
          5    1    3    3  502    0 -0.43349996645E+02  0.42776191024E+02  0.37206340753E+02  0.71489921806E+02  0.41800000000E+01 0.  1.
         -5    1    3    3    0  502 -0.15721217701E+03 -0.84111569402E+02  0.76878918760E+02  0.19421190812E+03  0.41800000000E+01 0.  1.
        -11    1    1    2    0    0  0.13737319030E+03 -0.14921649571E+02  0.12279222002E+03  0.18485664266E+03  0.00000000000E+00 0.  1.
         11    1    1    2    0    0  0.63188983352E+02  0.56257027950E+02  0.10288816249E+03  0.13320538574E+03  0.00000000000E+00 0. -1.
</event>
<event>
 6    1  0.5109948E-006  0.1476998E+03  0.7561462E-02  0.1203328E+00
         -2   -1    0    0    0  501 -0.00000000000E+00  0.00000000000E+00  0.30581232369E+02  0.30581232369E+02  0.00000000000E+00 0.  1.
          2   -1    0    0  501    0  0.00000000000E+00 -0.00000000000E+00 -0.72657199435E+03  0.72657199435E+03  0.00000000000E+00 0. -1.
          5    1    1    2  502    0 -0.92427025557E+02 -0.85949991678E+02 -0.25901567085E+03  0.28816097284E+03  0.41800000000E+01 0. -1.
         -5    1    1    2    0  502  0.38880339291E+02  0.10152841374E+02 -0.95580234731E+02  0.10376808104E+03  0.41800000000E+01 0.  1.
        -11    1    1    2    0    0  0.36615592912E+02  0.95770206724E+02 -0.25159519458E+03  0.27168506782E+03  0.00000000000E+00 0.  1.
         11    1    1    2    0    0  0.16931093354E+02 -0.19973056420E+02 -0.89799661824E+02  0.93539105024E+02  0.00000000000E+00 0. -1.
</event>
<event>
 7    1  0.5109948E-006  0.9029260E+02  0.7561462E-02  0.1302145E+00
          3   -1    0    0  501    0  0.00000000000E+00  0.00000000000E+00  0.10649302868E+03  0.10649302868E+03  0.00000000000E+00 0. -1.
         -3   -1    0    0    0  501 -0.00000000000E+00 -0.00000000000E+00 -0.12760365034E+03  0.12760365034E+03  0.00000000000E+00 0.  1.
         23    2    1    2    0    0  0.15480243901E+02 -0.41659950758E+02 -0.29092523948E+02  0.13590135969E+03  0.12509042796E+03 0.  0.
          5    1    3    3  502    0 -0.54522307099E+02 -0.20348536993E+02 -0.42039730511E+01  0.58496929138E+02  0.41800000000E+01 0. -1.
         -5    1    3    3    0  502  0.70002551000E+02 -0.21311413765E+02 -0.24888550897E+02  0.77404430551E+02  0.41800000000E+01 0. -1.
        -11    1    1    2    0    0  0.29191591539E+01  0.21317765424E+02  0.46309550312E+02  0.51064107384E+02  0.00000000000E+00 0. -1.
         11    1    1    2    0    0 -0.18399403055E+02  0.20342185334E+02 -0.38327648022E+02  0.47131211950E+02  0.00000000000E+00 0.  1.
</event>
<event>
 7    1  0.5109948E-006  0.6127341E+02  0.7561462E-02  0.1392564E+00
          1   -1    0    0  501    0  0.00000000000E+00  0.00000000000E+00  0.17105026415E+03  0.17105026415E+03  0.00000000000E+00 0. -1.
         -1   -1    0    0    0  501 -0.00000000000E+00 -0.00000000000E+00 -0.82321562218E+02  0.82321562218E+02  0.00000000000E+00 0.  1.
         23    2    1    2    0    0 -0.13196267993E+02  0.14679207580E+02  0.95815171130E+00  0.12666242647E+03  0.12511127687E+03 0.  0.
          5    1    3    3  502    0 -0.42618867820E+02  0.29497185831E+02  0.46866510103E+02  0.70002814482E+02  0.41800000000E+01 0.  1.
         -5    1    3    3    0  502  0.29422599827E+02 -0.14817978251E+02 -0.45908358392E+02  0.56659611985E+02  0.41800000000E+01 0.  1.
        -11    1    1    2    0    0  0.75528043998E+01  0.97127829629E+01 -0.15873909927E+02  0.20083924506E+02  0.00000000000E+00 0.  1.
         11    1    1    2    0    0  0.56434635933E+01 -0.24391990542E+02  0.10364446014E+03  0.10662547539E+03  0.00000000000E+00 0. -1.
</event>
<event>
 7    1  0.5109948E-006  0.1302442E+03  0.7561462E-02  0.1227094E+00
          2   -1    0    0  501    0  0.00000000000E+00  0.00000000000E+00  0.57326373347E+03  0.57326373347E+03  0.00000000000E+00 0. -1.
         -2   -1    0    0    0  501 -0.00000000000E+00 -0.00000000000E+00 -0.94325951484E+02  0.94325951484E+02  0.00000000000E+00 0.  1.
         23    2    1    2    0    0 -0.86437724773E+02 -0.76986806647E+02 -0.80765556236E+01  0.16039869658E+03  0.11074322757E+03 0.  0.
          5    1    3    3  502    0 -0.17423103834E+02 -0.37584194755E+02  0.47626269974E+02  0.63260336975E+02  0.41800000000E+01 0. -1.
         -5    1    3    3    0  502 -0.69014620939E+02 -0.39402611892E+02 -0.55702825598E+02  0.97138359606E+02  0.41800000000E+01 0.  1.
        -11    1    1    2    0    0  0.10112746515E+03  0.70096210492E+02  0.39382116778E+03  0.41259587386E+03  0.00000000000E+00 0. -1.
         11    1    1    2    0    0 -0.14689740373E+02  0.68905961551E+01  0.93193169829E+02  0.94595114517E+02  0.00000000000E+00 0.  1.
</event>
<event>
 7    1  0.5109948E-006  0.1161515E+03  0.7561462E-02  0.1249584E+00
          1   -1    0    0  501    0  0.00000000000E+00  0.00000000000E+00  0.77634649481E+03  0.77634649481E+03  0.00000000000E+00 0. -1.
         -1   -1    0    0    0  501 -0.00000000000E+00 -0.00000000000E+00 -0.28429328519E+02  0.28429328519E+02  0.00000000000E+00 0.  1.
         23    2    1    2    0    0  0.85846991780E+02  0.33103077933E+02  0.28131322160E+03  0.32132389103E+03  0.12508554886E+03 0.  0.
          5    1    3    3  502    0 -0.54010570823E+01 -0.50759780707E+01 -0.10301836145E+02  0.13361781279E+02  0.41800000000E+01 0.  1.
         -5    1    3    3    0  502  0.91248048862E+02  0.38179056003E+02  0.29161505774E+03  0.30796210975E+03  0.41800000000E+01 0.  1.
        -11    1    1    2    0    0  0.17226510275E+02 -0.39196344947E+01  0.42457419529E+02  0.45986396509E+02  0.00000000000E+00 0.  1.
         11    1    1    2    0    0 -0.10307350206E+03 -0.29183443438E+02  0.42414652517E+03  0.43746553580E+03  0.00000000000E+00 0. -1.
</event>
<event>
 7    1  0.5109948E-006  0.1093902E+03  0.7561462E-02  0.1261703E+00
         -1   -1    0    0    0  501 -0.00000000000E+00  0.00000000000E+00  0.54082923354E+02  0.54082923354E+02  0.00000000000E+00 0.  1.
          1   -1    0    0  501    0  0.00000000000E+00 -0.00000000000E+00 -0.36036024079E+03  0.36036024079E+03  0.00000000000E+00 0. -1.
         23    2    1    2    0    0  0.68817941362E+02  0.29724369245E+02 -0.10077991687E+03  0.17723589912E+03  0.12504609195E+03 0.  0.
          5    1    3    3  502    0  0.45777883958E+02 -0.16233922876E+02 -0.11400206921E+03  0.12398830225E+03  0.41800000000E+01 0. -1.
         -5    1    3    3    0  502  0.23040057404E+02  0.45958292121E+02  0.13222152340E+02  0.53247596870E+02  0.41800000000E+01 0.  1.
        -11    1    1    2    0    0 -0.87824342241E+02 -0.59690148565E+01 -0.15511821952E+03  0.17835472031E+03  0.00000000000E+00 0.  1.
         11    1    1    2    0    0  0.19006400878E+02 -0.23755354389E+02 -0.50379181051E+02  0.58852544719E+02  0.00000000000E+00 0. -1.
</event>
<event>
 7    1  0.5109948E-006  0.7588698E+02  0.7561462E-02  0.1341146E+00
         -1   -1    0    0    0  501 -0.00000000000E+00  0.00000000000E+00  0.24966720562E+03  0.24966720562E+03  0.00000000000E+00 0. -1.
          1   -1    0    0  501    0  0.00000000000E+00 -0.00000000000E+00 -0.79748131674E+02  0.79748131674E+02  0.00000000000E+00 0.  1.
         23    2    1    2    0    0 -0.36928237867E+02 -0.85429073316E+00  0.20915004227E+03  0.24648712526E+03  0.12509091964E+03 0.  0.
          5    1    3    3  502    0 -0.66482305495E+02  0.81229061472E+01  0.20417902272E+03  0.21492422913E+03  0.41800000000E+01 0.  1.
         -5    1    3    3    0  502  0.29554067628E+02 -0.89771968803E+01  0.49710195500E+01  0.31562896137E+02  0.41800000000E+01 0.  1.
        -11    1    1    2    0    0  0.31224203361E+02  0.17575349221E+02 -0.50539096832E+02  0.61951949803E+02  0.00000000000E+00 0.  1.
         11    1    1    2    0    0  0.57040345054E+01 -0.16721058488E+02  0.11308128509E+02  0.20976262226E+02  0.00000000000E+00 0. -1.
</event>
<event>
 7    1  0.5109948E-006  0.3639848E+03  0.7561462E-02  0.1057017E+00
          1   -1    0    0  501    0  0.00000000000E+00  0.00000000000E+00  0.35728470451E+03  0.35728470451E+03  0.00000000000E+00 0. -1.
         -1   -1    0    0    0  501 -0.00000000000E+00 -0.00000000000E+00 -0.53115276293E+03  0.53115276293E+03  0.00000000000E+00 0.  1.
         23    2    1    2    0    0  0.35289998393E+03  0.42011729990E+02 -0.31847756973E+03  0.49333488513E+03  0.12509181568E+03 0.  0.
          5    1    3    3  502    0  0.22939898288E+02  0.21038873805E+02  0.37639444363E+01  0.31630883993E+02  0.41800000000E+01 0. -1.
         -5    1    3    3    0  502  0.32996008564E+03  0.20972856185E+02 -0.32224151417E+03  0.46170400114E+03  0.41800000000E+01 0. -1.
        -11    1    1    2    0    0 -0.29844009320E+03 -0.67193945191E+02  0.10600944619E+03  0.32375842565E+03  0.00000000000E+00 0. -1.
         11    1    1    2    0    0 -0.54459890736E+02  0.25182215201E+02  0.38600065130E+02  0.71344156659E+02  0.00000000000E+00 0.  1.
</event>
<event>
 7    1  0.5109948E-006  0.1253618E+03  0.7561462E-02  0.1234505E+00
          1   -1    0    0  501    0  0.00000000000E+00  0.00000000000E+00  0.44129755402E+02  0.44129755402E+02  0.00000000000E+00 0. -1.
         -1   -1    0    0    0  501 -0.00000000000E+00 -0.00000000000E+00 -0.10206866165E+04  0.10206866165E+04  0.00000000000E+00 0.  1.
         23    2    1    2    0    0  0.53014853940E+02  0.10439928384E+03 -0.86114860600E+03  0.87802872251E+03  0.12509088984E+03 0.  0.
          5    1    3    3  502    0  0.70263062775E+01  0.31290069492E+02 -0.36126853339E+02  0.48487723816E+02  0.41800000000E+01 0. -1.
         -5    1    3    3    0  502  0.45988547662E+02  0.73109214348E+02 -0.82502175267E+03  0.82954099869E+03  0.41800000000E+01 0. -1.
        -11    1    1    2    0    0  0.13797964632E+02 -0.16775432408E+02 -0.59262673597E+02  0.63117853594E+02  0.00000000000E+00 0.  1.
         11    1    1    2    0    0 -0.66812818572E+02 -0.87623851432E+02 -0.56145581448E+02  0.12366979575E+03  0.00000000000E+00 0. -1.
</event>
<event>
 7    1  0.5109948E-006  0.1056921E+03  0.7561462E-02  0.1268762E+00
         -2   -1    0    0    0  501 -0.00000000000E+00  0.00000000000E+00  0.34655965714E+02  0.34655965714E+02  0.00000000000E+00 0.  1.
          2   -1    0    0  501    0  0.00000000000E+00 -0.00000000000E+00 -0.42039644348E+03  0.42039644348E+03  0.00000000000E+00 0. -1.
         23    2    1    2    0    0 -0.69151199380E+00 -0.37991745985E+02 -0.14985944949E+03  0.19886464241E+03  0.12508173507E+03 0.  0.
          5    1    3    3  502    0 -0.24685667198E+02 -0.77297112284E+02 -0.11568290777E+03  0.14136560148E+03  0.41800000000E+01 0. -1.
         -5    1    3    3    0  502  0.23994155204E+02  0.39305366298E+02 -0.34176541720E+02  0.57499040929E+02  0.41800000000E+01 0. -1.
        -11    1    1    2    0    0  0.28271096164E+02  0.47027961303E+02 -0.21081633916E+03  0.21784033805E+03  0.00000000000E+00 0.  1.
         11    1    1    2    0    0 -0.27579584170E+02 -0.90362153176E+01 -0.25064689115E+02  0.38347428736E+02  0.00000000000E+00 0. -1.
</event>
<event>
 7    1  0.5109948E-006  0.1524054E+03  0.7561462E-02  0.1197548E+00
         -1   -1    0    0    0  501 -0.00000000000E+00  0.00000000000E+00  0.92851273821E+02  0.92851273821E+02  0.00000000000E+00 0.  1.
          1   -1    0    0  501    0  0.00000000000E+00 -0.00000000000E+00 -0.30921998903E+03  0.30921998903E+03  0.00000000000E+00 0. -1.
         23    2    1    2    0    0 -0.24110035777E+02  0.12436922336E+03 -0.84485941683E+02  0.19706473902E+03  0.12509052515E+03 0.  0.
          5    1    3    3  502    0  0.48810686201E+02  0.75047896884E+02 -0.37073233720E+02  0.96987457811E+02  0.41800000000E+01 0. -1.
         -5    1    3    3    0  502 -0.72920721978E+02  0.49321326472E+02 -0.47412707963E+02  0.10007728121E+03  0.41800000000E+01 0. -1.
        -11    1    1    2    0    0  0.10000071258E+01 -0.25556763468E+02 -0.92802790326E+02  0.96262693010E+02  0.00000000000E+00 0. -1.
         11    1    1    2    0    0  0.23110028651E+02 -0.98812459888E+02 -0.39079983197E+02  0.10874383081E+03  0.00000000000E+00 0.  1.
</event>
<event>
 7    1  0.5109948E-006  0.9963272E+02  0.7561462E-02  0.1281070E+00
          2   -1    0    0  501    0  0.00000000000E+00  0.00000000000E+00  0.28425134751E+03  0.28425134751E+03  0.00000000000E+00 0. -1.
         -2   -1    0    0    0  501 -0.00000000000E+00 -0.00000000000E+00 -0.57610791679E+02  0.57610791679E+02  0.00000000000E+00 0.  1.
         23    2    1    2    0    0  0.59285051961E+02  0.38982282286E+02  0.78861107136E+02  0.15468213181E+03  0.11257509477E+03 0.  0.
          5    1    3    3  502    0  0.27440083536E+02 -0.13722723324E+02  0.87076163720E+02  0.92417541669E+02  0.41800000000E+01 0. -1.
         -5    1    3    3    0  502  0.31844968425E+02  0.52705005609E+02 -0.82150565840E+01  0.62264590137E+02  0.41800000000E+01 0.  1.
        -11    1    1    2    0    0 -0.25830459725E+02  0.24004040059E+02  0.85534480983E+02  0.92517857875E+02  0.00000000000E+00 0.  1.
         11    1    1    2    0    0 -0.33454592236E+02 -0.62986322344E+02  0.62244967712E+02  0.94662149509E+02  0.00000000000E+00 0. -1.
</event>
<event>
 7    1  0.5109948E-006  0.1320775E+03  0.7561462E-02  0.1224405E+00
         -1   -1    0    0    0  501 -0.00000000000E+00  0.00000000000E+00  0.11031012208E+03  0.11031012208E+03  0.00000000000E+00 0.  1.
          1   -1    0    0  501    0  0.00000000000E+00 -0.00000000000E+00 -0.30747884625E+03  0.30747884625E+03  0.00000000000E+00 0. -1.
         23    2    1    2    0    0  0.83811758089E+02 -0.83605598513E+02 -0.28612236738E+01  0.17225022717E+03  0.12509055624E+03 0.  0.
          5    1    3    3  502    0  0.44712288588E+01 -0.62064261409E+02 -0.47696122035E+02  0.78513418527E+02  0.41800000000E+01 0. -1.
         -5    1    3    3    0  502  0.79340529230E+02 -0.21541337104E+02  0.44834898361E+02  0.93736808639E+02  0.41800000000E+01 0. -1.
        -11    1    1    2    0    0 -0.41235131867E+02  0.29896322688E+02 -0.16190497079E+03  0.16972726881E+03  0.00000000000E+00 0. -1.
         11    1    1    2    0    0 -0.42576626222E+02  0.53709275824E+02 -0.32402529697E+02  0.75811472356E+02  0.00000000000E+00 0.  1.
</event>
<event>
 7    1  0.5109948E-006  0.3705382E+03  0.7561462E-02  0.1054487E+00
         -2   -1    0    0    0  501 -0.00000000000E+00  0.00000000000E+00  0.32294951227E+03  0.32294951227E+03  0.00000000000E+00 0.  1.
          2   -1    0    0  501    0  0.00000000000E+00 -0.00000000000E+00 -0.43852980230E+03  0.43852980230E+03  0.00000000000E+00 0. -1.
         23    2    1    2    0    0  0.26242243178E+03 -0.24423086156E+03 -0.21229495237E+02  0.38025781114E+03  0.12502425775E+03 0.  0.
          5    1    3    3  502    0  0.15225585690E+03 -0.20365927606E+03  0.21572663344E+02  0.25522891468E+03  0.41800000000E+01 0. -1.
         -5    1    3    3    0  502  0.11016657488E+03 -0.40571585505E+02 -0.42802158581E+02  0.12502889646E+03  0.41800000000E+01 0. -1.
        -11    1    1    2    0    0 -0.17523323800E+03  0.10286170860E+03 -0.55729111095E+02  0.21069635170E+03  0.00000000000E+00 0. -1.
         11    1    1    2    0    0 -0.87189193780E+02  0.14136915296E+03 -0.38621683691E+02  0.17052515173E+03  0.00000000000E+00 0.  1.
</event>
<event>
 7    1  0.5109948E-006  0.1572027E+03  0.7561462E-02  0.1191892E+00
          2   -1    0    0  501    0  0.00000000000E+00  0.00000000000E+00  0.36729689892E+03  0.36729689892E+03  0.00000000000E+00 0. -1.
         -2   -1    0    0    0  501 -0.00000000000E+00 -0.00000000000E+00 -0.97011174327E+02  0.97011174327E+02  0.00000000000E+00 0.  1.
         23    2    1    2    0    0 -0.11988192609E+02  0.14192637767E+03  0.68965415072E+02  0.20171629336E+03  0.12508565501E+03 0.  0.
          5    1    3    3  502    0 -0.17035654421E+02  0.35236236304E+02 -0.34950312947E+02  0.52638414162E+02  0.41800000000E+01 0.  1.
         -5    1    3    3    0  502  0.50474618121E+01  0.10669014136E+03  0.10391572802E+03  0.14907787919E+03  0.41800000000E+01 0.  1.
        -11    1    1    2    0    0 -0.38433539404E+02 -0.75899936480E+02  0.11135608088E+03  0.14013605552E+03  0.00000000000E+00 0. -1.
         11    1    1    2    0    0  0.50421732013E+02 -0.66026441188E+02  0.89964228640E+02  0.12245572437E+03  0.00000000000E+00 0.  1.
</event>
<event>
 7    1  0.5109948E-006  0.5601331E+02  0.7561462E-02  0.1415367E+00
          2   -1    0    0  501    0  0.00000000000E+00  0.00000000000E+00  0.79887627061E+02  0.79887627061E+02  0.00000000000E+00 0. -1.
         -2   -1    0    0    0  501 -0.00000000000E+00 -0.00000000000E+00 -0.15842042552E+03  0.15842042552E+03  0.00000000000E+00 0.  1.
         23    2    1    2    0    0  0.14928582670E+02 -0.30765362836E+02 -0.47880099186E+02  0.12750043161E+03  0.11311271384E+03 0.  0.
          5    1    3    3  502    0  0.32375548722E+02 -0.23192215650E+02 -0.80271858120E+02  0.89705622052E+02  0.41800000000E+01 0. -1.
         -5    1    3    3    0  502 -0.17446966052E+02 -0.75731471865E+01  0.32391758934E+02  0.37794809558E+02  0.41800000000E+01 0.  1.
        -11    1    1    2    0    0 -0.28730421598E+02  0.21527368878E+02 -0.64097191706E+02  0.73466418999E+02  0.00000000000E+00 0.  1.
         11    1    1    2    0    0  0.13801838928E+02  0.92379939585E+01  0.33444492435E+02  0.37341201968E+02  0.00000000000E+00 0. -1.
</event>
<event>
 7    1  0.5109948E-006  0.8736950E+02  0.7561462E-02  0.1309350E+00
         -3   -1    0    0    0  501 -0.00000000000E+00  0.00000000000E+00  0.71507591407E+02  0.71507591407E+02  0.00000000000E+00 0.  1.
          3   -1    0    0  501    0  0.00000000000E+00 -0.00000000000E+00 -0.17334921637E+03  0.17334921637E+03  0.00000000000E+00 0. -1.
         23    2    1    2    0    0 -0.20701007750E+02  0.88478700472E+01 -0.41540163524E+02  0.13371689139E+03  0.12509118806E+03 0.  0.
          5    1    3    3  502    0 -0.24219941399E+02  0.64931590107E+02 -0.13310983749E+02  0.70692090389E+02  0.41800000000E+01 0. -1.
         -5    1    3    3    0  502  0.35189336489E+01 -0.56083720060E+02 -0.28229179775E+02  0.63024800996E+02  0.41800000000E+01 0. -1.
        -11    1    1    2    0    0  0.12040706610E+02 -0.26606612036E+02  0.15320897562E+02  0.32979089160E+02  0.00000000000E+00 0.  1.
         11    1    1    2    0    0  0.86603011399E+01  0.17758741989E+02 -0.75622359003E+02  0.78160827235E+02  0.00000000000E+00 0. -1.
</event>
<event>
 7    1  0.5109948E-006  0.1681390E+03  0.7561462E-02  0.1179803E+00
          1   -1    0    0  501    0  0.00000000000E+00  0.00000000000E+00  0.23644802533E+03  0.23644802533E+03  0.00000000000E+00 0. -1.
         -1   -1    0    0    0  501 -0.00000000000E+00 -0.00000000000E+00 -0.16329782489E+03  0.16329782489E+03  0.00000000000E+00 0.  1.
         23    2    1    2    0    0  0.12770059736E+03 -0.84797298863E+02 -0.19477738248E+02  0.19880914647E+03  0.12509064703E+03 0.  0.
          5    1    3    3  502    0  0.47912855577E+01 -0.42921170036E+02 -0.49136772951E+02  0.65552102260E+02  0.41800000000E+01 0. -1.
         -5    1    3    3    0  502  0.12290931180E+03 -0.41876128826E+02  0.29659034704E+02  0.13325704422E+03  0.41800000000E+01 0. -1.
        -11    1    1    2    0    0 -0.92841786386E+02  0.29150841686E+02  0.13706974878E+02  0.98271308278E+02  0.00000000000E+00 0.  1.
         11    1    1    2    0    0 -0.34858810975E+02  0.55646457176E+02  0.78920963801E+02  0.10266539547E+03  0.00000000000E+00 0. -1.
</event>
<event>
 7    1  0.5109948E-006  0.1176341E+03  0.7561462E-02  0.1247052E+00
         -2   -1    0    0    0  501 -0.00000000000E+00  0.00000000000E+00  0.11004645366E+03  0.11004645366E+03  0.00000000000E+00 0.  1.
          2   -1    0    0  501    0  0.00000000000E+00 -0.00000000000E+00 -0.14384879508E+03  0.14384879508E+03  0.00000000000E+00 0. -1.
         23    2    1    2    0    0 -0.42027020305E+02 -0.46617512456E+02 -0.31071679070E+02  0.14336117553E+03  0.12509002560E+03 0.  0.
          5    1    3    3  502    0  0.67493116630E+01 -0.78493518882E+02 -0.40545633486E+01  0.78998086043E+02  0.41800000000E+01 0.  1.
         -5    1    3    3    0  502 -0.48776331968E+02  0.31876006427E+02 -0.27017115721E+02  0.64363089483E+02  0.41800000000E+01 0.  1.
        -11    1    1    2    0    0 -0.15424970518E+02 -0.91120340529E+01 -0.21835963126E+02  0.28244790063E+02  0.00000000000E+00 0. -1.
         11    1    1    2    0    0  0.57451990823E+02  0.55729546508E+02  0.19105300770E+02  0.82289283148E+02  0.00000000000E+00 0.  1.
</event>
<event>
 7    1  0.5109948E-006  0.1134470E+03  0.7561462E-02  0.1254316E+00
          1   -1    0    0  501    0  0.00000000000E+00  0.00000000000E+00  0.84430574464E+03  0.84430574464E+03  0.00000000000E+00 0. -1.
         -1   -1    0    0    0  501 -0.00000000000E+00 -0.00000000000E+00 -0.25752752406E+02  0.25752752406E+02  0.00000000000E+00 0.  1.
         23    2    1    2    0    0 -0.46016783253E+02  0.44617422655E+02  0.20909302470E+03  0.25194360692E+03  0.12508968521E+03 0.  0.
          5    1    3    3  502    0  0.33975602555E+02  0.51423790058E+01  0.13917352267E+02  0.37308855851E+02  0.41800000000E+01 0. -1.
         -5    1    3    3    0  502 -0.79992385808E+02  0.39475043649E+02  0.19517567243E+03  0.21463475107E+03  0.41800000000E+01 0. -1.
        -11    1    1    2    0    0 -0.92358311650E+01  0.17533880665E+02  0.10703368126E+03  0.10885286616E+03  0.00000000000E+00 0. -1.
         11    1    1    2    0    0  0.55252614418E+02 -0.62151303320E+02  0.50242628628E+03  0.50926202397E+03  0.00000000000E+00 0.  1.
</event>
<event>
 7    1  0.5109948E-006  0.1911086E+03  0.7561462E-02  0.1157465E+00
          1   -1    0    0  501    0  0.00000000000E+00  0.00000000000E+00  0.85005325000E+03  0.85005325000E+03  0.00000000000E+00 0. -1.
         -1   -1    0    0    0  501 -0.00000000000E+00 -0.00000000000E+00 -0.52871891512E+02  0.52871891512E+02  0.00000000000E+00 0.  1.
         23    2    1    2    0    0 -0.23750896955E+02 -0.17824735556E+03  0.35888997355E+03  0.42045772476E+03  0.12508581187E+03 0.  0.
          5    1    3    3  502    0 -0.20201088102E+02 -0.18186308405E+03  0.36694797549E+03  0.41006164710E+03  0.41800000000E+01 0.  1.
         -5    1    3    3    0  502 -0.35498088525E+01  0.36157284955E+01 -0.80580019478E+01  0.10396077666E+02  0.41800000000E+01 0.  1.
        -11    1    1    2    0    0 -0.10267291333E+01  0.16406807266E+03  0.41273913345E+03  0.44415422875E+03  0.00000000000E+00 0. -1.
         11    1    1    2    0    0  0.24777626088E+02  0.14179282895E+02  0.25552251494E+02  0.38313187995E+02  0.00000000000E+00 0.  1.
</event>
<event>
 7    1  0.5109948E-006  0.1017349E+03  0.7561462E-02  0.1276689E+00
         -1   -1    0    0    0  501 -0.00000000000E+00  0.00000000000E+00  0.34105742660E+02  0.34105742660E+02  0.00000000000E+00 0.  1.
          1   -1    0    0  501    0  0.00000000000E+00 -0.00000000000E+00 -0.40269161304E+03  0.40269161304E+03  0.00000000000E+00 0. -1.
         23    2    1    2    0    0  0.37258365112E+02  0.14134975008E+02 -0.18055902663E+03  0.22324386976E+03  0.12509308534E+03 0.  0.
          5    1    3    3  502    0  0.20329973289E+02  0.65711378482E+02 -0.13760356272E+03  0.15389446367E+03  0.41800000000E+01 0.  1.
         -5    1    3    3    0  502  0.16928391823E+02 -0.51576403473E+02 -0.42955463905E+02  0.69349406084E+02  0.41800000000E+01 0.  1.
        -11    1    1    2    0    0  0.94294275360E+01 -0.29494303878E+02 -0.14488079753E+03  0.14815287226E+03  0.00000000000E+00 0. -1.
         11    1    1    2    0    0 -0.46687792648E+02  0.15359328870E+02 -0.43146046225E+02  0.65400613686E+02  0.00000000000E+00 0.  1.
</event>
<event>
 7    1  0.5109948E-006  0.1941902E+03  0.7561462E-02  0.1154735E+00
         -1   -1    0    0    0  501 -0.00000000000E+00  0.00000000000E+00  0.19189508248E+04  0.19189508248E+04  0.00000000000E+00 0.  1.
          1   -1    0    0  501    0  0.00000000000E+00 -0.00000000000E+00 -0.26509937581E+02  0.26509937581E+02  0.00000000000E+00 0. -1.
         23    2    1    2    0    0 -0.86893635925E+02 -0.14533290540E+03  0.14112444692E+04  0.14268600499E+04  0.12508594149E+03 0.  0.
          5    1    3    3  502    0 -0.11427491494E+03 -0.13206334250E+03  0.10624330255E+04  0.10766990706E+04  0.41800000000E+01 0.  1.
         -5    1    3    3    0  502  0.27381279012E+02 -0.13269562904E+02  0.34881144375E+03  0.35016097931E+03  0.41800000000E+01 0.  1.
        -11    1    1    2    0    0  0.40007895023E+02  0.12610813269E+03  0.41276235081E+03  0.43344740285E+03  0.00000000000E+00 0.  1.
         11    1    1    2    0    0  0.46885740902E+02  0.19224772708E+02  0.68434067145E+02  0.85153309575E+02  0.00000000000E+00 0. -1.
</event>
<event>
 6    1  0.5109948E-006  0.1230773E+03  0.7561462E-02  0.1238105E+00
         -1   -1    0    0    0  501 -0.00000000000E+00  0.00000000000E+00  0.13851367515E+03  0.13851367515E+03  0.00000000000E+00 0.  1.
          1   -1    0    0  501    0  0.00000000000E+00 -0.00000000000E+00 -0.18092544527E+03  0.18092544527E+03  0.00000000000E+00 0. -1.
          5    1    1    2  502    0 -0.52070750857E+02  0.71232394892E+02 -0.27288900950E+02  0.92453089142E+02  0.41800000000E+01 0. -1.
         -5    1    1    2    0  502  0.45331646379E+02 -0.37395710966E+02  0.73427768050E+02  0.94140888475E+02  0.41800000000E+01 0.  1.
        -11    1    1    2    0    0  0.20286470820E+02  0.28573627449E+02 -0.28253485044E+02  0.45013914527E+02  0.00000000000E+00 0.  1.
         11    1    1    2    0    0 -0.13547366342E+02 -0.62410311375E+02 -0.60297152170E+02  0.87831228277E+02  0.00000000000E+00 0. -1.
</event>
<event>
 6    1  0.5109948E-006  0.2002119E+03  0.7561462E-02  0.1149560E+00
          1   -1    0    0  501    0  0.00000000000E+00  0.00000000000E+00  0.10439816410E+04  0.10439816410E+04  0.00000000000E+00 0. -1.
         -1   -1    0    0    0  501 -0.00000000000E+00 -0.00000000000E+00 -0.54910144470E+02  0.54910144470E+02  0.00000000000E+00 0.  1.
          5    1    1    2  502    0  0.34329230580E+02 -0.47446203644E+02  0.29232319241E+02  0.65586882840E+02  0.41800000000E+01 0. -1.
         -5    1    1    2    0  502 -0.12001097013E+03 -0.10053133805E+03  0.23120132503E+03  0.27925026048E+03  0.41800000000E+01 0.  1.
        -11    1    1    2    0    0  0.20644865958E+02  0.10531800100E+03  0.30488510789E+03  0.32322286559E+03  0.00000000000E+00 0.  1.
         11    1    1    2    0    0  0.65036873592E+02  0.42659540689E+02  0.42375274435E+03  0.43083177655E+03  0.00000000000E+00 0. -1.
</event>
<event>
 7    1  0.5109948E-006  0.1311618E+03  0.7561462E-02  0.1225742E+00
         -2   -1    0    0    0  501 -0.00000000000E+00  0.00000000000E+00  0.23231800162E+02  0.23231800162E+02  0.00000000000E+00 0.  1.
          2   -1    0    0  501    0  0.00000000000E+00 -0.00000000000E+00 -0.10342178440E+04  0.10342178440E+04  0.00000000000E+00 0. -1.
         23    2    1    2    0    0  0.35647306961E+00 -0.10941170263E+03 -0.42527478943E+03  0.45466558593E+03  0.11786051400E+03 0.  0.
          5    1    3    3  502    0 -0.11293059974E+01  0.42908547077E+01 -0.21901807588E+03  0.21910289073E+03  0.41800000000E+01 0. -1.
         -5    1    3    3    0  502  0.14857790670E+01 -0.11370255734E+03 -0.20625671355E+03  0.23556269520E+03  0.41800000000E+01 0.  1.
        -11    1    1    2    0    0  0.40140973431E+02  0.21245995096E+02 -0.18967221396E+03  0.19503394270E+03  0.00000000000E+00 0.  1.
         11    1    1    2    0    0 -0.40497446501E+02  0.88165707532E+02 -0.39603904044E+03  0.40775011553E+03  0.00000000000E+00 0. -1.
</event>
<event>
 7    1  0.5109948E-006  0.1427641E+03  0.7561462E-02  0.1209657E+00
          2   -1    0    0  501    0  0.00000000000E+00  0.00000000000E+00  0.63267173108E+03  0.63267173108E+03  0.00000000000E+00 0. -1.
         -2   -1    0    0    0  501 -0.00000000000E+00 -0.00000000000E+00 -0.39118377049E+02  0.39118377049E+02  0.00000000000E+00 0.  1.
         23    2    1    2    0    0  0.85935901697E+02  0.61732593535E+02  0.22806178474E+03  0.28081365556E+03  0.12509292220E+03 0.  0.
          5    1    3    3  502    0  0.11191311180E+03  0.35931461423E+02  0.20775854913E+03  0.23873981999E+03  0.41800000000E+01 0. -1.
         -5    1    3    3    0  502 -0.25977210105E+02  0.25801132112E+02  0.20303235612E+02  0.42073835568E+02  0.41800000000E+01 0. -1.
        -11    1    1    2    0    0 -0.93394389140E+02 -0.29446199069E+02  0.20616152992E+03  0.22823708503E+03  0.00000000000E+00 0.  1.
         11    1    1    2    0    0  0.74584874427E+01 -0.32286394465E+02  0.15933003937E+03  0.16273936754E+03  0.00000000000E+00 0. -1.
</event>
<event>
 7    1  0.6185163E-006  0.1990868E+03  0.7561462E-02  0.1150512E+00
          1   -1    0    0  501    0  0.00000000000E+00  0.00000000000E+00  0.48897367793E+02  0.48897367793E+02  0.00000000000E+00 0. -1.
         -1   -1    0    0    0  501 -0.00000000000E+00 -0.00000000000E+00 -0.10510152364E+04  0.10510152364E+04  0.00000000000E+00 0.  1.
         23    2    1    2    0    0 -0.17719131339E+03  0.90414301230E+02 -0.49360567273E+03  0.54668558867E+03  0.12508823006E+03 0.  0.
          5    1    3    3  502    0 -0.67583040018E+02  0.37091272079E+02 -0.34936298572E+03  0.35779211556E+03  0.41800000000E+01 0.  1.
         -5    1    3    3    0  502 -0.10960827337E+03  0.53323029151E+02 -0.14424268701E+03  0.18889347311E+03  0.41800000000E+01 0.  1.
        -11    1    1    2    0    0  0.83654407568E+02 -0.39528457008E+02 -0.35178555445E+03  0.36374941256E+03  0.00000000000E+00 0.  1.
         11    1    1    2    0    0  0.93536905819E+02 -0.50885844222E+02 -0.15672664143E+03  0.18947760297E+03  0.00000000000E+00 0. -1.
</event>
<event>
 7    1  0.5109948E-006  0.9798178E+02  0.7561462E-02  0.1284598E+00
          1   -1    0    0  501    0  0.00000000000E+00  0.00000000000E+00  0.14316301953E+03  0.14316301953E+03  0.00000000000E+00 0.  1.
         -1   -1    0    0    0  501 -0.00000000000E+00 -0.00000000000E+00 -0.10947070912E+03  0.10947070912E+03  0.00000000000E+00 0. -1.
         23    2    1    2    0    0  0.57935676090E+02  0.17188820187E+02  0.34074694365E+01  0.13896461166E+03  0.12509018484E+03 0.  0.
          5    1    3    3  502    0  0.23848934059E+00 -0.28445124627E+02  0.45712164328E+02  0.54002373649E+02  0.41800000000E+01 0. -1.
         -5    1    3    3    0  502  0.57697186749E+02  0.45633944814E+02 -0.42304694892E+02  0.84962238012E+02  0.41800000000E+01 0. -1.
        -11    1    1    2    0    0 -0.74773144696E+02 -0.10929743149E+02 -0.32377007961E+01  0.75637062076E+02  0.00000000000E+00 0. -1.
         11    1    1    2    0    0  0.16837468606E+02 -0.62590770384E+01  0.33522541769E+02  0.38032054915E+02  0.00000000000E+00 0.  1.
</event>
<event>
 7    1  0.5109948E-006  0.1079600E+03  0.7561462E-02  0.1264395E+00
         -1   -1    0    0    0  501 -0.00000000000E+00  0.00000000000E+00  0.10899028275E+03  0.10899028275E+03  0.00000000000E+00 0.  1.
          1   -1    0    0  501    0  0.00000000000E+00 -0.00000000000E+00 -0.12411696439E+03  0.12411696439E+03  0.00000000000E+00 0. -1.
         23    2    1    2    0    0 -0.18445580092E+02  0.39436577503E+02 -0.96553959253E+00  0.13245337349E+03  0.12508989093E+03 0.  0.
          5    1    3    3  502    0  0.18493423539E+02 -0.34728088495E+02  0.23426589355E+02  0.45981782626E+02  0.41800000000E+01 0. -1.
         -5    1    3    3    0  502 -0.36939003631E+02  0.74164665997E+02 -0.24392128947E+02  0.86471590863E+02  0.41800000000E+01 0. -1.
        -11    1    1    2    0    0  0.22945245128E+02  0.22002484708E+02  0.11655769555E+02  0.33859276000E+02  0.00000000000E+00 0.  1.
         11    1    1    2    0    0 -0.44996650355E+01 -0.61439062211E+02 -0.25816911597E+02  0.66794597649E+02  0.00000000000E+00 0. -1.
</event>
<event>
 7    1  0.5109948E-006  0.8891276E+02  0.7561462E-02  0.1305506E+00
          2   -1    0    0  501    0  0.00000000000E+00  0.00000000000E+00  0.39570117377E+02  0.39570117377E+02  0.00000000000E+00 0. -1.
         -2   -1    0    0    0  501 -0.00000000000E+00 -0.00000000000E+00 -0.41289685655E+03  0.41289685655E+03  0.00000000000E+00 0.  1.
         23    2    1    2    0    0 -0.27037340938E+02  0.65834262266E+02 -0.20449822773E+03  0.25006325730E+03  0.12508772767E+03 0.  0.
          5    1    3    3  502    0 -0.21344578851E+02 -0.11082697801E+02 -0.15806812564E+03  0.15994193316E+03  0.41800000000E+01 0. -1.
         -5    1    3    3    0  502 -0.56927620870E+01  0.76916960067E+02 -0.46430102091E+02  0.90121324149E+02  0.41800000000E+01 0. -1.
        -11    1    1    2    0    0  0.24036803570E+02 -0.23108737064E+02 -0.58015569549E+01  0.33844345431E+02  0.00000000000E+00 0. -1.
         11    1    1    2    0    0  0.30005373670E+01 -0.42725525202E+02 -0.16302695449E+03  0.16855937120E+03  0.00000000000E+00 0.  1.
</event>
<event>
 7    1  0.5109948E-006  0.1004807E+03  0.7561462E-02  0.1279288E+00
         -2   -1    0    0    0  501 -0.00000000000E+00  0.00000000000E+00  0.10160733244E+03  0.10160733244E+03  0.00000000000E+00 0.  1.
          2   -1    0    0  501    0  0.00000000000E+00 -0.00000000000E+00 -0.12154091662E+03  0.12154091662E+03  0.00000000000E+00 0. -1.
         23    2    1    2    0    0  0.11245428004E+02  0.85706443786E+01  0.60057944713E-02  0.12589596173E+03  0.12509947061E+03 0.  0.
          5    1    3    3  502    0 -0.93958993251E+01  0.55122943740E+02 -0.33003959151E+02  0.65065778796E+02  0.41800000000E+01 0.  1.
         -5    1    3    3    0  502  0.20641327329E+02 -0.46552299361E+02  0.33009964945E+02  0.60830182931E+02  0.41800000000E+01 0.  1.
        -11    1    1    2    0    0 -0.23466208943E+02 -0.47505399431E+02 -0.30048032695E+01  0.53070281514E+02  0.00000000000E+00 0. -1.
         11    1    1    2    0    0  0.12220780939E+02  0.38934755053E+02 -0.16934786696E+02  0.44182005819E+02  0.00000000000E+00 0.  1.
</event>
<event>
 7    1  0.5109948E-006  0.1810045E+03  0.7561462E-02  0.1166834E+00
         -1   -1    0    0    0  501 -0.00000000000E+00  0.00000000000E+00  0.33893688319E+02  0.33893688319E+02  0.00000000000E+00 0.  1.
          1   -1    0    0  501    0  0.00000000000E+00 -0.00000000000E+00 -0.10607470492E+04  0.10607470492E+04  0.00000000000E+00 0. -1.
         23    2    1    2    0    0 -0.12523637801E+03  0.87709263531E+02 -0.46770915397E+03  0.50771728484E+03  0.12509165970E+03 0.  0.
          5    1    3    3  502    0 -0.14256269256E+03  0.86291122018E+02 -0.33895641979E+03  0.37772901129E+03  0.41800000000E+01 0. -1.
         -5    1    3    3    0  502  0.17326314556E+02  0.14181415122E+01 -0.12875273418E+03  0.12998827355E+03  0.41800000000E+01 0. -1.
        -11    1    1    2    0    0  0.68399011324E+02 -0.98162212070E+02 -0.40499093010E+03  0.42229361597E+03  0.00000000000E+00 0.  1.
         11    1    1    2    0    0  0.56837366682E+02  0.10452948540E+02 -0.15415327683E+03  0.16462983673E+03  0.00000000000E+00 0. -1.
</event>
<event>
 7    1  0.5109948E-006  0.1168767E+03  0.7561462E-02  0.1248340E+00
          1   -1    0    0  501    0  0.00000000000E+00  0.00000000000E+00  0.73757969241E+03  0.73757969241E+03  0.00000000000E+00 0. -1.
         -1   -1    0    0    0  501 -0.00000000000E+00 -0.00000000000E+00 -0.28101445565E+02  0.28101445565E+02  0.00000000000E+00 0.  1.
         23    2    1    2    0    0 -0.21846956555E+02  0.58505834966E+02  0.19845974013E+03  0.24276293011E+03  0.12508936624E+03 0.  0.
          5    1    3    3  502    0  0.10160534171E+02  0.84000564712E+02  0.17731524857E+03  0.19651336113E+03  0.41800000000E+01 0. -1.
         -5    1    3    3    0  502 -0.32007490727E+02 -0.25494729746E+02  0.21144491556E+02  0.46249568978E+02  0.41800000000E+01 0. -1.
        -11    1    1    2    0    0  0.22437260951E+02  0.19602263776E+02  0.92720830698E+02  0.97390101496E+02  0.00000000000E+00 0. -1.
         11    1    1    2    0    0 -0.59030439542E+00 -0.78108098742E+02  0.41829767602E+03  0.42552810637E+03  0.00000000000E+00 0.  1.
</event>
<event>
 7    1  0.5109948E-006  0.9712478E+02  0.7561462E-02  0.1286461E+00
         -2   -1    0    0    0  501 -0.00000000000E+00  0.00000000000E+00  0.65193906991E+02  0.65193906991E+02  0.00000000000E+00 0.  1.
          2   -1    0    0  501    0  0.00000000000E+00 -0.00000000000E+00 -0.23531166402E+03  0.23531166402E+03  0.00000000000E+00 0. -1.
         23    2    1    2    0    0 -0.39832718276E+02 -0.26976131800E+02 -0.76031668183E+02  0.15408805951E+03  0.12509179983E+03 0.  0.
          5    1    3    3  502    0 -0.14112651918E+02 -0.47392492068E+02  0.19243457939E+02  0.53225917766E+02  0.41800000000E+01 0. -1.
         -5    1    3    3    0  502 -0.25720066357E+02  0.20416360268E+02 -0.95275126122E+02  0.10086214175E+03  0.41800000000E+01 0. -1.
        -11    1    1    2    0    0 -0.33935946291E+02  0.13546274905E+02 -0.38502177048E+02  0.53080765366E+02  0.00000000000E+00 0. -1.
         11    1    1    2    0    0  0.73768664566E+02  0.13429856895E+02 -0.55583911801E+02  0.93336746136E+02  0.00000000000E+00 0.  1.
</event>
<event>
 7    1  0.5109948E-006  0.8544461E+02  0.7561462E-02  0.1314274E+00
         -1   -1    0    0    0  501 -0.00000000000E+00  0.00000000000E+00  0.21574253447E+03  0.21574253447E+03  0.00000000000E+00 0.  1.
          1   -1    0    0  501    0  0.00000000000E+00 -0.00000000000E+00 -0.11426260811E+03  0.11426260811E+03  0.00000000000E+00 0. -1.
         23    2    1    2    0    0  0.29969296973E+02 -0.40026822948E+02  0.16164965044E+03  0.21042777629E+03  0.12509570029E+03 0.  0.
          5    1    3    3  502    0  0.58658925144E+02 -0.33058590374E+02  0.16701967747E+03  0.18012991134E+03  0.41800000000E+01 0.  1.
         -5    1    3    3    0  502 -0.28689628171E+02 -0.69682325741E+01 -0.53700270382E+01  0.30297864944E+02  0.41800000000E+01 0.  1.
        -11    1    1    2    0    0  0.87585042450E+01  0.33133897305E+02  0.12877965636E+02  0.36611590325E+02  0.00000000000E+00 0.  1.
         11    1    1    2    0    0 -0.38727801218E+02  0.68929256431E+01 -0.73047689707E+02  0.82965775972E+02  0.00000000000E+00 0. -1.
</event>
<event>
 7    1  0.5109948E-006  0.1006701E+03  0.7561462E-02  0.1278893E+00
         -1   -1    0    0    0  501 -0.00000000000E+00  0.00000000000E+00  0.29956328876E+03  0.29956328876E+03  0.00000000000E+00 0.  1.
          1   -1    0    0  501    0  0.00000000000E+00 -0.00000000000E+00 -0.53699677637E+02  0.53699677637E+02  0.00000000000E+00 0. -1.
         23    2    1    2    0    0 -0.21070315121E+02 -0.18588266602E+02  0.22070706793E+03  0.25524214945E+03  0.12508982049E+03 0.  0.
          5    1    3    3  502    0 -0.18790692638E+02  0.42100587298E+02  0.30267380960E+02  0.55309459687E+02  0.41800000000E+01 0.  1.
         -5    1    3    3    0  502 -0.22796224831E+01 -0.60688853900E+02  0.19043968696E+03  0.19993268977E+03  0.41800000000E+01 0.  1.
        -11    1    1    2    0    0 -0.20438645055E+02 -0.26119472655E+02  0.14015320329E+02  0.36005475519E+02  0.00000000000E+00 0.  1.
         11    1    1    2    0    0  0.41508960176E+02  0.44707739257E+02  0.11141222865E+02  0.62015341419E+02  0.00000000000E+00 0. -1.
</event>
<event>
 7    1  0.5109948E-006  0.8898010E+02  0.7561462E-02  0.1305340E+00
         -1   -1    0    0    0  501 -0.00000000000E+00  0.00000000000E+00  0.48349723128E+02  0.48349723128E+02  0.00000000000E+00 0.  1.
          1   -1    0    0  501    0  0.00000000000E+00 -0.00000000000E+00 -0.25085258077E+03  0.25085258077E+03  0.00000000000E+00 0. -1.
         23    2    1    2    0    0  0.22215791031E+01  0.73840703322E+01 -0.94884148025E+02  0.15720882883E+03  0.12510857047E+03 0.  0.
          5    1    3    3  502    0  0.61799677856E+02  0.16333468473E+02 -0.39440086632E+02  0.75226160403E+02  0.41800000000E+01 0.  1.
         -5    1    3    3    0  502 -0.59578098753E+02 -0.89493981406E+01 -0.55444061393E+02  0.81982668423E+02  0.41800000000E+01 0.  1.
        -11    1    1    2    0    0  0.11001172711E+02  0.20154848072E+02  0.64939974972E+01  0.23862432930E+02  0.00000000000E+00 0.  1.
         11    1    1    2    0    0 -0.13222751814E+02 -0.27538918405E+02 -0.11411270712E+03  0.11813104214E+03  0.00000000000E+00 0. -1.
</event>
<event>
 7    1  0.5109948E-006  0.1450066E+03  0.7561462E-02  0.1206747E+00
          2   -1    0    0  501    0  0.00000000000E+00  0.00000000000E+00  0.73690733422E+03  0.73690733422E+03  0.00000000000E+00 0. -1.
         -2   -1    0    0    0  501 -0.00000000000E+00 -0.00000000000E+00 -0.61720702701E+02  0.61720702701E+02  0.00000000000E+00 0.  1.
         23    2    1    2    0    0  0.95954601220E+02  0.85052931131E+02  0.10596867364E+03  0.20812988162E+03  0.12508957286E+03 0.  0.
          5    1    3    3  502    0  0.50591915881E+02  0.22357958838E+02  0.11735125257E+03  0.12980065160E+03  0.41800000000E+01 0. -1.
         -5    1    3    3    0  502  0.45362685340E+02  0.62694972293E+02 -0.11382578930E+02  0.78329230018E+02  0.41800000000E+01 0. -1.
        -11    1    1    2    0    0 -0.69508646691E+01 -0.65566154659E+02  0.24635204223E+03  0.25502267324E+03  0.00000000000E+00 0.  1.
         11    1    1    2    0    0 -0.89003736551E+02 -0.19486776473E+02  0.32286591565E+03  0.33547548207E+03  0.00000000000E+00 0. -1.
</event>
<event>
 7    1  0.5109948E-006  0.1097003E+03  0.7561462E-02  0.1261126E+00
         -1   -1    0    0    0  501 -0.00000000000E+00  0.00000000000E+00  0.38671310054E+02  0.38671310054E+02  0.00000000000E+00 0.  1.
          1   -1    0    0  501    0  0.00000000000E+00 -0.00000000000E+00 -0.31773896447E+03  0.31773896447E+03  0.00000000000E+00 0. -1.
         23    2    1    2    0    0 -0.19595352965E+02  0.60932384529E+01 -0.14185730746E+03  0.19024251808E+03  0.12509042567E+03 0.  0.
          5    1    3    3  502    0 -0.62986921503E+02 -0.29784628296E+02 -0.69929020856E+02  0.98802918586E+02  0.41800000000E+01 0.  1.
         -5    1    3    3    0  502  0.43391568538E+02  0.35877866749E+02 -0.71928286599E+02  0.91439599495E+02  0.41800000000E+01 0.  1.
        -11    1    1    2    0    0  0.43648511534E+02  0.27676097683E+02 -0.66825303809E+02  0.84479465975E+02  0.00000000000E+00 0. -1.
         11    1    1    2    0    0 -0.24053158570E+02 -0.33769336136E+02 -0.70385043152E+02  0.81688290469E+02  0.00000000000E+00 0.  1.
</event>
<event>
 7    1  0.5109948E-006  0.7528210E+02  0.7561462E-02  0.1343000E+00
          2   -1    0    0  501    0  0.00000000000E+00  0.00000000000E+00  0.41223006208E+03  0.41223006208E+03  0.00000000000E+00 0. -1.
         -2   -1    0    0    0  501 -0.00000000000E+00 -0.00000000000E+00 -0.38624014000E+02  0.38624014000E+02  0.00000000000E+00 0.  1.
         23    2    1    2    0    0 -0.34240322961E+02 -0.56537825671E+01  0.11173507274E+03  0.17127546905E+03  0.12508475065E+03 0.  0.
          5    1    3    3  502    0 -0.33414213761E+02  0.23581909044E+02  0.13013200121E+03  0.13647133858E+03  0.41800000000E+01 0.  1.
         -5    1    3    3    0  502 -0.82610920014E+00 -0.29235691611E+02 -0.18396928471E+02  0.34804130467E+02  0.41800000000E+01 0.  1.
        -11    1    1    2    0    0  0.71883636016E+00  0.35210552104E+02  0.40188233889E+02  0.53435885398E+02  0.00000000000E+00 0.  1.
         11    1    1    2    0    0  0.33521486601E+02 -0.29556769537E+02  0.22168274145E+03  0.22614272163E+03  0.00000000000E+00 0. -1.
</event>
<event>
 7    1  0.5109948E-006  0.9792430E+02  0.7561462E-02  0.1284722E+00
          1   -1    0    0  501    0  0.00000000000E+00  0.00000000000E+00  0.65348890077E+02  0.65348890077E+02  0.00000000000E+00 0. -1.
         -1   -1    0    0    0  501 -0.00000000000E+00 -0.00000000000E+00 -0.26637848224E+03  0.26637848224E+03  0.00000000000E+00 0.  1.
         23    2    1    2    0    0  0.27367452872E+01 -0.91434655258E+01 -0.21151583696E+03  0.24592155530E+03  0.12508944535E+03 0.  0.
          5    1    3    3  502    0 -0.18652977419E+02 -0.62778233155E+02 -0.90700372161E+02  0.11195119488E+03  0.41800000000E+01 0.  1.
         -5    1    3    3    0  502  0.21389722706E+02  0.53634767629E+02 -0.12081546480E+03  0.13397036042E+03  0.41800000000E+01 0.  1.
        -11    1    1    2    0    0 -0.17306565538E+02  0.37026048238E+02 -0.16773141046E+02  0.44178996360E+02  0.00000000000E+00 0.  1.
         11    1    1    2    0    0  0.14569820250E+02 -0.27882582712E+02  0.27259385849E+02  0.41626820653E+02  0.00000000000E+00 0. -1.
</event>
<event>
 7    1  0.5109948E-006  0.1358433E+03  0.7561462E-02  0.1219034E+00
         -1   -1    0    0    0  501 -0.00000000000E+00  0.00000000000E+00  0.43196449669E+03  0.43196449669E+03  0.00000000000E+00 0.  1.
          1   -1    0    0  501    0  0.00000000000E+00 -0.00000000000E+00 -0.48367700348E+02  0.48367700348E+02  0.00000000000E+00 0. -1.
         23    2    1    2    0    0  0.78576235695E+02  0.48691095254E+02  0.23997006183E+03  0.28597506124E+03  0.12510418661E+03 0.  0.
          5    1    3    3  502    0 -0.17823068207E+02 -0.27071671440E+02  0.56425192240E+02  0.65205919012E+02  0.41800000000E+01 0. -1.
         -5    1    3    3    0  502  0.96399303903E+02  0.75762766694E+02  0.18354486959E+03  0.22076914223E+03  0.41800000000E+01 0. -1.
        -11    1    1    2    0    0 -0.35844873388E+01 -0.40759092625E+02  0.98048158366E+02  0.10624308702E+03  0.00000000000E+00 0.  1.
         11    1    1    2    0    0 -0.74991748356E+02 -0.79320026282E+01  0.45578576152E+02  0.88114048774E+02  0.00000000000E+00 0. -1.
</event>
<event>
 7    1  0.5109948E-006  0.7667591E+02  0.7561462E-02  0.1338758E+00
          1   -1    0    0  501    0  0.00000000000E+00  0.00000000000E+00  0.84562634754E+03  0.84562634754E+03  0.00000000000E+00 0. -1.
         -1   -1    0    0    0  501 -0.00000000000E+00 -0.00000000000E+00 -0.14431025522E+02  0.14431025522E+02  0.00000000000E+00 0.  1.
         23    2    1    2    0    0  0.17158854014E+02  0.17406726085E+02  0.35609714705E+03  0.37428072610E+03  0.11262088353E+03 0.  0.
          5    1    3    3  502    0  0.29046216198E+02 -0.31175068595E+01  0.34743587128E+03  0.34868690623E+03  0.41800000000E+01 0. -1.
         -5    1    3    3    0  502 -0.11887362185E+02  0.20524232945E+02  0.86612757767E+01  0.25593819874E+02  0.41800000000E+01 0.  1.
        -11    1    1    2    0    0  0.15063526009E+02  0.35075279514E+02  0.14246380253E+03  0.14748938972E+03  0.00000000000E+00 0. -1.
         11    1    1    2    0    0 -0.32222380022E+02 -0.52482005599E+02  0.33263437244E+03  0.33828725724E+03  0.00000000000E+00 0.  1.
</event>
<event>
 7    1  0.5109948E-006  0.1744615E+03  0.7561462E-02  0.1173273E+00
          1   -1    0    0  501    0  0.00000000000E+00  0.00000000000E+00  0.35599926154E+03  0.35599926154E+03  0.00000000000E+00 0. -1.
         -1   -1    0    0    0  501 -0.00000000000E+00 -0.00000000000E+00 -0.11068821488E+03  0.11068821488E+03  0.00000000000E+00 0.  1.
         23    2    1    2    0    0 -0.75243135386E+02 -0.13080910772E+03  0.66668430927E+02  0.20703859297E+03  0.12509095576E+03 0.  0.
          5    1    3    3  502    0  0.17205245717E+02 -0.87252873375E+02  0.53614827184E+02  0.10392837190E+03  0.41800000000E+01 0. -1.
         -5    1    3    3    0  502 -0.92448381104E+02 -0.43556234342E+02  0.13053603744E+02  0.10311022107E+03  0.41800000000E+01 0. -1.
        -11    1    1    2    0    0  0.16885439521E+02  0.74949474112E+02  0.16621640241E+02  0.78605474757E+02  0.00000000000E+00 0.  1.
         11    1    1    2    0    0  0.58357695865E+02  0.55859633604E+02  0.16202097548E+03  0.18104340869E+03  0.00000000000E+00 0. -1.
</event>
<event>
 7    1  0.5109948E-006  0.1201996E+03  0.7561462E-02  0.1242768E+00
         -1   -1    0    0    0  501 -0.00000000000E+00  0.00000000000E+00  0.33439439565E+03  0.33439439565E+03  0.00000000000E+00 0.  1.
          1   -1    0    0  501    0  0.00000000000E+00 -0.00000000000E+00 -0.59223666777E+02  0.59223666777E+02  0.00000000000E+00 0. -1.
         23    2    1    2    0    0  0.36415545895E+02  0.81665470783E+02  0.14602067074E+03  0.21204324160E+03  0.12507981021E+03 0.  0.
          5    1    3    3  502    0  0.22657945062E+02 -0.28971223883E+02  0.14955176869E+02  0.39922975877E+02  0.41800000000E+01 0.  1.
         -5    1    3    3    0  502  0.13757600833E+02  0.11063669467E+03  0.13106549387E+03  0.17212026572E+03  0.41800000000E+01 0.  1.
        -11    1    1    2    0    0 -0.33390111893E+02 -0.50726562849E+02  0.13670172779E+03  0.14958424426E+03  0.00000000000E+00 0.  1.
         11    1    1    2    0    0 -0.30254340024E+01 -0.30938907934E+02 -0.75516696520E+01  0.31990576575E+02  0.00000000000E+00 0. -1.
</event>
<event>
 7    1  0.5109948E-006  0.1530306E+03  0.7561462E-02  0.1196798E+00
         -1   -1    0    0    0  501 -0.00000000000E+00  0.00000000000E+00  0.28354669141E+03  0.28354669141E+03  0.00000000000E+00 0.  1.
          1   -1    0    0  501    0  0.00000000000E+00 -0.00000000000E+00 -0.99181074243E+02  0.99181074243E+02  0.00000000000E+00 0. -1.
         23    2    1    2    0    0 -0.12127615183E+03 -0.41329025264E+01  0.14324286729E+03  0.22559041402E+03  0.12509008746E+03 0.  0.
          5    1    3    3  502    0 -0.14701421812E+03  0.34429554892E+01  0.12177996747E+03  0.19097870863E+03  0.41800000000E+01 0. -1.
         -5    1    3    3    0  502  0.25738066293E+02 -0.75758580157E+01  0.21462899824E+02  0.34611705390E+02  0.41800000000E+01 0. -1.
        -11    1    1    2    0    0  0.10872391194E+03  0.21035421536E+02  0.62477975457E+02  0.12714902832E+03  0.00000000000E+00 0.  1.
         11    1    1    2    0    0  0.12552239896E+02 -0.16902519010E+02 -0.21355225583E+02  0.29988323310E+02  0.00000000000E+00 0. -1.
</event>
<event>
 7    1  0.5109948E-006  0.7746571E+02  0.7561462E-02  0.1336401E+00
          2   -1    0    0  501    0  0.00000000000E+00  0.00000000000E+00  0.94143323700E+03  0.94143323700E+03  0.00000000000E+00 0. -1.
         -2   -1    0    0    0  501 -0.00000000000E+00 -0.00000000000E+00 -0.14432862653E+02  0.14432862653E+02  0.00000000000E+00 0.  1.
         23    2    1    2    0    0 -0.40672388410E+01  0.34394423364E+02  0.44836919655E+03  0.46677812665E+03  0.12508942527E+03 0.  0.
          5    1    3    3  502    0 -0.42285494215E+01 -0.96663134650E+01  0.40382543059E+03  0.40398486239E+03  0.41800000000E+01 0.  1.
         -5    1    3    3    0  502  0.16131058054E+00  0.44060736829E+02  0.44543765963E+02  0.62793264266E+02  0.41800000000E+01 0.  1.
        -11    1    1    2    0    0  0.43517162597E+02 -0.40448341846E+02  0.32312976913E+03  0.32854628212E+03  0.00000000000E+00 0. -1.
         11    1    1    2    0    0 -0.39449923756E+02  0.60539184815E+01  0.15550140866E+03  0.16054169088E+03  0.00000000000E+00 0.  1.
</event>
<event>
 7    1  0.5109948E-006  0.1585229E+03  0.7561462E-02  0.1190375E+00
          2   -1    0    0  501    0  0.00000000000E+00  0.00000000000E+00  0.20096863087E+03  0.20096863087E+03  0.00000000000E+00 0. -1.
         -2   -1    0    0    0  501 -0.00000000000E+00 -0.00000000000E+00 -0.15062695747E+03  0.15062695747E+03  0.00000000000E+00 0.  1.
         23    2    1    2    0    0  0.11441633714E+03 -0.60467142645E+02 -0.10135129548E+02  0.18027155702E+03  0.12509092643E+03 0.  0.
          5    1    3    3  502    0  0.21126093485E+02  0.24574205048E+02  0.33352406443E+02  0.46691099743E+02  0.41800000000E+01 0.  1.
         -5    1    3    3    0  502  0.93290243659E+02 -0.85041347693E+02 -0.43487535992E+02  0.13358045728E+03  0.41800000000E+01 0.  1.
        -11    1    1    2    0    0 -0.40978636128E+02  0.72857882299E+02  0.17724728972E+02  0.85449901399E+02  0.00000000000E+00 0.  1.
         11    1    1    2    0    0 -0.73437701015E+02 -0.12390739654E+02  0.42752073976E+02  0.85874129916E+02  0.00000000000E+00 0. -1.
</event>
<event>
 7    1  0.5109948E-006  0.1065728E+03  0.7561462E-02  0.1267051E+00
         -1   -1    0    0    0  501 -0.00000000000E+00  0.00000000000E+00  0.57444188078E+03  0.57444188078E+03  0.00000000000E+00 0.  1.
          1   -1    0    0  501    0  0.00000000000E+00 -0.00000000000E+00 -0.34671423202E+02  0.34671423202E+02  0.00000000000E+00 0. -1.
         23    2    1    2    0    0  0.42430167584E+02  0.78422441351E+02  0.31609526787E+03  0.35144561790E+03  0.12508959007E+03 0.  0.
          5    1    3    3  502    0  0.23451404746E+02  0.85006973654E+02  0.31875580685E+03  0.33075503134E+03  0.41800000000E+01 0.  1.
         -5    1    3    3    0  502  0.18978762839E+02 -0.65845323030E+01 -0.26605389850E+01  0.20690586561E+02  0.41800000000E+01 0.  1.
        -11    1    1    2    0    0 -0.14312387582E+00 -0.56892682554E+02  0.19288677669E+03  0.20110222881E+03  0.00000000000E+00 0.  1.
         11    1    1    2    0    0 -0.42287043709E+02 -0.21529758797E+02  0.30788413023E+02  0.56565457268E+02  0.00000000000E+00 0. -1.
</event>
<event>
 7    1  0.5109948E-006  0.9976404E+02  0.7561462E-02  0.1280793E+00
         -2   -1    0    0    0  501 -0.00000000000E+00  0.00000000000E+00  0.33442906754E+02  0.33442906754E+02  0.00000000000E+00 0.  1.
          2   -1    0    0  501    0  0.00000000000E+00 -0.00000000000E+00 -0.37777026646E+03  0.37777026646E+03  0.00000000000E+00 0. -1.
         23    2    1    2    0    0  0.20689101450E+02  0.22279190377E+02 -0.19798261499E+03  0.23615482951E+03  0.12509031305E+03 0.  0.
          5    1    3    3  502    0 -0.27985448175E+01  0.69509882188E+02 -0.75592670826E+02  0.10281624316E+03  0.41800000000E+01 0. -1.
         -5    1    3    3    0  502  0.23487646267E+02 -0.47230691812E+02 -0.12238994417E+03  0.13333858635E+03  0.41800000000E+01 0. -1.
        -11    1    1    2    0    0  0.26021919833E+02 -0.13777319292E+02 -0.10672825017E+02  0.31318748898E+02  0.00000000000E+00 0.  1.
         11    1    1    2    0    0 -0.46711021283E+02 -0.85018710845E+01 -0.13567191969E+03  0.14373959480E+03  0.00000000000E+00 0. -1.
</event>
<event>
 7    1  0.5109948E-006  0.1761810E+03  0.7561462E-02  0.1171551E+00
         -1   -1    0    0    0  501 -0.00000000000E+00  0.00000000000E+00  0.55037392636E+02  0.55037392636E+02  0.00000000000E+00 0.  1.
          1   -1    0    0  501    0  0.00000000000E+00 -0.00000000000E+00 -0.63250690841E+03  0.63250690841E+03  0.00000000000E+00 0. -1.
         23    2    1    2    0    0 -0.13280893667E+03  0.51380809425E+02 -0.20133104092E+03  0.27647688910E+03  0.12500832347E+03 0.  0.
          5    1    3    3  502    0 -0.30544775632E+02 -0.39990237857E+02 -0.71900814741E+02  0.87860127491E+02  0.41800000000E+01 0.  1.
         -5    1    3    3    0  502 -0.10226416104E+03  0.91371047282E+02 -0.12943022617E+03  0.18861676161E+03  0.41800000000E+01 0.  1.
        -11    1    1    2    0    0  0.14608300945E+02 -0.43858161077E+02 -0.12851896522E+03  0.13657988567E+03  0.00000000000E+00 0. -1.
         11    1    1    2    0    0  0.11820063572E+03 -0.75226483481E+01 -0.24761950964E+03  0.27448752627E+03  0.00000000000E+00 0.  1.
</event>
<event>
 7    1  0.5109948E-006  0.1704008E+03  0.7561462E-02  0.1177430E+00
          2   -1    0    0  501    0  0.00000000000E+00  0.00000000000E+00  0.98211320280E+03  0.98211320280E+03  0.00000000000E+00 0. -1.
         -2   -1    0    0    0  501 -0.00000000000E+00 -0.00000000000E+00 -0.32313725969E+02  0.32313725969E+02  0.00000000000E+00 0.  1.
         23    2    1    2    0    0 -0.45886859327E+02  0.13240740150E+03  0.45795216706E+03  0.49497891694E+03  0.12508643840E+03 0.  0.
          5    1    3    3  502    0  0.38472210321E+02  0.48272288138E+02  0.22421290473E+03  0.23259239845E+03  0.41800000000E+01 0.  1.
         -5    1    3    3    0  502 -0.84359069648E+02  0.84135113364E+02  0.23373926232E+03  0.26238651849E+03  0.41800000000E+01 0.  1.
        -11    1    1    2    0    0  0.57469925230E+02 -0.49045748856E+02  0.15769807932E+03  0.17486269473E+03  0.00000000000E+00 0. -1.
         11    1    1    2    0    0 -0.11583065903E+02 -0.83361652645E+02  0.33414923045E+03  0.34458531710E+03  0.00000000000E+00 0.  1.
</event>
<event>
 7    1  0.5109948E-006  0.9248760E+02  0.7561462E-02  0.1296937E+00
         -4   -1    0    0    0  501 -0.00000000000E+00  0.00000000000E+00  0.37873384868E+03  0.37873384868E+03  0.00000000000E+00 0.  1.
          4   -1    0    0  501    0  0.00000000000E+00 -0.00000000000E+00 -0.41782537489E+02  0.41782537489E+02  0.00000000000E+00 0. -1.
         23    2    1    2    0    0  0.37802460227E+01 -0.62475895477E+02  0.16690224700E+03  0.21776464164E+03  0.12509017275E+03 0.  0.
          5    1    3    3  502    0 -0.18116801654E+02 -0.30094607733E+02 -0.98280366768E+01  0.36714664940E+02  0.41800000000E+01 0. -1.
         -5    1    3    3    0  502  0.21897047676E+02 -0.32381287744E+02  0.17673028368E+03  0.18104997670E+03  0.41800000000E+01 0. -1.
        -11    1    1    2    0    0  0.38842568319E+02  0.54499372221E+02  0.10791414889E+03  0.12698184995E+03  0.00000000000E+00 0.  1.
         11    1    1    2    0    0 -0.42622814342E+02  0.79765232558E+01  0.62134915302E+02  0.75769894584E+02  0.00000000000E+00 0. -1.
</event>
<event>
 7    1  0.5109948E-006  0.1498676E+03  0.7561462E-02  0.1200636E+00
         -1   -1    0    0    0  501 -0.00000000000E+00  0.00000000000E+00  0.83708227137E+02  0.83708227137E+02  0.00000000000E+00 0.  1.
          1   -1    0    0  501    0  0.00000000000E+00 -0.00000000000E+00 -0.38740764234E+03  0.38740764234E+03  0.00000000000E+00 0. -1.
         23    2    1    2    0    0 -0.81579673215E+02  0.97285178046E+02 -0.73995043632E+02  0.19298470917E+03  0.12509269579E+03 0.  0.
          5    1    3    3  502    0  0.29421908578E+02  0.31603479706E+02  0.16305538419E+01  0.43411516211E+02  0.41800000000E+01 0. -1.
         -5    1    3    3    0  502 -0.11100158179E+03  0.65681698339E+02 -0.75625597474E+02  0.14957319295E+03  0.41800000000E+01 0. -1.
        -11    1    1    2    0    0  0.43743912946E+02 -0.59361728833E+02 -0.46313448219E+02  0.87076289860E+02  0.00000000000E+00 0.  1.
         11    1    1    2    0    0  0.37835760269E+02 -0.37923449213E+02 -0.18339092335E+03  0.19105487045E+03  0.00000000000E+00 0. -1.
</event>
<event>
 7    1  0.5109948E-006  0.1472280E+03  0.7561462E-02  0.1203921E+00
          2   -1    0    0  501    0  0.00000000000E+00  0.00000000000E+00  0.26738595128E+03  0.26738595128E+03  0.00000000000E+00 0. -1.
         -2   -1    0    0    0  501 -0.00000000000E+00 -0.00000000000E+00 -0.11534424523E+03  0.11534424523E+03  0.00000000000E+00 0.  1.
         23    2    1    2    0    0  0.31759256231E+02 -0.13430319226E+03  0.74936920026E+02  0.20076750109E+03  0.12508417048E+03 0.  0.
          5    1    3    3  502    0 -0.69871228092E+01 -0.91356322279E+02  0.10165474454E+03  0.13691587561E+03  0.41800000000E+01 0. -1.
         -5    1    3    3    0  502  0.38746379041E+02 -0.42946869979E+02 -0.26717824518E+02  0.63851625482E+02  0.41800000000E+01 0. -1.
        -11    1    1    2    0    0 -0.37305076962E+02  0.62930148689E+02 -0.46385607596E+01  0.73303401197E+02  0.00000000000E+00 0.  1.
         11    1    1    2    0    0  0.55458207302E+01  0.71373043570E+02  0.81743346787E+02  0.10865929422E+03  0.00000000000E+00 0. -1.
</event>
<event>
 7    1  0.5109948E-006  0.1156641E+03  0.7561462E-02  0.1250426E+00
         -1   -1    0    0    0  501 -0.00000000000E+00  0.00000000000E+00  0.55179217278E+02  0.55179217278E+02  0.00000000000E+00 0.  1.
          1   -1    0    0  501    0  0.00000000000E+00 -0.00000000000E+00 -0.31907820579E+03  0.31907820579E+03  0.00000000000E+00 0. -1.
         23    2    1    2    0    0  0.81128324917E+02 -0.83370908846E+01 -0.15089365188E+03  0.21228790145E+03  0.12508375888E+03 0.  0.
          5    1    3    3  502    0  0.10336349081E+03  0.48897719449E+01 -0.64499987822E+02  0.12200672904E+03  0.41800000000E+01 0. -1.
         -5    1    3    3    0  502 -0.22235165888E+02 -0.13226862830E+02 -0.86393664058E+02  0.90281172410E+02  0.41800000000E+01 0. -1.
        -11    1    1    2    0    0 -0.51311281568E+02  0.34547692855E+02 -0.27495418950E+02  0.67693343550E+02  0.00000000000E+00 0.  1.
         11    1    1    2    0    0 -0.29817043349E+02 -0.26210601970E+02 -0.85509917677E+02  0.94276178067E+02  0.00000000000E+00 0. -1.
</event>
<event>
 7    1  0.5109948E-006  0.1591128E+03  0.7561462E-02  0.1189702E+00
          1   -1    0    0  501    0  0.00000000000E+00  0.00000000000E+00  0.39992915102E+02  0.39992915102E+02  0.00000000000E+00 0. -1.
         -1   -1    0    0    0  501 -0.00000000000E+00 -0.00000000000E+00 -0.85858545342E+03  0.85858545342E+03  0.00000000000E+00 0.  1.
         23    2    1    2    0    0  0.52802643099E+02 -0.12777862303E+03 -0.56832283452E+03  0.59812536966E+03  0.12509043916E+03 0.  0.
          5    1    3    3  502    0 -0.36779923606E+02 -0.38365302747E+02 -0.24826451650E+03  0.25392400790E+03  0.41800000000E+01 0. -1.
         -5    1    3    3    0  502  0.89582566705E+02 -0.89413320280E+02 -0.32005831802E+03  0.34420136176E+03  0.41800000000E+01 0. -1.
        -11    1    1    2    0    0 -0.29497694423E+02  0.68563890688E+02 -0.21523684228E+03  0.22781136793E+03  0.00000000000E+00 0.  1.
         11    1    1    2    0    0 -0.23304948676E+02  0.59214732338E+02 -0.35032861514E+02  0.72641630933E+02  0.00000000000E+00 0. -1.
</event>
<event>
 7    1  0.5109948E-006  0.1287100E+03  0.7561462E-02  0.1229382E+00
         -1   -1    0    0    0  501 -0.00000000000E+00  0.00000000000E+00  0.27585534474E+03  0.27585534474E+03  0.00000000000E+00 0. -1.
          1   -1    0    0  501    0  0.00000000000E+00 -0.00000000000E+00 -0.75116966402E+02  0.75116966402E+02  0.00000000000E+00 0.  1.
         23    2    1    2    0    0 -0.72501515638E+02 -0.43195404493E+01  0.18288029137E+03  0.23316647950E+03  0.12508508302E+03 0.  0.
          5    1    3    3  502    0 -0.10505476615E+03 -0.18278946876E+02  0.11776691004E+03  0.15892495490E+03  0.41800000000E+01 0. -1.
         -5    1    3    3    0  502  0.32553250516E+02  0.13959406427E+02  0.65113381327E+02  0.74241524599E+02  0.41800000000E+01 0. -1.
        -11    1    1    2    0    0  0.25375152557E+02 -0.41929451072E+02 -0.13854495492E+01  0.49029549304E+02  0.00000000000E+00 0.  1.
         11    1    1    2    0    0  0.47126363082E+02  0.46248991522E+02  0.19243536519E+02  0.68776282335E+02  0.00000000000E+00 0. -1.
</event>
<event>
 7    1  0.5109948E-006  0.1031795E+03  0.7561462E-02  0.1273749E+00
          1   -1    0    0  501    0  0.00000000000E+00  0.00000000000E+00  0.33842925340E+03  0.33842925340E+03  0.00000000000E+00 0. -1.
         -1   -1    0    0    0  501 -0.00000000000E+00 -0.00000000000E+00 -0.44914884702E+02  0.44914884702E+02  0.00000000000E+00 0.  1.
         23    2    1    2    0    0  0.28209595331E+02  0.18496221251E+02  0.91535497585E+02  0.15862893915E+03  0.12508597663E+03 0.  0.
          5    1    3    3  502    0  0.63453911105E+02 -0.18649659081E+02  0.17548553307E+02  0.68553867444E+02  0.41800000000E+01 0. -1.
         -5    1    3    3    0  502 -0.35244315773E+02  0.37145880332E+02  0.73986944277E+02  0.90075071709E+02  0.41800000000E+01 0. -1.
        -11    1    1    2    0    0 -0.53037026562E+02  0.65587787059E+01  0.69788518708E+02  0.87899835655E+02  0.00000000000E+00 0.  1.
         11    1    1    2    0    0  0.24827431231E+02 -0.25054999957E+02  0.13219035240E+03  0.13681536329E+03  0.00000000000E+00 0. -1.
</event>
<event>
 7    1  0.5109948E-006  0.1142698E+03  0.7561462E-02  0.1252861E+00
         -1   -1    0    0    0  501 -0.00000000000E+00  0.00000000000E+00  0.20760574878E+02  0.20760574878E+02  0.00000000000E+00 0.  1.
          1   -1    0    0  501    0  0.00000000000E+00 -0.00000000000E+00 -0.65929395517E+03  0.65929395517E+03  0.00000000000E+00 0. -1.
         23    2    1    2    0    0 -0.36807872094E+02  0.16703156982E+02 -0.30583137828E+03  0.33288791296E+03  0.12509083001E+03 0.  0.
          5    1    3    3  502    0 -0.80422025368E+02  0.27675161832E+02 -0.17819887270E+03  0.19749918324E+03  0.41800000000E+01 0.  1.
         -5    1    3    3    0  502  0.43614153274E+02 -0.10972004850E+02 -0.12763250558E+03  0.13538872972E+03  0.41800000000E+01 0.  1.
        -11    1    1    2    0    0  0.66715120855E+02 -0.88608182660E+01 -0.20453205877E+03  0.21532019069E+03  0.00000000000E+00 0.  1.
         11    1    1    2    0    0 -0.29907248761E+02 -0.78423387163E+01 -0.12816994323E+03  0.13184642640E+03  0.00000000000E+00 0. -1.
</event>
<event>
 6    1  0.5109948E-006  0.2379290E+03  0.7561462E-02  0.1121180E+00
         -2   -1    0    0    0  501 -0.00000000000E+00  0.00000000000E+00  0.10988255319E+03  0.10988255319E+03  0.00000000000E+00 0.  1.
          2   -1    0    0  501    0  0.00000000000E+00 -0.00000000000E+00 -0.69876699943E+03  0.69876699943E+03  0.00000000000E+00 0. -1.
          5    1    1    2  502    0 -0.97285089839E+02  0.18935044947E+03 -0.21888397942E+03  0.30536150750E+03  0.41800000000E+01 0. -1.
         -5    1    1    2    0  502  0.87241037131E+02 -0.14558354982E+03 -0.64574168369E+02  0.18163937942E+03  0.41800000000E+01 0.  1.
        -11    1    1    2    0    0 -0.19396054828E+02  0.16902929953E+02 -0.15048345385E+03  0.15266691150E+03  0.00000000000E+00 0. -1.
         11    1    1    2    0    0  0.29440107536E+02 -0.60669829610E+02 -0.15494284460E+03  0.16898175419E+03  0.00000000000E+00 0.  1.
</event>
<event>
 7    1  0.5109948E-006  0.1045379E+03  0.7561462E-02  0.1271033E+00
          1   -1    0    0  501    0  0.00000000000E+00  0.00000000000E+00  0.75473737461E+03  0.75473737461E+03  0.00000000000E+00 0. -1.
         -1   -1    0    0    0  501 -0.00000000000E+00 -0.00000000000E+00 -0.40898493034E+02  0.40898493034E+02  0.00000000000E+00 0.  1.
         23    2    1    2    0    0 -0.16898988967E+02 -0.71687314824E+02  0.11441847211E+03  0.18483410515E+03  0.12508961880E+03 0.  0.
          5    1    3    3  502    0  0.14352046011E+02 -0.52991046954E+02 -0.92649492571E+01  0.55833179801E+02  0.41800000000E+01 0. -1.
         -5    1    3    3    0  502 -0.31251034978E+02 -0.18696267871E+02  0.12368342137E+03  0.12900092535E+03  0.41800000000E+01 0. -1.
        -11    1    1    2    0    0 -0.28426663527E+02  0.65770401036E+02  0.36752301563E+03  0.37444223569E+03  0.00000000000E+00 0.  1.
         11    1    1    2    0    0  0.45325652494E+02  0.59169137887E+01  0.23189739383E+03  0.23635952680E+03  0.00000000000E+00 0. -1.
</event>
<event>
 7    1  0.5109948E-006  0.1098210E+03  0.7561462E-02  0.1260902E+00
         -2   -1    0    0    0  501 -0.00000000000E+00  0.00000000000E+00  0.75935366037E+02  0.75935366037E+02  0.00000000000E+00 0.  1.
          2   -1    0    0  501    0  0.00000000000E+00 -0.00000000000E+00 -0.20969963317E+03  0.20969963317E+03  0.00000000000E+00 0. -1.
         23    2    1    2    0    0 -0.17139198163E+02 -0.59797223978E+02 -0.62206724801E+02  0.15299217900E+03  0.12516976518E+03 0.  0.
          5    1    3    3  502    0 -0.38152442779E+02  0.23643111082E+02 -0.47702982903E+02  0.65632709601E+02  0.41800000000E+01 0. -1.
         -5    1    3    3    0  502  0.21013244616E+02 -0.83440335059E+02 -0.14503741898E+02  0.87359469396E+02  0.41800000000E+01 0. -1.
        -11    1    1    2    0    0 -0.20951377123E+02  0.40768997983E+02 -0.77108161247E+02  0.89703622730E+02  0.00000000000E+00 0. -1.
         11    1    1    2    0    0  0.38090575286E+02  0.19028225994E+02  0.55506189131E+01  0.42939197482E+02  0.00000000000E+00 0.  1.
</event>
<event>
 7    1  0.5109948E-006  0.1358868E+03  0.7561462E-02  0.1218973E+00
          1   -1    0    0  501    0  0.00000000000E+00  0.00000000000E+00  0.41433189803E+03  0.41433189803E+03  0.00000000000E+00 0. -1.
         -1   -1    0    0    0  501 -0.00000000000E+00 -0.00000000000E+00 -0.59450266597E+02  0.59450266597E+02  0.00000000000E+00 0.  1.
         23    2    1    2    0    0 -0.34504551668E+02  0.10340944474E+03  0.14713114027E+03  0.22176091726E+03  0.12508498968E+03 0.  0.
          5    1    3    3  502    0 -0.47010665127E+02 -0.56023680056E+01  0.14744890207E+02  0.49762167860E+02  0.41800000000E+01 0.  1.
         -5    1    3    3    0  502  0.12506113459E+02  0.10901181274E+03  0.13238625006E+03  0.17199874940E+03  0.41800000000E+01 0.  1.
        -11    1    1    2    0    0  0.18817684128E+02 -0.94589831412E+02  0.21254057974E+03  0.23339845646E+03  0.00000000000E+00 0. -1.
         11    1    1    2    0    0  0.15686867540E+02 -0.88196133231E+01 -0.47900885757E+01  0.18622790901E+02  0.00000000000E+00 0.  1.
</event>
<event>
 7    1  0.5109948E-006  0.1289003E+03  0.7561462E-02  0.1229097E+00
         -3   -1    0    0    0  501 -0.00000000000E+00  0.00000000000E+00  0.22183740044E+03  0.22183740044E+03  0.00000000000E+00 0.  1.
          3   -1    0    0  501    0  0.00000000000E+00 -0.00000000000E+00 -0.76054564415E+02  0.76054564415E+02  0.00000000000E+00 0. -1.
         23    2    1    2    0    0  0.70579450231E+02  0.80205719422E+01  0.85010134748E+02  0.16709240772E+03  0.12508941338E+03 0.  0.
          5    1    3    3  502    0  0.92481936241E+02 -0.31943641444E+02  0.54292466956E+02  0.11197521658E+03  0.41800000000E+01 0.  1.
         -5    1    3    3    0  502 -0.21902486011E+02  0.39964213386E+02  0.30717667792E+02  0.55117191144E+02  0.41800000000E+01 0.  1.
        -11    1    1    2    0    0 -0.42628141549E+02 -0.48716554558E+02  0.23227940182E+02  0.68774983424E+02  0.00000000000E+00 0. -1.
         11    1    1    2    0    0 -0.27951308682E+02  0.40695982616E+02  0.37544761096E+02  0.62024573709E+02  0.00000000000E+00 0.  1.
</event>
<event>
 7    1  0.5109948E-006  0.1260656E+03  0.7561462E-02  0.1233413E+00
          1   -1    0    0  501    0  0.00000000000E+00  0.00000000000E+00  0.32345465828E+03  0.32345465828E+03  0.00000000000E+00 0. -1.
         -1   -1    0    0    0  501 -0.00000000000E+00 -0.00000000000E+00 -0.65343043038E+02  0.65343043038E+02  0.00000000000E+00 0.  1.
         23    2    1    2    0    0  0.85563127117E+02  0.27058026442E+02  0.88796946172E+02  0.17772638105E+03  0.12509429786E+03 0.  0.
          5    1    3    3  502    0  0.32962935723E+02  0.56675009154E+02 -0.52377281862E+01  0.65905371485E+02  0.41800000000E+01 0.  1.
         -5    1    3    3    0  502  0.52600191394E+02 -0.29616982711E+02  0.94034674358E+02  0.11182100957E+03  0.41800000000E+01 0.  1.
        -11    1    1    2    0    0 -0.34503625780E+02 -0.57076212144E+02  0.93983239871E+02  0.11524341006E+03  0.00000000000E+00 0.  1.
         11    1    1    2    0    0 -0.51059501336E+02  0.30018185702E+02  0.75331429200E+02  0.95827910208E+02  0.00000000000E+00 0. -1.
</event>
<event>
 7    1  0.5109948E-006  0.8390976E+02  0.7561462E-02  0.1318309E+00
          1   -1    0    0  501    0  0.00000000000E+00  0.00000000000E+00  0.13007694330E+03  0.13007694330E+03  0.00000000000E+00 0. -1.
         -1   -1    0    0    0  501 -0.00000000000E+00 -0.00000000000E+00 -0.13031239259E+03  0.13031239259E+03  0.00000000000E+00 0.  1.
         23    2    1    2    0    0 -0.41924279730E+02  0.59215046895E+02  0.11230738334E+02  0.14504553384E+03  0.12509200771E+03 0.  0.
          5    1    3    3  502    0 -0.83231963649E+01  0.30479990207E+02  0.66738911643E+02  0.73958502743E+02  0.41800000000E+01 0. -1.
         -5    1    3    3    0  502 -0.33601083365E+02  0.28735056688E+02 -0.55508173309E+02  0.71087031097E+02  0.41800000000E+01 0. -1.
        -11    1    1    2    0    0  0.26931478776E+02  0.34076875452E+01  0.28657386745E+02  0.39473569620E+02  0.00000000000E+00 0. -1.
         11    1    1    2    0    0  0.14992800954E+02 -0.62622734440E+02 -0.40123574361E+02  0.75870232429E+02  0.00000000000E+00 0.  1.
</event>
<event>
 7    1  0.5109948E-006  0.8211746E+02  0.7561462E-02  0.1323148E+00
          2   -1    0    0  501    0  0.00000000000E+00  0.00000000000E+00  0.51284339869E+03  0.51284339869E+03  0.00000000000E+00 0. -1.
         -2   -1    0    0    0  501 -0.00000000000E+00 -0.00000000000E+00 -0.32193055387E+02  0.32193055387E+02  0.00000000000E+00 0.  1.
         23    2    1    2    0    0  0.63695547162E+02 -0.15615962220E+02  0.27285738231E+03  0.30724204634E+03  0.12508214482E+03 0.  0.
          5    1    3    3  502    0  0.52361460704E+02 -0.19587108906E+01  0.28199146076E+03  0.28684876757E+03  0.41800000000E+01 0.  1.
         -5    1    3    3    0  502  0.11334086458E+02 -0.13657251330E+02 -0.91340784511E+01  0.20393278767E+02  0.41800000000E+01 0.  1.
        -11    1    1    2    0    0  0.20252077079E+01 -0.19033992291E+02  0.22951559431E+01  0.19278539094E+02  0.00000000000E+00 0.  1.
         11    1    1    2    0    0 -0.65720754870E+02  0.34649954512E+02  0.20549780505E+03  0.21851586864E+03  0.00000000000E+00 0. -1.
</event>
<event>
 7    1  0.5109948E-006  0.2513405E+03  0.7561462E-02  0.1112461E+00
          1   -1    0    0  501    0  0.00000000000E+00  0.00000000000E+00  0.27448775851E+03  0.27448775851E+03  0.00000000000E+00 0. -1.
         -1   -1    0    0    0  501 -0.00000000000E+00 -0.00000000000E+00 -0.27593512590E+03  0.27593512590E+03  0.00000000000E+00 0.  1.
         23    2    1    2    0    0  0.19976358028E+03 -0.11752836688E+03 -0.10243831351E+03  0.28259893972E+03  0.12510055009E+03 0.  0.
          5    1    3    3  502    0  0.92226001278E+02 -0.12459349582E+03 -0.68587752661E+02  0.16956098232E+03  0.41800000000E+01 0.  1.
         -5    1    3    3    0  502  0.10753757900E+03  0.70651289348E+01 -0.33850560853E+02  0.11303795740E+03  0.41800000000E+01 0.  1.
        -11    1    1    2    0    0 -0.62030962812E+02  0.71231930872E+02  0.74096884144E+02  0.12005072496E+03  0.00000000000E+00 0.  1.
         11    1    1    2    0    0 -0.13773261746E+03  0.46296436009E+02  0.26894061976E+02  0.14777321973E+03  0.00000000000E+00 0. -1.
</event>
<event>
 7    1  0.5109948E-006  0.1181982E+03  0.7561462E-02  0.1246099E+00
          1   -1    0    0  501    0  0.00000000000E+00  0.00000000000E+00  0.73988168577E+02  0.73988168577E+02  0.00000000000E+00 0. -1.
         -1   -1    0    0    0  501 -0.00000000000E+00 -0.00000000000E+00 -0.20727886310E+03  0.20727886310E+03  0.00000000000E+00 0.  1.
         23    2    1    2    0    0 -0.14304651708E+02  0.58295356990E+02 -0.72331556812E+02  0.15647053411E+03  0.12509277448E+03 0.  0.
          5    1    3    3  502    0  0.12562622391E+02 -0.36977340995E+02 -0.15295149496E+02  0.42149225693E+02  0.41800000000E+01 0.  1.
         -5    1    3    3    0  502 -0.26867274099E+02  0.95272697985E+02 -0.57036407316E+02  0.11432130842E+03  0.41800000000E+01 0.  1.
        -11    1    1    2    0    0 -0.22755277142E+02 -0.56533883972E+02 -0.99920420456E+01  0.61755352635E+02  0.00000000000E+00 0. -1.
         11    1    1    2    0    0  0.37059928850E+02 -0.17614730182E+01 -0.50967095661E+02  0.63041144927E+02  0.00000000000E+00 0.  1.
</event>
<event>
 7    1  0.5109948E-006  0.1205383E+03  0.7561462E-02  0.1242212E+00
         -2   -1    0    0    0  501 -0.00000000000E+00  0.00000000000E+00  0.88023903032E+02  0.88023903032E+02  0.00000000000E+00 0.  1.
          2   -1    0    0  501    0  0.00000000000E+00 -0.00000000000E+00 -0.28031827364E+03  0.28031827364E+03  0.00000000000E+00 0. -1.
         23    2    1    2    0    0  0.67229633982E+02 -0.75692700957E+02 -0.45799144174E+02  0.16731299534E+03  0.12508744198E+03 0.  0.
          5    1    3    3  502    0  0.47875698030E+02 -0.81423415662E+01 -0.76345420688E+02  0.90578561747E+02  0.41800000000E+01 0.  1.
         -5    1    3    3    0  502  0.19353935952E+02 -0.67550359391E+02  0.30546276514E+02  0.76734433598E+02  0.41800000000E+01 0.  1.
        -11    1    1    2    0    0 -0.10113721770E+02  0.62511250212E+02 -0.28843437966E+02  0.69583673982E+02  0.00000000000E+00 0.  1.
         11    1    1    2    0    0 -0.57115912212E+02  0.13181450745E+02 -0.11765178847E+03  0.13144550735E+03  0.00000000000E+00 0. -1.
</event>
<event>
 7    1  0.5109948E-006  0.9272307E+02  0.7561462E-02  0.1296388E+00
         -1   -1    0    0    0  501 -0.00000000000E+00  0.00000000000E+00  0.88762155048E+02  0.88762155048E+02  0.00000000000E+00 0.  1.
          1   -1    0    0  501    0  0.00000000000E+00 -0.00000000000E+00 -0.15202058776E+03  0.15202058776E+03  0.00000000000E+00 0. -1.
         23    2    1    2    0    0 -0.20971770633E+01 -0.39967355653E+02 -0.20490693273E+02  0.13292517429E+03  0.12508975090E+03 0.  0.
          5    1    3    3  502    0  0.65312099937E+01 -0.64198988912E+02 -0.58259161166E+02  0.87038894416E+02  0.41800000000E+01 0.  1.
         -5    1    3    3    0  502 -0.86283870571E+01  0.24231633259E+02  0.37768467894E+02  0.45886279873E+02  0.41800000000E+01 0.  1.
        -11    1    1    2    0    0  0.38170501912E+02  0.44199716003E+02 -0.10630194697E+02  0.59359945672E+02  0.00000000000E+00 0. -1.
         11    1    1    2    0    0 -0.36073324848E+02 -0.42323603495E+01 -0.32137544746E+02  0.48497622849E+02  0.00000000000E+00 0.  1.
</event>
<event>
 7    1  0.5109948E-006  0.1076079E+03  0.7561462E-02  0.1265065E+00
          2   -1    0    0  501    0  0.00000000000E+00  0.00000000000E+00  0.68450111002E+03  0.68450111002E+03  0.00000000000E+00 0. -1.
         -2   -1    0    0    0  501 -0.00000000000E+00 -0.00000000000E+00 -0.23067860281E+02  0.23067860281E+02  0.00000000000E+00 0.  1.
         23    2    1    2    0    0 -0.54765610648E+02  0.28991332393E+02  0.34453421897E+03  0.37174054954E+03  0.12508972247E+03 0.  0.
          5    1    3    3  502    0 -0.42535678447E+02 -0.24864595564E+02  0.44137178341E+02  0.66280426714E+02  0.41800000000E+01 0. -1.
         -5    1    3    3    0  502 -0.12229932202E+02  0.53855927958E+02  0.30039704063E+03  0.30546012283E+03  0.41800000000E+01 0. -1.
        -11    1    1    2    0    0 -0.18335315506E+02  0.16178997724E+02  0.87889786553E+02  0.91228056772E+02  0.00000000000E+00 0. -1.
         11    1    1    2    0    0  0.73100926155E+02 -0.45170330118E+02  0.22900924422E+03  0.24460036399E+03  0.00000000000E+00 0.  1.
</event>
<event>
 7    1  0.5109948E-006  0.1706662E+03  0.7561462E-02  0.1177155E+00
         -2   -1    0    0    0  501 -0.00000000000E+00  0.00000000000E+00  0.77494341066E+02  0.77494341066E+02  0.00000000000E+00 0.  1.
          2   -1    0    0  501    0  0.00000000000E+00 -0.00000000000E+00 -0.61498069525E+03  0.61498069525E+03  0.00000000000E+00 0. -1.
         23    2    1    2    0    0 -0.13491995063E+03 -0.71744300923E+02 -0.10223691401E+03  0.22237065881E+03  0.12508271473E+03 0.  0.
          5    1    3    3  502    0 -0.12872575395E+03 -0.93969968802E+02 -0.11413753912E+03  0.19607530441E+03  0.41800000000E+01 0.  1.
         -5    1    3    3    0  502 -0.61941966817E+01  0.22225667879E+02  0.11900625105E+02  0.26295354402E+02  0.41800000000E+01 0.  1.
        -11    1    1    2    0    0  0.90229137612E+02  0.69164420813E+02 -0.19500911724E+03  0.22572897507E+03  0.00000000000E+00 0.  1.
         11    1    1    2    0    0  0.44690813014E+02  0.25798801101E+01 -0.24024032293E+03  0.24437540243E+03  0.00000000000E+00 0. -1.
</event>
<event>
 7    1  0.5109948E-006  0.1357152E+03  0.7561462E-02  0.1219214E+00
         -2   -1    0    0    0  501 -0.00000000000E+00  0.00000000000E+00  0.65660451271E+03  0.65660451271E+03  0.00000000000E+00 0.  1.
          2   -1    0    0  501    0  0.00000000000E+00 -0.00000000000E+00 -0.34496010172E+02  0.34496010172E+02  0.00000000000E+00 0. -1.
         23    2    1    2    0    0 -0.97762294457E+02  0.28207151033E+02  0.39105018007E+03  0.42298963743E+03  0.12508749118E+03 0.  0.
          5    1    3    3  502    0  0.30054949969E+02  0.28220432691E+00  0.73116322696E+02  0.79163430329E+02  0.41800000000E+01 0. -1.
         -5    1    3    3    0  502 -0.12781724443E+03  0.27924946706E+02  0.31793385738E+03  0.34382620710E+03  0.41800000000E+01 0. -1.
        -11    1    1    2    0    0  0.79004233493E+02 -0.33896692551E+01  0.75016656117E+02  0.10899842872E+03  0.00000000000E+00 0. -1.
         11    1    1    2    0    0  0.18758060964E+02 -0.24817481778E+02  0.15604166635E+03  0.15911245674E+03  0.00000000000E+00 0.  1.
</event>
<event>
 7    1  0.5109948E-006  0.1169213E+03  0.7561462E-02  0.1248264E+00
          1   -1    0    0  501    0  0.00000000000E+00  0.00000000000E+00  0.10178188699E+03  0.10178188699E+03  0.00000000000E+00 0. -1.
         -1   -1    0    0    0  501 -0.00000000000E+00 -0.00000000000E+00 -0.19283104155E+03  0.19283104155E+03  0.00000000000E+00 0.  1.
         23    2    1    2    0    0 -0.44363447734E+02  0.47413479484E+02 -0.11739772517E+03  0.18343246490E+03  0.12509632198E+03 0.  0.
          5    1    3    3  502    0  0.19071038898E+02 -0.32893769128E+02 -0.37063760067E+02  0.53262550468E+02  0.41800000000E+01 0. -1.
         -5    1    3    3    0  502 -0.63434486632E+02  0.80307248611E+02 -0.80333965102E+02  0.13016991443E+03  0.41800000000E+01 0. -1.
        -11    1    1    2    0    0 -0.13072082276E+02 -0.30671921980E+02  0.37656187912E+02  0.50295473166E+02  0.00000000000E+00 0. -1.
         11    1    1    2    0    0  0.57435530010E+02 -0.16741557504E+02 -0.11307617302E+02  0.60884990467E+02  0.00000000000E+00 0.  1.
</event>
<event>
 7    1  0.5109948E-006  0.1458555E+03  0.7561462E-02  0.1205660E+00
          1   -1    0    0  501    0  0.00000000000E+00  0.00000000000E+00  0.27576481194E+02  0.27576481194E+02  0.00000000000E+00 0. -1.
         -1   -1    0    0    0  501 -0.00000000000E+00 -0.00000000000E+00 -0.91749563983E+03  0.91749563983E+03  0.00000000000E+00 0.  1.
         23    2    1    2    0    0  0.74728391986E+02  0.79812068663E+02 -0.59050452022E+03  0.61343087609E+03  0.12509017733E+03 0.  0.
          5    1    3    3  502    0  0.10287156255E+03  0.88884587087E+02 -0.49675655771E+03  0.51504133643E+03  0.41800000000E+01 0.  1.
         -5    1    3    3    0  502 -0.28143170560E+02 -0.90725184244E+01 -0.93747962506E+02  0.98389539656E+02  0.41800000000E+01 0.  1.
        -11    1    1    2    0    0 -0.46984320500E+00 -0.42903466394E+02 -0.18753269875E+03  0.19237838050E+03  0.00000000000E+00 0.  1.
         11    1    1    2    0    0 -0.74258548781E+02 -0.36908602268E+02 -0.11188193966E+03  0.13926286444E+03  0.00000000000E+00 0. -1.
</event>
<event>
 7    1  0.5109948E-006  0.4024902E+03  0.7561462E-02  0.1042921E+00
         -2   -1    0    0    0  501 -0.00000000000E+00  0.00000000000E+00  0.68355029832E+02  0.68355029832E+02  0.00000000000E+00 0.  1.
          2   -1    0    0  501    0  0.00000000000E+00 -0.00000000000E+00 -0.25694968227E+04  0.25694968227E+04  0.00000000000E+00 0. -1.
         23    2    1    2    0    0 -0.36678484707E+03 -0.15275049873E+03 -0.10217171425E+04  0.11033668465E+04  0.12509452366E+03 0.  0.
          5    1    3    3  502    0 -0.24709133953E+03 -0.11604341765E+03 -0.83519018553E+03  0.87868101337E+03  0.41800000000E+01 0. -1.
         -5    1    3    3    0  502 -0.11969350754E+03 -0.36707081084E+02 -0.18652695698E+03  0.22468583317E+03  0.41800000000E+01 0. -1.
        -11    1    1    2    0    0  0.17051779772E+03  0.11803607838E+03 -0.79821532671E+03  0.82471603776E+03  0.00000000000E+00 0.  1.
         11    1    1    2    0    0  0.19626704935E+03  0.34714420355E+02 -0.68120932364E+03  0.70976896823E+03  0.00000000000E+00 0. -1.
</event>
<event>
 7    1  0.5109948E-006  0.7056171E+02  0.7561462E-02  0.1358193E+00
          2   -1    0    0  501    0  0.00000000000E+00  0.00000000000E+00  0.59083505664E+03  0.59083505664E+03  0.00000000000E+00 0. -1.
         -2   -1    0    0    0  501 -0.00000000000E+00 -0.00000000000E+00 -0.22901045726E+02  0.22901045726E+02  0.00000000000E+00 0.  1.
         23    2    1    2    0    0  0.68259892107E+01 -0.14427968060E+02  0.20610808509E+03  0.24162533466E+03  0.12508996450E+03 0.  0.
          5    1    3    3  502    0 -0.20292198717E+02 -0.17759217103E+02 -0.58205645000E+01  0.27901872554E+02  0.41800000000E+01 0. -1.
         -5    1    3    3    0  502  0.27118187928E+02  0.33312490424E+01  0.21192864959E+03  0.21372346211E+03  0.41800000000E+01 0. -1.
        -11    1    1    2    0    0 -0.44629339030E+02  0.18214071908E+02  0.17883070162E+03  0.18521325590E+03  0.00000000000E+00 0.  1.
         11    1    1    2    0    0  0.37803349819E+02 -0.37861038473E+01  0.18299522420E+03  0.18689751181E+03  0.00000000000E+00 0. -1.
</event>
<event>
 6    1  0.5109948E-006  0.2220991E+03  0.7561462E-02  0.1132328E+00
         -2   -1    0    0    0  501 -0.00000000000E+00  0.00000000000E+00  0.27366075809E+02  0.27366075809E+02  0.00000000000E+00 0.  1.
          2   -1    0    0  501    0  0.00000000000E+00 -0.00000000000E+00 -0.21435682378E+04  0.21435682378E+04  0.00000000000E+00 0. -1.
          5    1    1    2  502    0 -0.17973967368E+03 -0.29096971124E+02 -0.11505345986E+04  0.11648606436E+04  0.41800000000E+01 0. -1.
         -5    1    1    2    0  502  0.13161751612E+03 -0.44417454675E+02 -0.32151834369E+03  0.35026789541E+03  0.41800000000E+01 0.  1.
        -11    1    1    2    0    0 -0.63661676447E+01 -0.16606366162E+02 -0.92716387301E+02  0.94406715661E+02  0.00000000000E+00 0.  1.
         11    1    1    2    0    0  0.54488325208E+02  0.90120791961E+02 -0.55143283249E+03  0.56139905903E+03  0.00000000000E+00 0. -1.
</event>
<event>
 7    1  0.5109948E-006  0.2316077E+03  0.7561462E-02  0.1125513E+00
         -3   -1    0    0    0  501 -0.00000000000E+00  0.00000000000E+00  0.10150174407E+03  0.10150174407E+03  0.00000000000E+00 0.  1.
          3   -1    0    0  501    0  0.00000000000E+00 -0.00000000000E+00 -0.56806837708E+03  0.56806837708E+03  0.00000000000E+00 0. -1.
         23    2    1    2    0    0 -0.82490485345E+02 -0.19553251374E+03 -0.19627640469E+03  0.31497507166E+03  0.12508886691E+03 0.  0.
          5    1    3    3  502    0 -0.10513725620E+03 -0.15968284239E+03 -0.19384382869E+03  0.27229644712E+03  0.41800000000E+01 0. -1.
         -5    1    3    3    0  502  0.22646770854E+02 -0.35849671357E+02 -0.24325760041E+01  0.42678624539E+02  0.41800000000E+01 0. -1.
        -11    1    1    2    0    0 -0.15144330200E+02  0.62795258262E+02 -0.70436873163E+02  0.95571691930E+02  0.00000000000E+00 0.  1.
         11    1    1    2    0    0  0.97634815546E+02  0.13273725548E+03 -0.19985335515E+03  0.25902335757E+03  0.00000000000E+00 0. -1.
</event>
<event>
 7    1  0.5109948E-006  0.1041402E+03  0.7561462E-02  0.1271823E+00
          2   -1    0    0  501    0  0.00000000000E+00  0.00000000000E+00  0.21793999061E+03  0.21793999061E+03  0.00000000000E+00 0. -1.
         -2   -1    0    0    0  501 -0.00000000000E+00 -0.00000000000E+00 -0.67658165535E+02  0.67658165535E+02  0.00000000000E+00 0.  1.
         23    2    1    2    0    0 -0.30132281406E+02 -0.19486397055E+02  0.35718311158E+02  0.13494621804E+03  0.12508800885E+03 0.  0.
          5    1    3    3  502    0 -0.78567005588E+02 -0.18582389300E+02  0.28870508149E+02  0.85843218719E+02  0.41800000000E+01 0. -1.
         -5    1    3    3    0  502  0.48434724182E+02 -0.90400775475E+00  0.68478030087E+01  0.49102999325E+02  0.41800000000E+01 0. -1.
        -11    1    1    2    0    0 -0.22448779081E+02 -0.78176212284E+00 -0.56752888795E+00  0.22469555475E+02  0.00000000000E+00 0.  1.
         11    1    1    2    0    0  0.52581060487E+02  0.20268159177E+02  0.11513104281E+03  0.12818238263E+03  0.00000000000E+00 0. -1.
</event>
<event>
 7    1  0.5109948E-006  0.1456206E+03  0.7561462E-02  0.1205960E+00
         -3   -1    0    0    0  501 -0.00000000000E+00  0.00000000000E+00  0.96349450360E+02  0.96349450360E+02  0.00000000000E+00 0.  1.
          3   -1    0    0  501    0  0.00000000000E+00 -0.00000000000E+00 -0.28810631092E+03  0.28810631092E+03  0.00000000000E+00 0. -1.
         23    2    1    2    0    0  0.74033192405E+02 -0.96335961444E+02 -0.64636943124E+02  0.18597820989E+03  0.12509368127E+03 0.  0.
          5    1    3    3  502    0  0.59282038993E+02 -0.22482450422E+02 -0.86607138149E+02  0.10741549936E+03  0.41800000000E+01 0.  1.
         -5    1    3    3    0  502  0.14751153412E+02 -0.73853511021E+02  0.21970195024E+02  0.78562710535E+02  0.41800000000E+01 0.  1.
        -11    1    1    2    0    0  0.16033694466E+02 -0.49055694932E+01 -0.11308136032E+02  0.20224191227E+02  0.00000000000E+00 0. -1.
         11    1    1    2    0    0 -0.90066886870E+02  0.10124153094E+03 -0.11581178141E+03  0.17825336016E+03  0.00000000000E+00 0.  1.
</event>
<event>
 7    1  0.5109948E-006  0.1636483E+03  0.7561462E-02  0.1184638E+00
         -1   -1    0    0    0  501 -0.00000000000E+00  0.00000000000E+00  0.12261969975E+03  0.12261969975E+03  0.00000000000E+00 0.  1.
          1   -1    0    0  501    0  0.00000000000E+00 -0.00000000000E+00 -0.28092928972E+03  0.28092928972E+03  0.00000000000E+00 0. -1.
         23    2    1    2    0    0 -0.11332470056E+03  0.46488072737E+02  0.96292940340E+01  0.17533890956E+03  0.12508949291E+03 0.  0.
          5    1    3    3  502    0 -0.11221870651E+03  0.80775473868E+02  0.18754375101E+02  0.13959553809E+03  0.41800000000E+01 0.  1.
         -5    1    3    3    0  502 -0.11059940486E+01 -0.34287401131E+02 -0.91250810672E+01  0.35743371465E+02  0.41800000000E+01 0.  1.
        -11    1    1    2    0    0  0.60001772448E+02 -0.73297383030E+02 -0.98762377653E+02  0.13684562944E+03  0.00000000000E+00 0.  1.
         11    1    1    2    0    0  0.53322928112E+02  0.26809310293E+02 -0.69176506349E+02  0.91364450480E+02  0.00000000000E+00 0. -1.
</event>
<event>
 7    1  0.5109948E-006  0.1068417E+03  0.7561462E-02  0.1266533E+00
         -2   -1    0    0    0  501 -0.00000000000E+00  0.00000000000E+00  0.45207525108E+02  0.45207525108E+02  0.00000000000E+00 0.  1.
          2   -1    0    0  501    0  0.00000000000E+00 -0.00000000000E+00 -0.34048726190E+03  0.34048726190E+03  0.00000000000E+00 0. -1.
         23    2    1    2    0    0  0.20823266649E+02 -0.31397361611E+02 -0.86663108028E+02  0.15677658996E+03  0.12509597162E+03 0.  0.
          5    1    3    3  502    0 -0.52170139208E+02 -0.38372011548E+01 -0.36560318617E+02  0.63957617490E+02  0.41800000000E+01 0.  1.
         -5    1    3    3    0  502  0.72993405857E+02 -0.27560160456E+02 -0.50102789411E+02  0.92818972466E+02  0.41800000000E+01 0.  1.
        -11    1    1    2    0    0  0.24801978082E+02 -0.42591711471E+01 -0.21671515385E+02  0.33210438641E+02  0.00000000000E+00 0.  1.
         11    1    1    2    0    0 -0.45625244732E+02  0.35656532758E+02 -0.18694511338E+03  0.19570775841E+03  0.00000000000E+00 0. -1.
</event>
<event>
 7    1  0.5109948E-006  0.3603472E+03  0.7561462E-02  0.1058446E+00
          2   -1    0    0  501    0  0.00000000000E+00  0.00000000000E+00  0.10324076141E+04  0.10324076141E+04  0.00000000000E+00 0. -1.
         -2   -1    0    0    0  501 -0.00000000000E+00 -0.00000000000E+00 -0.12792879093E+03  0.12792879093E+03  0.00000000000E+00 0.  1.
         23    2    1    2    0    0 -0.27175408298E+03 -0.21319315420E+03  0.50882418530E+03  0.62757484976E+03  0.12508612193E+03 0.  0.
          5    1    3    3  502    0 -0.40680165342E+02  0.11764665647E+02  0.84326753310E+02  0.94455052452E+02  0.41800000000E+01 0. -1.
         -5    1    3    3    0  502 -0.23107391764E+03 -0.22495781984E+03  0.42449743199E+03  0.53311979731E+03  0.41800000000E+01 0. -1.
        -11    1    1    2    0    0  0.15668473790E+03  0.69164196012E+02  0.16916514514E+03  0.24072939046E+03  0.00000000000E+00 0. -1.
         11    1    1    2    0    0  0.11506934508E+03  0.14402895818E+03  0.22648949278E+03  0.29203216486E+03  0.00000000000E+00 0.  1.
</event>
<event>
 7    1  0.5109948E-006  0.1305788E+03  0.7561462E-02  0.1226599E+00
          4   -1    0    0  501    0  0.00000000000E+00  0.00000000000E+00  0.21615868160E+02  0.21615868160E+02  0.00000000000E+00 0. -1.
         -4   -1    0    0    0  501 -0.00000000000E+00 -0.00000000000E+00 -0.83463250559E+03  0.83463250559E+03  0.00000000000E+00 0.  1.
         23    2    1    2    0    0 -0.39418111329E+02  0.68893803232E+02 -0.43416601233E+03  0.45874567323E+03  0.12508925943E+03 0.  0.
          5    1    3    3  502    0 -0.38572288647E+02  0.10207552377E+03 -0.37713526083E+03  0.39262668193E+03  0.41800000000E+01 0.  1.
         -5    1    3    3    0  502 -0.84582268147E+00 -0.33181720542E+02 -0.57030751499E+02  0.66118991301E+02  0.41800000000E+01 0.  1.
        -11    1    1    2    0    0  0.53773957209E+02 -0.82660670723E+02 -0.33759387617E+03  0.35170164940E+03  0.00000000000E+00 0.  1.
         11    1    1    2    0    0 -0.14355845880E+02  0.13766867491E+02 -0.41256748925E+02  0.45801051116E+02  0.00000000000E+00 0. -1.
</event>
<event>
 7    1  0.5109948E-006  0.3074142E+03  0.7561462E-02  0.1081592E+00
         -3   -1    0    0    0  501 -0.00000000000E+00  0.00000000000E+00  0.18518018147E+03  0.18518018147E+03  0.00000000000E+00 0.  1.
          3   -1    0    0  501    0  0.00000000000E+00 -0.00000000000E+00 -0.70877935711E+03  0.70877935711E+03  0.00000000000E+00 0. -1.
         23    2    1    2    0    0 -0.16967394367E+03  0.24185018495E+03 -0.44269917500E+02  0.32386467465E+03  0.12509093798E+03 0.  0.
          5    1    3    3  502    0 -0.14213945860E+03  0.10293511291E+03 -0.48495673247E+02  0.18212239260E+03  0.41800000000E+01 0.  1.
         -5    1    3    3    0  502 -0.27534485073E+02  0.13891507204E+03  0.42257557468E+01  0.14174228205E+03  0.41800000000E+01 0.  1.
        -11    1    1    2    0    0  0.90001174221E+02 -0.97252683953E+02 -0.14017348818E+03  0.19289090877E+03  0.00000000000E+00 0.  1.
         11    1    1    2    0    0  0.79672769454E+02 -0.14459750100E+03 -0.33915576996E+03  0.37720395515E+03  0.00000000000E+00 0. -1.
</event>
<event>
 7    1  0.5109948E-006  0.1919702E+03  0.7561462E-02  0.1156696E+00
          3   -1    0    0  501    0  0.00000000000E+00  0.00000000000E+00  0.25001893980E+03  0.25001893980E+03  0.00000000000E+00 0. -1.
         -3   -1    0    0    0  501 -0.00000000000E+00 -0.00000000000E+00 -0.20676897593E+03  0.20676897593E+03  0.00000000000E+00 0.  1.
         23    2    1    2    0    0  0.78843636980E+02 -0.17054111790E+03 -0.43501883300E+02  0.22984703608E+03  0.12504660794E+03 0.  0.
          5    1    3    3  502    0  0.66156789017E+02 -0.16912553871E+03 -0.74289750064E+02  0.19625648510E+03  0.41800000000E+01 0. -1.
         -5    1    3    3    0  502  0.12686847963E+02 -0.14155791900E+01  0.30787866765E+02  0.33590550987E+02  0.41800000000E+01 0. -1.
        -11    1    1    2    0    0 -0.28493654500E+02  0.41509163896E+02 -0.17801232931E+02  0.53402087300E+02  0.00000000000E+00 0.  1.
         11    1    1    2    0    0 -0.50349982480E+02  0.12903195401E+03  0.10455308010E+03  0.17353879235E+03  0.00000000000E+00 0. -1.
</event>
<event>
 7    1  0.5109948E-006  0.1191600E+03  0.7561462E-02  0.1244489E+00
          2   -1    0    0  501    0  0.00000000000E+00  0.00000000000E+00  0.59744113815E+03  0.59744113815E+03  0.00000000000E+00 0. -1.
         -2   -1    0    0    0  501 -0.00000000000E+00 -0.00000000000E+00 -0.41901758299E+02  0.41901758299E+02  0.00000000000E+00 0.  1.
         23    2    1    2    0    0  0.50204074643E+02 -0.71744697382E+02  0.14901056532E+03  0.21335204795E+03  0.12508875678E+03 0.  0.
          5    1    3    3  502    0  0.22883178643E+02  0.27151496309E+02  0.44451116225E+01  0.36028808390E+02  0.41800000000E+01 0.  1.
         -5    1    3    3    0  502  0.27320896000E+02 -0.98896193691E+02  0.14456545370E+03  0.17732323956E+03  0.41800000000E+01 0.  1.
        -11    1    1    2    0    0 -0.57264346730E+02  0.46798652016E+02  0.38572321107E+03  0.39274892081E+03  0.00000000000E+00 0. -1.
         11    1    1    2    0    0  0.70602720866E+01  0.24946045366E+02  0.20805603459E+02  0.33241927691E+02  0.00000000000E+00 0.  1.
</event>
<event>
 7    1  0.5109948E-006  0.1125240E+03  0.7561462E-02  0.1255966E+00
         -2   -1    0    0    0  501 -0.00000000000E+00  0.00000000000E+00  0.23186326843E+03  0.23186326843E+03  0.00000000000E+00 0.  1.
          2   -1    0    0  501    0  0.00000000000E+00 -0.00000000000E+00 -0.16258229935E+03  0.16258229935E+03  0.00000000000E+00 0. -1.
         23    2    1    2    0    0  0.16748232637E+02  0.32478417274E+02  0.19507667625E+03  0.23460241687E+03  0.12509210007E+03 0.  0.
          5    1    3    3  502    0 -0.47694166683E+02 -0.11832939827E+02  0.53188673006E+02  0.72534538922E+02  0.41800000000E+01 0.  1.
         -5    1    3    3    0  502  0.64442399320E+02  0.44311357100E+02  0.14188800325E+03  0.16206787795E+03  0.41800000000E+01 0.  1.
        -11    1    1    2    0    0 -0.34910521812E+02  0.21132197790E+02 -0.40652124521E+02  0.57601298116E+02  0.00000000000E+00 0.  1.
         11    1    1    2    0    0  0.18162289175E+02 -0.53610615063E+02 -0.85143582648E+02  0.10224185279E+03  0.00000000000E+00 0. -1.
</event>
<event>
 7    1  0.5109948E-006  0.1227526E+03  0.7561462E-02  0.1238624E+00
         -3   -1    0    0    0  501 -0.00000000000E+00  0.00000000000E+00  0.18246218351E+03  0.18246218351E+03  0.00000000000E+00 0.  1.
          3   -1    0    0  501    0  0.00000000000E+00 -0.00000000000E+00 -0.12177539759E+03  0.12177539759E+03  0.00000000000E+00 0. -1.
         23    2    1    2    0    0  0.90206099328E+02 -0.53906373295E+01  0.81029109032E+02  0.17429387296E+03  0.12508572386E+03 0.  0.
          5    1    3    3  502    0  0.11699704295E+02  0.48289102594E+02  0.57742134793E+02  0.76291198970E+02  0.41800000000E+01 0.  1.
         -5    1    3    3    0  502  0.78506395033E+02 -0.53679739923E+02  0.23286974240E+02  0.98002673987E+02  0.41800000000E+01 0.  1.
        -11    1    1    2    0    0 -0.54191592084E+02  0.24731703456E+02  0.28680326606E+02  0.66113137444E+02  0.00000000000E+00 0.  1.
         11    1    1    2    0    0 -0.36014507244E+02 -0.19341066126E+02 -0.49022649720E+02  0.63830570705E+02  0.00000000000E+00 0. -1.
</event>
<event>
 7    1  0.5109948E-006  0.1726718E+03  0.7561462E-02  0.1175090E+00
         -1   -1    0    0    0  501 -0.00000000000E+00  0.00000000000E+00  0.11591715844E+03  0.11591715844E+03  0.00000000000E+00 0.  1.
          1   -1    0    0  501    0  0.00000000000E+00 -0.00000000000E+00 -0.54274263693E+03  0.54274263693E+03  0.00000000000E+00 0. -1.
         23    2    1    2    0    0  0.12878927456E+03  0.78275589921E+02  0.10528251664E+01  0.19586340776E+03  0.12509045064E+03 0.  0.
          5    1    3    3  502    0  0.97331545356E+02  0.96457405874E+02  0.39627167048E+02  0.14270685210E+03  0.41800000000E+01 0.  1.
         -5    1    3    3    0  502  0.31457729200E+02 -0.18181815953E+02 -0.38574341881E+02  0.53156555657E+02  0.41800000000E+01 0.  1.
        -11    1    1    2    0    0 -0.76958500628E+02  0.99364955113E+00 -0.24566085336E+03  0.25743514335E+03  0.00000000000E+00 0. -1.
         11    1    1    2    0    0 -0.51830773928E+02 -0.79269239472E+02 -0.18221745029E+03  0.20536124426E+03  0.00000000000E+00 0.  1.
</event>
<event>
 7    1  0.5109948E-006  0.1153460E+03  0.7561462E-02  0.1250978E+00
         -3   -1    0    0    0  501 -0.00000000000E+00  0.00000000000E+00  0.43996590139E+02  0.43996590139E+02  0.00000000000E+00 0.  1.
          3   -1    0    0  501    0  0.00000000000E+00 -0.00000000000E+00 -0.38352992250E+03  0.38352992250E+03  0.00000000000E+00 0. -1.
         23    2    1    2    0    0 -0.44733972383E+02  0.34743688764E+01 -0.96582816317E+02  0.16427861471E+03  0.12508406501E+03 0.  0.
          5    1    3    3  502    0 -0.97758497718E+00 -0.57451840694E+02 -0.45785727806E+02  0.73589910601E+02  0.41800000000E+01 0.  1.
         -5    1    3    3    0  502 -0.43756387406E+02  0.60926209570E+02 -0.50797088511E+02  0.90688704107E+02  0.41800000000E+01 0.  1.
        -11    1    1    2    0    0 -0.19892125481E+02 -0.23031254321E+02 -0.11003149643E+03  0.11416245240E+03  0.00000000000E+00 0.  1.
         11    1    1    2    0    0  0.64626097864E+02  0.19556885444E+02 -0.13291901962E+03  0.14908544553E+03  0.00000000000E+00 0. -1.
</event>
<event>
 7    1  0.5109948E-006  0.1457654E+03  0.7561462E-02  0.1205775E+00
          2   -1    0    0  501    0  0.00000000000E+00  0.00000000000E+00  0.47882768242E+02  0.47882768242E+02  0.00000000000E+00 0. -1.
         -2   -1    0    0    0  501 -0.00000000000E+00 -0.00000000000E+00 -0.61384015411E+03  0.61384015411E+03  0.00000000000E+00 0.  1.
         23    2    1    2    0    0 -0.11850544986E+03  0.29501106431E+02 -0.41251873141E+03  0.44803148388E+03  0.12508656945E+03 0.  0.
          5    1    3    3  502    0 -0.27676727191E+02  0.64041065922E+02 -0.24015615724E+03  0.25011939471E+03  0.41800000000E+01 0.  1.
         -5    1    3    3    0  502 -0.90828722672E+02 -0.34539959491E+02 -0.17236257417E+03  0.19791208917E+03  0.41800000000E+01 0.  1.
        -11    1    1    2    0    0  0.71014997499E+02 -0.56694281022E+01 -0.26376971324E+02  0.75967209381E+02  0.00000000000E+00 0. -1.
         11    1    1    2    0    0  0.47490452364E+02 -0.23831678328E+02 -0.12706168313E+03  0.13772422909E+03  0.00000000000E+00 0.  1.
</event>
<event>
 7    1  0.5109948E-006  0.2100694E+03  0.7561462E-02  0.1141511E+00
          2   -1    0    0  501    0  0.00000000000E+00  0.00000000000E+00  0.39830348495E+03  0.39830348495E+03  0.00000000000E+00 0. -1.
         -2   -1    0    0    0  501 -0.00000000000E+00 -0.00000000000E+00 -0.12648108893E+03  0.12648108893E+03  0.00000000000E+00 0.  1.
         23    2    1    2    0    0  0.32545983602E+02 -0.19003738741E+03  0.18383227254E+03  0.29430523391E+03  0.12509123319E+03 0.  0.
          5    1    3    3  502    0 -0.35830372902E+02 -0.56287311881E+02  0.15446420018E+02  0.68615897520E+02  0.41800000000E+01 0.  1.
         -5    1    3    3    0  502  0.68376356504E+02 -0.13375007552E+03  0.16838585252E+03  0.22568933639E+03  0.41800000000E+01 0.  1.
        -11    1    1    2    0    0  0.18866574227E+02  0.36381173292E+02  0.48898185817E+02  0.63801018560E+02  0.00000000000E+00 0. -1.
         11    1    1    2    0    0 -0.51412557829E+02  0.15365621411E+03  0.39091937669E+02  0.16667832141E+03  0.00000000000E+00 0.  1.
</event>
<event>
 7    1  0.5109948E-006  0.1319016E+03  0.7561462E-02  0.1224661E+00
          2   -1    0    0  501    0  0.00000000000E+00  0.00000000000E+00  0.31460419894E+03  0.31460419894E+03  0.00000000000E+00 0. -1.
         -2   -1    0    0    0  501 -0.00000000000E+00 -0.00000000000E+00 -0.68435608881E+02  0.68435608881E+02  0.00000000000E+00 0.  1.
         23    2    1    2    0    0 -0.98140716366E+02  0.64223046307E+01  0.11883227073E+03  0.19859823595E+03  0.12508918639E+03 0.  0.
          5    1    3    3  502    0  0.15471923112E+02 -0.23807218042E+02  0.61210295345E+02  0.67604265339E+02  0.41800000000E+01 0. -1.
         -5    1    3    3    0  502 -0.11361263948E+03  0.30229522673E+02  0.57621975384E+02  0.13099397061E+03  0.41800000000E+01 0. -1.
        -11    1    1    2    0    0  0.65880358480E+01 -0.23435902276E+02 -0.27087042363E+01  0.24494505720E+02  0.00000000000E+00 0.  1.
         11    1    1    2    0    0  0.91552680518E+02  0.17013597645E+02  0.13004502356E+03  0.15994706615E+03  0.00000000000E+00 0. -1.
</event>
<event>
 7    1  0.5109948E-006  0.9948199E+02  0.7561462E-02  0.1281389E+00
         -2   -1    0    0    0  501 -0.00000000000E+00  0.00000000000E+00  0.38485679145E+02  0.38485679145E+02  0.00000000000E+00 0.  1.
          2   -1    0    0  501    0  0.00000000000E+00 -0.00000000000E+00 -0.38311511707E+03  0.38311511707E+03  0.00000000000E+00 0. -1.
         23    2    1    2    0    0 -0.18157380892E+02  0.28749404183E+02 -0.12150791807E+03  0.17767365620E+03  0.12509010845E+03 0.  0.
          5    1    3    3  502    0 -0.72934814050E+01 -0.36148148196E+02 -0.10256518590E+03  0.10907324717E+03  0.41800000000E+01 0.  1.
         -5    1    3    3    0  502 -0.10863899487E+02  0.64897552379E+02 -0.18942732163E+02  0.68600409026E+02  0.41800000000E+01 0.  1.
        -11    1    1    2    0    0  0.53896195692E+02 -0.77066038190E+01 -0.15373104567E+03  0.16308717318E+03  0.00000000000E+00 0. -1.
         11    1    1    2    0    0 -0.35738814801E+02 -0.21042800364E+02 -0.69390474188E+02  0.80839966839E+02  0.00000000000E+00 0.  1.
</event>
<event>
 7    1  0.5109948E-006  0.1598757E+03  0.7561462E-02  0.1188837E+00
         -1   -1    0    0    0  501 -0.00000000000E+00  0.00000000000E+00  0.13261189518E+03  0.13261189518E+03  0.00000000000E+00 0.  1.
          1   -1    0    0  501    0  0.00000000000E+00 -0.00000000000E+00 -0.27057421063E+03  0.27057421063E+03  0.00000000000E+00 0. -1.
         23    2    1    2    0    0 -0.10345584554E+03 -0.78366888241E+02  0.17370300866E+02  0.18106976264E+03  0.12506018727E+03 0.  0.
          5    1    3    3  502    0  0.50091165569E+01 -0.70505041095E+02 -0.34765197926E+00  0.70807099435E+02  0.41800000000E+01 0.  1.
         -5    1    3    3    0  502 -0.10846496210E+03 -0.78618471459E+01  0.17717952845E+02  0.11026266320E+03  0.41800000000E+01 0.  1.
        -11    1    1    2    0    0  0.86316408881E+01  0.34631626826E+02 -0.91234371750E+00  0.35702761407E+02  0.00000000000E+00 0.  1.
         11    1    1    2    0    0  0.94824204654E+02  0.43735261415E+02 -0.15442027260E+03  0.18641358177E+03  0.00000000000E+00 0. -1.
</event>
<event>
 7    1  0.5109948E-006  0.1414041E+03  0.7561462E-02  0.1211452E+00
          1   -1    0    0  501    0  0.00000000000E+00  0.00000000000E+00  0.46373792114E+03  0.46373792114E+03  0.00000000000E+00 0. -1.
         -1   -1    0    0    0  501 -0.00000000000E+00 -0.00000000000E+00 -0.63467332054E+02  0.63467332054E+02  0.00000000000E+00 0.  1.
         23    2    1    2    0    0 -0.87336142518E+02  0.96918029741E+02  0.17368616045E+03  0.25066438172E+03  0.12508014892E+03 0.  0.
          5    1    3    3  502    0 -0.52330913694E+02  0.79730318161E+01  0.13916340842E+03  0.14894972443E+03  0.41800000000E+01 0. -1.
         -5    1    3    3    0  502 -0.35005228824E+02  0.88944997925E+02  0.34522752030E+02  0.10171465729E+03  0.41800000000E+01 0. -1.
        -11    1    1    2    0    0  0.50286285482E+02 -0.77004030232E+02  0.73347511662E+02  0.11763583062E+03  0.00000000000E+00 0.  1.
         11    1    1    2    0    0  0.37049857036E+02 -0.19913999509E+02  0.15323691698E+03  0.15890504085E+03  0.00000000000E+00 0. -1.
</event>
<event>
 7    1  0.5109948E-006  0.1705288E+03  0.7561462E-02  0.1177297E+00
         -2   -1    0    0    0  501 -0.00000000000E+00  0.00000000000E+00  0.55603278289E+02  0.55603278289E+02  0.00000000000E+00 0.  1.
          2   -1    0    0  501    0  0.00000000000E+00 -0.00000000000E+00 -0.66941306372E+03  0.66941306372E+03  0.00000000000E+00 0. -1.
         23    2    1    2    0    0 -0.15411360920E+03  0.34056143733E+02 -0.27210763745E+03  0.33852536850E+03  0.12508410488E+03 0.  0.
          5    1    3    3  502    0 -0.84287489941E+02 -0.12157538318E+02 -0.22878312640E+03  0.24415441430E+03  0.41800000000E+01 0. -1.
         -5    1    3    3    0  502 -0.69826119257E+02  0.46213682051E+02 -0.43324511058E+02  0.94370954205E+02  0.41800000000E+01 0. -1.
        -11    1    1    2    0    0  0.15433561913E+03 -0.45194294226E+02 -0.33872110631E+03  0.37495865829E+03  0.00000000000E+00 0. -1.
         11    1    1    2    0    0 -0.22200992794E+00  0.11138150493E+02 -0.29810416604E+01  0.11532315214E+02  0.00000000000E+00 0.  1.
</event>
<event>
 7    1  0.5109948E-006  0.1161454E+03  0.7561462E-02  0.1249595E+00
          2   -1    0    0  501    0  0.00000000000E+00  0.00000000000E+00  0.23271109552E+03  0.23271109552E+03  0.00000000000E+00 0. -1.
         -2   -1    0    0    0  501 -0.00000000000E+00 -0.00000000000E+00 -0.95570786041E+02  0.95570786041E+02  0.00000000000E+00 0.  1.
         23    2    1    2    0    0 -0.80271860327E+02 -0.56457673104E+02  0.43660397263E+02  0.16487908069E+03  0.12509132883E+03 0.  0.
          5    1    3    3  502    0 -0.53875152774E+02 -0.43978816531E+02 -0.37076731021E+02  0.78922903983E+02  0.41800000000E+01 0. -1.
         -5    1    3    3    0  502 -0.26396707553E+02 -0.12478856573E+02  0.80737128284E+02  0.85956176710E+02  0.41800000000E+01 0. -1.
        -11    1    1    2    0    0  0.41676318924E+02  0.78354840211E+02  0.53198809271E+02  0.10347226610E+03  0.00000000000E+00 0.  1.
         11    1    1    2    0    0  0.38595541404E+02 -0.21897167107E+02  0.40281102950E+02  0.59930534775E+02  0.00000000000E+00 0. -1.
</event>
<event>
 7    1  0.5109948E-006  0.1682771E+03  0.7561462E-02  0.1179657E+00
         -2   -1    0    0    0  501 -0.00000000000E+00  0.00000000000E+00  0.95021882796E+02  0.95021882796E+02  0.00000000000E+00 0.  1.
          2   -1    0    0  501    0  0.00000000000E+00 -0.00000000000E+00 -0.35067891412E+03  0.35067891412E+03  0.00000000000E+00 0. -1.
         23    2    1    2    0    0 -0.11396312785E+03 -0.87670533718E+02 -0.95627181006E+02  0.21322779255E+03  0.12509123380E+03 0.  0.
          5    1    3    3  502    0 -0.49503355849E+02 -0.95833535872E+02 -0.10109078409E+03  0.14789005330E+03  0.41800000000E+01 0. -1.
         -5    1    3    3    0  502 -0.64459772005E+02  0.81630021543E+01  0.54636030810E+01  0.65337739245E+02  0.41800000000E+01 0. -1.
        -11    1    1    2    0    0  0.47098802191E+02  0.84283072248E+02 -0.65638700067E+02  0.11674918579E+03  0.00000000000E+00 0.  1.
         11    1    1    2    0    0  0.66864325662E+02  0.33874614696E+01 -0.94391150250E+02  0.11572381858E+03  0.00000000000E+00 0. -1.
</event>
<event>
 7    1  0.5109948E-006  0.1336081E+03  0.7561462E-02  0.1222198E+00
         -2   -1    0    0    0  501 -0.00000000000E+00  0.00000000000E+00  0.39508606073E+03  0.39508606073E+03  0.00000000000E+00 0.  1.
          2   -1    0    0  501    0  0.00000000000E+00 -0.00000000000E+00 -0.49753793284E+02  0.49753793284E+02  0.00000000000E+00 0. -1.
         23    2    1    2    0    0  0.68661145866E+02 -0.43091254555E+02  0.24195881577E+03  0.28418555676E+03  0.12508458327E+03 0.  0.
          5    1    3    3  502    0  0.20081825974E+02  0.41939876971E+02  0.48544018967E+02  0.67351519599E+02  0.41800000000E+01 0.  1.
         -5    1    3    3    0  502  0.48579319892E+02 -0.85031131526E+02  0.19341479681E+03  0.21683403717E+03  0.41800000000E+01 0.  1.
        -11    1    1    2    0    0 -0.24677164941E+02  0.67736662716E+02  0.67658219763E+02  0.98867854467E+02  0.00000000000E+00 0.  1.
         11    1    1    2    0    0 -0.43983980926E+02 -0.24645408161E+02  0.35715231913E+02  0.61786442786E+02  0.00000000000E+00 0. -1.
</event>
<event>
 7    1  0.5109948E-006  0.7272279E+02  0.7561462E-02  0.1351071E+00
         -2   -1    0    0    0  501 -0.00000000000E+00  0.00000000000E+00  0.26316128542E+03  0.26316128542E+03  0.00000000000E+00 0.  1.
          2   -1    0    0  501    0  0.00000000000E+00 -0.00000000000E+00 -0.56807265619E+02  0.56807265619E+02  0.00000000000E+00 0. -1.
         23    2    1    2    0    0 -0.44108362221E+02  0.35208144529E+02  0.14000962600E+03  0.19605018340E+03  0.12509123862E+03 0.  0.
          5    1    3    3  502    0  0.16780139208E+02  0.10775473380E+02 -0.16548809441E+02  0.26249178888E+02  0.41800000000E+01 0.  1.
         -5    1    3    3    0  502 -0.60888501429E+02  0.24432671149E+02  0.15655843544E+03  0.16980100451E+03  0.41800000000E+01 0.  1.
        -11    1    1    2    0    0  0.32696440549E+02 -0.14676088525E+02  0.86076897598E+02  0.93239890063E+02  0.00000000000E+00 0.  1.
         11    1    1    2    0    0  0.11411921672E+02 -0.20532056004E+02 -0.19732503799E+02  0.30678477573E+02  0.00000000000E+00 0. -1.
</event>
<event>
 7    1  0.5109948E-006  0.8385768E+02  0.7561462E-02  0.1318447E+00
         -1   -1    0    0    0  501 -0.00000000000E+00  0.00000000000E+00  0.73644234266E+03  0.73644234266E+03  0.00000000000E+00 0.  1.
          1   -1    0    0  501    0  0.00000000000E+00 -0.00000000000E+00 -0.19284601524E+02  0.19284601524E+02  0.00000000000E+00 0. -1.
         23    2    1    2    0    0 -0.21522113141E+02  0.30347498108E+02  0.51138689712E+03  0.52777763907E+03  0.12509398771E+03 0.  0.
          5    1    3    3  502    0  0.29915661851E+02 -0.21936180817E+02  0.61586016955E+02  0.72017030883E+02  0.41800000000E+01 0. -1.
         -5    1    3    3    0  502 -0.51437774992E+02  0.52283678925E+02  0.44980088016E+03  0.45576060819E+03  0.41800000000E+01 0. -1.
        -11    1    1    2    0    0  0.19710454990E+02 -0.41330134487E+02  0.21081368748E+03  0.21572921194E+03  0.00000000000E+00 0.  1.
         11    1    1    2    0    0  0.18116581509E+01  0.10982636379E+02 -0.50428434650E+01  0.12220093178E+02  0.00000000000E+00 0. -1.
</event>
<event>
 7    1  0.5109948E-006  0.1655575E+03  0.7561462E-02  0.1182561E+00
         -1   -1    0    0    0  501 -0.00000000000E+00  0.00000000000E+00  0.11495916671E+03  0.11495916671E+03  0.00000000000E+00 0.  1.
          1   -1    0    0  501    0  0.00000000000E+00 -0.00000000000E+00 -0.28708346045E+03  0.28708346045E+03  0.00000000000E+00 0. -1.
         23    2    1    2    0    0  0.10375015453E+03  0.84057663950E+02 -0.26790043125E+02  0.18491873621E+03  0.12508975640E+03 0.  0.
          5    1    3    3  502    0  0.22436630466E+01  0.66938857248E+02  0.22408961041E+02  0.70749406842E+02  0.41800000000E+01 0. -1.
         -5    1    3    3    0  502  0.10150649149E+03  0.17118806702E+02 -0.49199004165E+02  0.11416932936E+03  0.41800000000E+01 0. -1.
        -11    1    1    2    0    0 -0.12672198510E+02  0.19384752122E+02 -0.16265655834E+02  0.28300614651E+02  0.00000000000E+00 0. -1.
         11    1    1    2    0    0 -0.91077956022E+02 -0.10344241607E+03 -0.12906859478E+03  0.18882327630E+03  0.00000000000E+00 0.  1.
</event>
<event>
 6    1  0.5109948E-006  0.1079642E+03  0.7561462E-02  0.1264387E+00
         -2   -1    0    0    0  501 -0.00000000000E+00  0.00000000000E+00  0.11177580112E+03  0.11177580112E+03  0.00000000000E+00 0.  1.
          2   -1    0    0  501    0  0.00000000000E+00 -0.00000000000E+00 -0.19459135075E+03  0.19459135075E+03  0.00000000000E+00 0. -1.
          5    1    1    2  502    0  0.29402794181E+02 -0.11976639496E+02 -0.26283689151E+02  0.41427876058E+02  0.41800000000E+01 0. -1.
         -5    1    1    2    0  502 -0.98163281042E+02 -0.70328042323E+01  0.49065288372E+02  0.11004710357E+03  0.41800000000E+01 0.  1.
        -11    1    1    2    0    0  0.84971922422E+01  0.23483194191E+02  0.79989575869E+01  0.26223005318E+02  0.00000000000E+00 0.  1.
         11    1    1    2    0    0  0.60263294619E+02 -0.44737504634E+01 -0.11359610643E+03  0.12866916693E+03  0.00000000000E+00 0. -1.
</event>
<event>
 7    1  0.5109948E-006  0.1395153E+03  0.7561462E-02  0.1213983E+00
         -2   -1    0    0    0  501 -0.00000000000E+00  0.00000000000E+00  0.81941481408E+02  0.81941481408E+02  0.00000000000E+00 0.  1.
          2   -1    0    0  501    0  0.00000000000E+00 -0.00000000000E+00 -0.31328415417E+03  0.31328415417E+03  0.00000000000E+00 0. -1.
         23    2    1    2    0    0  0.38017243218E+02 -0.97944939889E+02 -0.59650843065E+02  0.17392754460E+03  0.12511612870E+03 0.  0.
          5    1    3    3  502    0 -0.41504783173E+02 -0.43220264803E+02  0.57747943753E+00  0.60070327104E+02  0.41800000000E+01 0. -1.
         -5    1    3    3    0  502  0.79522026391E+02 -0.54724675087E+02 -0.60228322502E+02  0.11385721750E+03  0.41800000000E+01 0. -1.
        -11    1    1    2    0    0  0.27624966038E+01  0.75962452605E+02 -0.15394370725E+03  0.17168747943E+03  0.00000000000E+00 0. -1.
         11    1    1    2    0    0 -0.40779739822E+02  0.21982487284E+02 -0.17748122448E+02  0.49610611542E+02  0.00000000000E+00 0.  1.
</event>
<event>
 7    1  0.5109948E-006  0.9324600E+02  0.7561462E-02  0.1295176E+00
          2   -1    0    0  501    0  0.00000000000E+00  0.00000000000E+00  0.10356521737E+03  0.10356521737E+03  0.00000000000E+00 0. -1.
         -2   -1    0    0    0  501 -0.00000000000E+00 -0.00000000000E+00 -0.32225073701E+03  0.32225073701E+03  0.00000000000E+00 0.  1.
         23    2    1    2    0    0  0.10744192702E+02  0.45783692304E+02 -0.27527211712E+03  0.30599659662E+03  0.12509034543E+03 0.  0.
          5    1    3    3  502    0 -0.51260038954E+02  0.44541003330E+02 -0.10905614513E+03  0.12853874031E+03  0.41800000000E+01 0.  1.
         -5    1    3    3    0  502  0.62004231656E+02  0.12426889738E+01 -0.16621597199E+03  0.17745785631E+03  0.41800000000E+01 0.  1.
        -11    1    1    2    0    0  0.78301129506E+01 -0.32583328076E+02 -0.20602088436E+02  0.39337386609E+02  0.00000000000E+00 0.  1.
         11    1    1    2    0    0 -0.18574305653E+02 -0.13200364228E+02  0.77188685920E+02  0.80481971150E+02  0.00000000000E+00 0. -1.
</event>
<event>
 6    1  0.5109948E-006  0.1089635E+03  0.7561462E-02  0.1262502E+00
          2   -1    0    0  501    0  0.00000000000E+00  0.00000000000E+00  0.39907187014E+03  0.39907187014E+03  0.00000000000E+00 0. -1.
         -2   -1    0    0    0  501 -0.00000000000E+00 -0.00000000000E+00 -0.43128238557E+02  0.43128238557E+02  0.00000000000E+00 0.  1.
          5    1    1    2  502    0 -0.31478811284E+02  0.20053182546E+02  0.10803476515E+03  0.11437669592E+03  0.41800000000E+01 0. -1.
         -5    1    1    2    0  502  0.71303528701E+02 -0.32372820628E+02  0.24556976741E+02  0.82174875889E+02  0.41800000000E+01 0.  1.
        -11    1    1    2    0    0  0.15984186330E+02  0.37469372540E+02  0.80019087113E+02  0.89791438309E+02  0.00000000000E+00 0.  1.
         11    1    1    2    0    0 -0.55808903748E+02 -0.25149734457E+02  0.14333280258E+03  0.15585709858E+03  0.00000000000E+00 0. -1.
</event>
<event>
 7    1  0.5109948E-006  0.1828367E+03  0.7561462E-02  0.1165086E+00
         -2   -1    0    0    0  501 -0.00000000000E+00  0.00000000000E+00  0.84115716328E+02  0.84115716328E+02  0.00000000000E+00 0.  1.
          2   -1    0    0  501    0  0.00000000000E+00 -0.00000000000E+00 -0.48838583707E+03  0.48838583707E+03  0.00000000000E+00 0. -1.
         23    2    1    2    0    0  0.98647985426E+02  0.13895461774E+03 -0.19751636647E+03  0.28930830611E+03  0.12508705025E+03 0.  0.
          5    1    3    3  502    0  0.46691549131E+01  0.25942698782E+02  0.15202470313E+02  0.30715014754E+02  0.41800000000E+01 0.  1.
         -5    1    3    3    0  502  0.93978830513E+02  0.11301191896E+03 -0.21271883678E+03  0.25859329135E+03  0.41800000000E+01 0.  1.
        -11    1    1    2    0    0 -0.10335740169E+03 -0.74723871358E+02 -0.11975706680E+03  0.17495189191E+03  0.00000000000E+00 0.  1.
         11    1    1    2    0    0  0.47094162631E+01 -0.64230746384E+02 -0.86996687478E+02  0.10824135538E+03  0.00000000000E+00 0. -1.
</event>
<event>
 7    1  0.5109948E-006  0.1300250E+03  0.7561462E-02  0.1227419E+00
          2   -1    0    0  501    0  0.00000000000E+00  0.00000000000E+00  0.40206753667E+03  0.40206753667E+03  0.00000000000E+00 0. -1.
         -2   -1    0    0    0  501 -0.00000000000E+00 -0.00000000000E+00 -0.46652837927E+02  0.46652837927E+02  0.00000000000E+00 0.  1.
         23    2    1    2    0    0  0.59999226112E+02 -0.58637410160E+02  0.20935398663E+03  0.25790561452E+03  0.12509181138E+03 0.  0.
          5    1    3    3  502    0  0.85245096006E+02 -0.80172693566E+02  0.16619867479E+03  0.20330730211E+03  0.41800000000E+01 0.  1.
         -5    1    3    3    0  502 -0.25245869894E+02  0.21535283406E+02  0.43155311842E+02  0.54598312412E+02  0.41800000000E+01 0.  1.
        -11    1    1    2    0    0 -0.63687123217E+02  0.14630673975E+02  0.41759170013E+02  0.77549561990E+02  0.00000000000E+00 0.  1.
         11    1    1    2    0    0  0.36878971052E+01  0.44006736185E+02  0.10430154209E+03  0.11326519809E+03  0.00000000000E+00 0. -1.
</event>
<event>
 7    1  0.5109948E-006  0.1100111E+03  0.7561462E-02  0.1260549E+00
         -2   -1    0    0    0  501 -0.00000000000E+00  0.00000000000E+00  0.28097818464E+03  0.28097818464E+03  0.00000000000E+00 0.  1.
          2   -1    0    0  501    0  0.00000000000E+00 -0.00000000000E+00 -0.79914457152E+02  0.79914457152E+02  0.00000000000E+00 0. -1.
         23    2    1    2    0    0  0.28096776884E+02  0.23053833764E+02  0.22840464080E+03  0.26293822219E+03  0.12508765177E+03 0.  0.
          5    1    3    3  502    0 -0.49695994739E+02  0.11641426513E+02  0.99017199471E+02  0.11147687157E+03  0.41800000000E+01 0. -1.
         -5    1    3    3    0  502  0.77792771622E+02  0.11412407251E+02  0.12938744133E+03  0.15146135061E+03  0.41800000000E+01 0. -1.
        -11    1    1    2    0    0 -0.45751515433E+01 -0.52323846694E+02 -0.18244137394E+01  0.52555165588E+02  0.00000000000E+00 0.  1.
         11    1    1    2    0    0 -0.23521625340E+02  0.29270012930E+02 -0.25516499569E+02  0.45399254023E+02  0.00000000000E+00 0. -1.
</event>
<event>
 7    1  0.5109948E-006  0.9170553E+02  0.7561462E-02  0.1298773E+00
          1   -1    0    0  501    0  0.00000000000E+00  0.00000000000E+00  0.99327170350E+03  0.99327170350E+03  0.00000000000E+00 0. -1.
         -1   -1    0    0    0  501 -0.00000000000E+00 -0.00000000000E+00 -0.14346030307E+02  0.14346030307E+02  0.00000000000E+00 0.  1.
         23    2    1    2    0    0  0.73309258958E+01 -0.61538199162E+02  0.48818701316E+03  0.50775622254E+03  0.12509647986E+03 0.  0.
          5    1    3    3  502    0  0.23433412712E+02 -0.66800500876E+02  0.12169798409E+03  0.14085206239E+03  0.41800000000E+01 0.  1.
         -5    1    3    3    0  502 -0.16102486816E+02  0.52623017140E+01  0.36648902908E+03  0.36690416015E+03  0.41800000000E+01 0.  1.
        -11    1    1    2    0    0 -0.30147621896E+02  0.65299619496E+02  0.36736896173E+03  0.37434325619E+03  0.00000000000E+00 0. -1.
         11    1    1    2    0    0  0.22816696000E+02 -0.37614203346E+01  0.12336969830E+03  0.12551825507E+03  0.00000000000E+00 0.  1.
</event>
<event>
 7    1  0.5109948E-006  0.1098207E+03  0.7561462E-02  0.1260902E+00
         -1   -1    0    0    0  501 -0.00000000000E+00  0.00000000000E+00  0.68329512899E+02  0.68329512899E+02  0.00000000000E+00 0.  1.
          1   -1    0    0  501    0  0.00000000000E+00 -0.00000000000E+00 -0.32881576029E+03  0.32881576029E+03  0.00000000000E+00 0. -1.
         23    2    1    2    0    0 -0.18069535306E+02  0.77317082713E+02 -0.55371632964E+02  0.15817136334E+03  0.12509085921E+03 0.  0.
          5    1    3    3  502    0 -0.42672488860E+02 -0.12629805236E+02  0.79175347921E+01  0.45393975844E+02  0.41800000000E+01 0. -1.
         -5    1    3    3    0  502  0.24602953553E+02  0.89946887949E+02 -0.63289167756E+02  0.11277738750E+03  0.41800000000E+01 0. -1.
        -11    1    1    2    0    0  0.12278165957E+02 -0.16818706853E+02  0.40021749573E+01  0.21204708530E+02  0.00000000000E+00 0.  1.
         11    1    1    2    0    0  0.57913693491E+01 -0.60498375860E+02 -0.20911678938E+03  0.21776920132E+03  0.00000000000E+00 0. -1.
</event>
<event>
 7    1  0.5109948E-006  0.1269913E+03  0.7561462E-02  0.1231990E+00
         -1   -1    0    0    0  501 -0.00000000000E+00  0.00000000000E+00  0.36910034286E+02  0.36910034286E+02  0.00000000000E+00 0.  1.
          1   -1    0    0  501    0  0.00000000000E+00 -0.00000000000E+00 -0.46106692969E+03  0.46106692969E+03  0.00000000000E+00 0. -1.
         23    2    1    2    0    0  0.69504260418E+02 -0.14998061413E+02 -0.22527437523E+03  0.26730487750E+03  0.12509024478E+03 0.  0.
          5    1    3    3  502    0 -0.38414074717E+01  0.44647711680E+02 -0.44673101241E+02  0.63413980667E+02  0.41800000000E+01 0. -1.
         -5    1    3    3    0  502  0.73345667890E+02 -0.59645773093E+02 -0.18060127399E+03  0.20389089684E+03  0.41800000000E+01 0. -1.
        -11    1    1    2    0    0 -0.46057770130E+02  0.52673906656E+02 -0.14395271051E+03  0.16005699452E+03  0.00000000000E+00 0.  1.
         11    1    1    2    0    0 -0.23446490288E+02 -0.37675845243E+02 -0.54929809658E+02  0.70615091947E+02  0.00000000000E+00 0. -1.
</event>
<event>
 6    1  0.5109948E-006  0.1327096E+03  0.7561462E-02  0.1223490E+00
          2   -1    0    0  501    0  0.00000000000E+00  0.00000000000E+00  0.58574702138E+02  0.58574702138E+02  0.00000000000E+00 0. -1.
         -2   -1    0    0    0  501 -0.00000000000E+00 -0.00000000000E+00 -0.49882656769E+03  0.49882656769E+03  0.00000000000E+00 0.  1.
          5    1    1    2  502    0  0.65016203672E+02 -0.72656860449E+01 -0.17097388553E+03  0.18311045537E+03  0.41800000000E+01 0. -1.
         -5    1    1    2    0  502 -0.77475168887E+02  0.88067329131E+02 -0.20364377828E+03  0.23504577657E+03  0.41800000000E+01 0.  1.
        -11    1    1    2    0    0 -0.88058683747E+00 -0.28674520965E+02 -0.78792490753E+02  0.83852609886E+02  0.00000000000E+00 0.  1.
         11    1    1    2    0    0  0.13339552052E+02 -0.52127122121E+02  0.13158289007E+02  0.55392427995E+02  0.00000000000E+00 0. -1.
</event>
<event>
 7    1  0.5109948E-006  0.1189243E+03  0.7561462E-02  0.1244882E+00
         -2   -1    0    0    0  501 -0.00000000000E+00  0.00000000000E+00  0.14681185581E+03  0.14681185581E+03  0.00000000000E+00 0.  1.
          2   -1    0    0  501    0  0.00000000000E+00 -0.00000000000E+00 -0.13718941473E+03  0.13718941473E+03  0.00000000000E+00 0. -1.
         23    2    1    2    0    0 -0.66466392856E+02 -0.26083985697E+02  0.61982752349E+02  0.15680145255E+03  0.12508668292E+03 0.  0.
          5    1    3    3  502    0 -0.95223107684E+02 -0.22859858123E+01  0.70143582675E+02  0.11836494649E+03  0.41800000000E+01 0. -1.
         -5    1    3    3    0  502  0.28756714828E+02 -0.23797999884E+02 -0.81608303266E+01  0.38436506056E+02  0.41800000000E+01 0. -1.
        -11    1    1    2    0    0  0.59170911992E+02  0.51537041191E+02 -0.60955043007E+02  0.99361867478E+02  0.00000000000E+00 0. -1.
         11    1    1    2    0    0  0.72954808648E+01 -0.25453055495E+02  0.85947317355E+01  0.27837950511E+02  0.00000000000E+00 0.  1.
</event>
<event>
 7    1  0.5109948E-006  0.8403468E+02  0.7561462E-02  0.1317976E+00
         -2   -1    0    0    0  501 -0.00000000000E+00  0.00000000000E+00  0.12406289475E+03  0.12406289475E+03  0.00000000000E+00 0.  1.
          2   -1    0    0  501    0  0.00000000000E+00 -0.00000000000E+00 -0.10605735847E+03  0.10605735847E+03  0.00000000000E+00 0. -1.
         23    2    1    2    0    0  0.81224361534E+01 -0.28595076103E+02  0.32324448532E+02  0.13257600034E+03  0.12509146073E+03 0.  0.
          5    1    3    3  502    0  0.65542506347E+02 -0.21418301449E+02  0.75537654767E+01  0.69491694095E+02  0.41800000000E+01 0.  1.
         -5    1    3    3    0  502 -0.57420070194E+02 -0.71767746532E+01  0.24770683056E+02  0.63084306246E+02  0.41800000000E+01 0.  1.
        -11    1    1    2    0    0 -0.17234088830E+02  0.91836051074E+01 -0.51247003527E+02  0.54841661090E+02  0.00000000000E+00 0. -1.
         11    1    1    2    0    0  0.91116526764E+01  0.19411470995E+02  0.36928091275E+02  0.42702591793E+02  0.00000000000E+00 0.  1.
</event>
<event>
 7    1  0.5109948E-006  0.1066550E+03  0.7561462E-02  0.1266893E+00
          1   -1    0    0  501    0  0.00000000000E+00  0.00000000000E+00  0.97512846393E+02  0.97512846393E+02  0.00000000000E+00 0. -1.
         -1   -1    0    0    0  501 -0.00000000000E+00 -0.00000000000E+00 -0.14906445918E+03  0.14906445918E+03  0.00000000000E+00 0.  1.
         23    2    1    2    0    0  0.27501405103E+02  0.22567072254E+02 -0.73837935541E+02  0.14955046706E+03  0.12509077281E+03 0.  0.
          5    1    3    3  502    0  0.54763323989E+02  0.54529584073E+02 -0.74362452894E+02  0.10733007032E+03  0.41800000000E+01 0.  1.
         -5    1    3    3    0  502 -0.27261918886E+02 -0.31962511818E+02  0.52451735289E+00  0.42220396748E+02  0.41800000000E+01 0.  1.
        -11    1    1    2    0    0 -0.54905249758E+02 -0.33359986009E+02  0.96022753790E+01  0.64959054873E+02  0.00000000000E+00 0.  1.
         11    1    1    2    0    0  0.27403844655E+02  0.10792913755E+02  0.12684047380E+02  0.32067783633E+02  0.00000000000E+00 0. -1.
</event>
<event>
 7    1  0.5109948E-006  0.9063975E+02  0.7561462E-02  0.1301310E+00
         -1   -1    0    0    0  501 -0.00000000000E+00  0.00000000000E+00  0.58832340281E+03  0.58832340281E+03  0.00000000000E+00 0.  1.
          1   -1    0    0  501    0  0.00000000000E+00 -0.00000000000E+00 -0.24133853977E+02  0.24133853977E+02  0.00000000000E+00 0. -1.
         23    2    1    2    0    0  0.15262147242E+02  0.17209175609E+01  0.43958927411E+03  0.45729980848E+03  0.12509392562E+03 0.  0.
          5    1    3    3  502    0 -0.35672806671E+02  0.10086247227E+02  0.36260073693E+03  0.36451481224E+03  0.41800000000E+01 0.  1.
         -5    1    3    3    0  502  0.50934953913E+02 -0.83653296664E+01  0.76988537182E+02  0.92784996244E+02  0.41800000000E+01 0.  1.
        -11    1    1    2    0    0 -0.23546687451E+02 -0.43570055985E+02  0.72838396248E+02  0.88080805153E+02  0.00000000000E+00 0. -1.
         11    1    1    2    0    0  0.82845402087E+01  0.41849138424E+02  0.51761878473E+02  0.67076643151E+02  0.00000000000E+00 0.  1.
</event>
<event>
 7    1  0.5109948E-006  0.2308736E+03  0.7561462E-02  0.1126026E+00
         -2   -1    0    0    0  501 -0.00000000000E+00  0.00000000000E+00  0.50040801670E+03  0.50040801670E+03  0.00000000000E+00 0.  1.
          2   -1    0    0  501    0  0.00000000000E+00 -0.00000000000E+00 -0.12118672519E+03  0.12118672519E+03  0.00000000000E+00 0. -1.
         23    2    1    2    0    0  0.19336331565E+03 -0.68990085502E+02  0.29731521360E+03  0.38234222102E+03  0.12506092115E+03 0.  0.
          5    1    3    3  502    0  0.96720119688E+02 -0.99470062927E+02  0.17881710658E+03  0.22636719059E+03  0.41800000000E+01 0. -1.
         -5    1    3    3    0  502  0.96643195957E+02  0.30479977425E+02  0.11849810702E+03  0.15597503043E+03  0.41800000000E+01 0. -1.
        -11    1    1    2    0    0 -0.13995248532E+03  0.76139633032E+01  0.31872905109E+02  0.14373779136E+03  0.00000000000E+00 0. -1.
         11    1    1    2    0    0 -0.53410830326E+02  0.61376122199E+02  0.50033172802E+02  0.95514729508E+02  0.00000000000E+00 0.  1.
</event>
<event>
 7    1  0.5109948E-006  0.1542813E+03  0.7561462E-02  0.1195309E+00
          3   -1    0    0  501    0  0.00000000000E+00  0.00000000000E+00  0.68341421119E+02  0.68341421119E+02  0.00000000000E+00 0. -1.
         -3   -1    0    0    0  501 -0.00000000000E+00 -0.00000000000E+00 -0.52186225558E+03  0.52186225558E+03  0.00000000000E+00 0.  1.
         23    2    1    2    0    0  0.48452494103E+02  0.11890335479E+03 -0.37151654878E+03  0.41250274573E+03  0.12509323423E+03 0.  0.
          5    1    3    3  502    0 -0.34111937338E+02  0.88741543759E+01 -0.12753095774E+03  0.13237821750E+03  0.41800000000E+01 0.  1.
         -5    1    3    3    0  502  0.82564431441E+02  0.11002920041E+03 -0.24398559104E+03  0.28012452823E+03  0.41800000000E+01 0.  1.
        -11    1    1    2    0    0 -0.47260639429E+02 -0.59307608023E+02  0.59775237928E+00  0.75837442709E+02  0.00000000000E+00 0. -1.
         11    1    1    2    0    0 -0.11918546746E+01 -0.59595746762E+02 -0.82602038060E+02  0.10186348826E+03  0.00000000000E+00 0.  1.
</event>
<event>
 7    1  0.5109948E-006  0.1070276E+03  0.7561462E-02  0.1266175E+00
          2   -1    0    0  501    0  0.00000000000E+00  0.00000000000E+00  0.34568556617E+03  0.34568556617E+03  0.00000000000E+00 0. -1.
         -2   -1    0    0    0  501 -0.00000000000E+00 -0.00000000000E+00 -0.71655548253E+02  0.71655548253E+02  0.00000000000E+00 0.  1.
         23    2    1    2    0    0 -0.69765809197E+01  0.84764217347E+02  0.48058130722E+02  0.15871530258E+03  0.12508924063E+03 0.  0.
          5    1    3    3  502    0 -0.35884778270E+02  0.54286254975E-01 -0.24303117637E+02  0.43541178043E+02  0.41800000000E+01 0. -1.
         -5    1    3    3    0  502  0.28908197350E+02  0.84709931092E+02  0.72361248359E+02  0.11517412454E+03  0.41800000000E+01 0. -1.
        -11    1    1    2    0    0 -0.73106069575E+01 -0.52899660210E+02  0.21571910238E+03  0.22223084879E+03  0.00000000000E+00 0. -1.
         11    1    1    2    0    0  0.14287187877E+02 -0.31864557137E+02  0.10252784824E+02  0.36394963053E+02  0.00000000000E+00 0.  1.
</event>
<event>
 7    1  0.5109948E-006  0.1135595E+03  0.7561462E-02  0.1254117E+00
          1   -1    0    0  501    0  0.00000000000E+00  0.00000000000E+00  0.11011677574E+03  0.11011677574E+03  0.00000000000E+00 0. -1.
         -1   -1    0    0    0  501 -0.00000000000E+00 -0.00000000000E+00 -0.20736557859E+03  0.20736557859E+03  0.00000000000E+00 0.  1.
         23    2    1    2    0    0  0.94818595495E+02 -0.99394029577E+01 -0.11035318385E+03  0.19213861326E+03  0.12510021479E+03 0.  0.
          5    1    3    3  502    0  0.60640315848E+01 -0.37909840831E+02  0.10053078221E+02  0.39905705014E+02  0.41800000000E+01 0.  1.
         -5    1    3    3    0  502  0.88754563910E+02  0.27970437874E+02 -0.12040626207E+03  0.15223290825E+03  0.41800000000E+01 0.  1.
        -11    1    1    2    0    0 -0.54955682346E+02  0.50517655406E+01 -0.32920090981E+02  0.64260250135E+02  0.00000000000E+00 0.  1.
         11    1    1    2    0    0 -0.39862913149E+02  0.48876374170E+01  0.46024471978E+02  0.61083490937E+02  0.00000000000E+00 0. -1.
</event>
<event>
 7    1  0.5109948E-006  0.1207245E+03  0.7561462E-02  0.1241907E+00
         -2   -1    0    0    0  501 -0.00000000000E+00  0.00000000000E+00  0.37112610859E+02  0.37112610859E+02  0.00000000000E+00 0.  1.
          2   -1    0    0  501    0  0.00000000000E+00 -0.00000000000E+00 -0.49075726254E+03  0.49075726254E+03  0.00000000000E+00 0. -1.
         23    2    1    2    0    0  0.79503317409E+02  0.12111298943E+02 -0.26930023288E+03  0.30763109944E+03  0.12508723704E+03 0.  0.
          5    1    3    3  502    0 -0.62203426249E+01  0.38188600685E+02 -0.22312985255E+02  0.44859821619E+02  0.41800000000E+01 0. -1.
         -5    1    3    3    0  502  0.85723660034E+02 -0.26077301742E+02 -0.24698724763E+03  0.26277127782E+03  0.41800000000E+01 0. -1.
        -11    1    1    2    0    0  0.11973870377E+02  0.13295319126E+02 -0.72589422917E+01  0.19308840609E+02  0.00000000000E+00 0.  1.
         11    1    1    2    0    0 -0.91477187786E+02 -0.25406618069E+02 -0.17708547650E+03  0.20092993335E+03  0.00000000000E+00 0. -1.
</event>
<event>
 7    1  0.5109948E-006  0.1183078E+03  0.7561462E-02  0.1245915E+00
          1   -1    0    0  501    0  0.00000000000E+00  0.00000000000E+00  0.12074872864E+03  0.12074872864E+03  0.00000000000E+00 0. -1.
         -1   -1    0    0    0  501 -0.00000000000E+00 -0.00000000000E+00 -0.17587678625E+03  0.17587678625E+03  0.00000000000E+00 0.  1.
         23    2    1    2    0    0  0.17749868055E+02  0.84772121765E+02 -0.72170470123E+02  0.16839727722E+03  0.12509075014E+03 0.  0.
          5    1    3    3  502    0 -0.44121644277E+02  0.73648813123E+02 -0.58371016527E+02  0.10390146841E+03  0.41800000000E+01 0.  1.
         -5    1    3    3    0  502  0.61871512332E+02  0.11123308642E+02 -0.13799453596E+02  0.64495808802E+02  0.41800000000E+01 0.  1.
        -11    1    1    2    0    0 -0.15621482706E+02 -0.41648348889E+02 -0.37839040622E+02  0.58398704457E+02  0.00000000000E+00 0.  1.
         11    1    1    2    0    0 -0.21283853497E+01 -0.43123772877E+02  0.54881453137E+02  0.69829533220E+02  0.00000000000E+00 0. -1.
</event>
<event>
 6    1  0.5109948E-006  0.1954129E+03  0.7561462E-02  0.1153668E+00
          2   -1    0    0  501    0  0.00000000000E+00  0.00000000000E+00  0.41194859887E+03  0.41194859887E+03  0.00000000000E+00 0. -1.
         -2   -1    0    0    0  501 -0.00000000000E+00 -0.00000000000E+00 -0.12793941502E+03  0.12793941502E+03  0.00000000000E+00 0.  1.
          5    1    1    2  502    0  0.38781367879E+02  0.88473357050E+01  0.43465402869E+02  0.59067617949E+02  0.41800000000E+01 0. -1.
         -5    1    1    2    0  502 -0.45458232453E+02 -0.16148207438E+03 -0.11644393643E+02  0.16821407654E+03  0.41800000000E+01 0.  1.
        -11    1    1    2    0    0  0.13898230452E+02 -0.11917328569E+02  0.40015393740E+02  0.44004718680E+02  0.00000000000E+00 0.  1.
         11    1    1    2    0    0 -0.72213658775E+01  0.16455206724E+03  0.21217278088E+03  0.26860160071E+03  0.00000000000E+00 0. -1.
</event>
<event>
 7    1  0.5109948E-006  0.1827427E+03  0.7561462E-02  0.1165175E+00
         -2   -1    0    0    0  501 -0.00000000000E+00  0.00000000000E+00  0.95136381370E+02  0.95136381370E+02  0.00000000000E+00 0.  1.
          2   -1    0    0  501    0  0.00000000000E+00 -0.00000000000E+00 -0.44120393220E+03  0.44120393220E+03  0.00000000000E+00 0. -1.
         23    2    1    2    0    0  0.49884681457E+02  0.16592968803E+03 -0.16740134680E+03  0.27146069705E+03  0.12508619556E+03 0.  0.
          5    1    3    3  502    0  0.21641863545E+02  0.56083992931E+02  0.97774049253E+01  0.61047969400E+02  0.41800000000E+01 0. -1.
         -5    1    3    3    0  502  0.28242817912E+02  0.10984569510E+03 -0.17717875173E+03  0.21041272765E+03  0.41800000000E+01 0. -1.
        -11    1    1    2    0    0  0.22662742100E+02 -0.51143785905E+02 -0.29790251722E+02  0.63377802217E+02  0.00000000000E+00 0. -1.
         11    1    1    2    0    0 -0.72547423557E+02 -0.11478590212E+03 -0.14887595231E+03  0.20150181430E+03  0.00000000000E+00 0.  1.
</event>
<event>
 6    1  0.5109948E-006  0.2918789E+03  0.7561462E-02  0.1089372E+00
         -1   -1    0    0    0  501 -0.00000000000E+00  0.00000000000E+00  0.16770814602E+03  0.16770814602E+03  0.00000000000E+00 0.  1.
          1   -1    0    0  501    0  0.00000000000E+00 -0.00000000000E+00 -0.53967985455E+03  0.53967985455E+03  0.00000000000E+00 0. -1.
          5    1    1    2  502    0  0.23418100264E+03 -0.46163813671E+02 -0.10626371922E+03  0.26130688876E+03  0.41800000000E+01 0. -1.
         -5    1    1    2    0  502 -0.24746732553E+03  0.12372763001E+02 -0.13310830899E+03  0.28129780801E+03  0.41800000000E+01 0.  1.
        -11    1    1    2    0    0 -0.25891844215E+02  0.48819084506E+02 -0.84350240566E+02  0.10083974262E+03  0.00000000000E+00 0.  1.
         11    1    1    2    0    0  0.39178167103E+02 -0.15028033836E+02 -0.48249439766E+02  0.63943561179E+02  0.00000000000E+00 0. -1.
</event>
<event>
 7    1  0.5109948E-006  0.1405735E+03  0.7561462E-02  0.1212559E+00
         -2   -1    0    0    0  501 -0.00000000000E+00  0.00000000000E+00  0.60556818961E+02  0.60556818961E+02  0.00000000000E+00 0.  1.
          2   -1    0    0  501    0  0.00000000000E+00 -0.00000000000E+00 -0.50056784800E+03  0.50056784800E+03  0.00000000000E+00 0. -1.
         23    2    1    2    0    0  0.40980067082E+02 -0.77918296304E+02 -0.71588893039E+02  0.17139539353E+03  0.12845537949E+03 0.  0.
          5    1    3    3  502    0 -0.42672704535E+02 -0.34060733289E+01 -0.13170880233E+02  0.44983391757E+02  0.41800000000E+01 0. -1.
         -5    1    3    3    0  502  0.83652771617E+02 -0.74512222975E+02 -0.58418012805E+02  0.12641200177E+03  0.41800000000E+01 0.  1.
        -11    1    1    2    0    0 -0.33139199233E+02 -0.12392435414E+02 -0.12747382305E+03  0.13229268516E+03  0.00000000000E+00 0.  1.
         11    1    1    2    0    0 -0.78408678494E+01  0.90310731719E+02 -0.24094831294E+03  0.25743658827E+03  0.00000000000E+00 0. -1.
</event>
<event>
 7    1  0.5109948E-006  0.1192480E+03  0.7561462E-02  0.1244343E+00
         -2   -1    0    0    0  501 -0.00000000000E+00  0.00000000000E+00  0.21743408762E+03  0.21743408762E+03  0.00000000000E+00 0.  1.
          2   -1    0    0  501    0  0.00000000000E+00 -0.00000000000E+00 -0.94534644797E+02  0.94534644797E+02  0.00000000000E+00 0. -1.
         23    2    1    2    0    0 -0.82935834126E+02 -0.15687333923E+02  0.11095417076E+03  0.18730025734E+03  0.12508442495E+03 0.  0.
          5    1    3    3  502    0 -0.70126584675E+02  0.28334119632E+02  0.10080330012E+02  0.76417574331E+02  0.41800000000E+01 0. -1.
         -5    1    3    3    0  502 -0.12809249451E+02 -0.44021453555E+02  0.10087384075E+03  0.11088268301E+03  0.41800000000E+01 0. -1.
        -11    1    1    2    0    0  0.13288709011E+02 -0.30411008820E+02 -0.15669100925E+02  0.36700680762E+02  0.00000000000E+00 0. -1.
         11    1    1    2    0    0  0.69647125115E+02  0.46098342743E+02  0.27614372984E+02  0.87967794310E+02  0.00000000000E+00 0.  1.
</event>
<event>
 7    1  0.5109948E-006  0.1179473E+03  0.7561462E-02  0.1246522E+00
          1   -1    0    0  501    0  0.00000000000E+00  0.00000000000E+00  0.15827973022E+03  0.15827973022E+03  0.00000000000E+00 0. -1.
         -1   -1    0    0    0  501 -0.00000000000E+00 -0.00000000000E+00 -0.11927991494E+03  0.11927991494E+03  0.00000000000E+00 0.  1.
         23    2    1    2    0    0  0.59018619442E+02  0.57663440862E+01 -0.38527928740E+02  0.14369493047E+03  0.12508950230E+03 0.  0.
          5    1    3    3  502    0  0.39100081861E+02 -0.53051443798E+02 -0.46757710510E+02  0.80913707014E+02  0.41800000000E+01 0. -1.
         -5    1    3    3    0  502  0.19918537580E+02  0.58817787884E+02  0.82297817705E+01  0.62781223458E+02  0.41800000000E+01 0. -1.
        -11    1    1    2    0    0 -0.42400796084E+02  0.40392049455E+02  0.53146415547E+02  0.79081519037E+02  0.00000000000E+00 0. -1.
         11    1    1    2    0    0 -0.16617823358E+02 -0.46158393541E+02  0.24381328478E+02  0.54783195651E+02  0.00000000000E+00 0.  1.
</event>
<event>
 7    1  0.5109948E-006  0.1003183E+03  0.7561462E-02  0.1279628E+00
          1   -1    0    0  501    0  0.00000000000E+00  0.00000000000E+00  0.24814415144E+03  0.24814415144E+03  0.00000000000E+00 0. -1.
         -1   -1    0    0    0  501 -0.00000000000E+00 -0.00000000000E+00 -0.53914719400E+02  0.53914719400E+02  0.00000000000E+00 0.  1.
         23    2    1    2    0    0 -0.11080988592E+02  0.36625608363E+02  0.95686415699E+02  0.16207118547E+03  0.12508779123E+03 0.  0.
          5    1    3    3  502    0  0.20031047824E+01  0.69348292339E+02  0.10450174493E+03  0.12550412413E+03  0.41800000000E+01 0. -1.
         -5    1    3    3    0  502 -0.13084093375E+02 -0.32722683975E+02 -0.88153292314E+01  0.36567061345E+02  0.41800000000E+01 0. -1.
        -11    1    1    2    0    0  0.46699685408E+02 -0.32170547404E+01  0.67424844705E+02  0.82081177757E+02  0.00000000000E+00 0.  1.
         11    1    1    2    0    0 -0.35618696816E+02 -0.33408553623E+02  0.31118171641E+02  0.57906507616E+02  0.00000000000E+00 0. -1.
</event>
<event>
 7    1  0.5109948E-006  0.8327014E+02  0.7561462E-02  0.1320019E+00
          1   -1    0    0  501    0  0.00000000000E+00  0.00000000000E+00  0.69868221521E+03  0.69868221521E+03  0.00000000000E+00 0. -1.
         -1   -1    0    0    0  501 -0.00000000000E+00 -0.00000000000E+00 -0.26764603283E+02  0.26764603283E+02  0.00000000000E+00 0.  1.
         23    2    1    2    0    0  0.77546284059E+02  0.36313465736E+01  0.39102979032E+03  0.41782468036E+03  0.12508618527E+03 0.  0.
          5    1    3    3  502    0  0.36993554663E+02  0.64809545525E+01  0.16774373697E+02  0.41344623247E+02  0.41800000000E+01 0.  1.
         -5    1    3    3    0  502  0.40552729396E+02 -0.28496079789E+01  0.37425541663E+03  0.37648005711E+03  0.41800000000E+01 0.  1.
        -11    1    1    2    0    0 -0.50743707875E+02 -0.22087037325E+02  0.26624749200E+03  0.27193839027E+03  0.00000000000E+00 0. -1.
         11    1    1    2    0    0 -0.26802576184E+02  0.18455690752E+02  0.14640329613E+02  0.35683747875E+02  0.00000000000E+00 0.  1.
</event>
<event>
 7    1  0.5627691E-006  0.2012608E+03  0.7561462E-02  0.1148680E+00
         -1   -1    0    0    0  501 -0.00000000000E+00  0.00000000000E+00  0.10548084955E+04  0.10548084955E+04  0.00000000000E+00 0.  1.
          1   -1    0    0  501    0  0.00000000000E+00 -0.00000000000E+00 -0.45660407053E+02  0.45660407053E+02  0.00000000000E+00 0. -1.
         23    2    1    2    0    0  0.16864514145E+03 -0.43682689425E+02  0.71797921334E+03  0.74932716879E+03  0.12509074307E+03 0.  0.
          5    1    3    3  502    0 -0.74650178917E+01  0.17821482819E+02  0.15447244927E+03  0.15573227580E+03  0.41800000000E+01 0. -1.
         -5    1    3    3    0  502  0.17611015934E+03 -0.61504172244E+02  0.56350676408E+03  0.59359489299E+03  0.41800000000E+01 0. -1.
        -11    1    1    2    0    0 -0.12297862865E+03 -0.12672688246E+02  0.17797037035E+03  0.21669746850E+03  0.00000000000E+00 0.  1.
         11    1    1    2    0    0 -0.45666512797E+02  0.56355377671E+02  0.11319850476E+03  0.13444426526E+03  0.00000000000E+00 0. -1.
</event>
<event>
 7    1  0.5109948E-006  0.2288402E+03  0.7561462E-02  0.1127459E+00
          1   -1    0    0  501    0  0.00000000000E+00  0.00000000000E+00  0.53836275235E+03  0.53836275235E+03  0.00000000000E+00 0. -1.
         -1   -1    0    0    0  501 -0.00000000000E+00 -0.00000000000E+00 -0.12064410544E+03  0.12064410544E+03  0.00000000000E+00 0.  1.
         23    2    1    2    0    0  0.16798892773E+03  0.13341723249E+03  0.10753899957E+03  0.27061754047E+03  0.12509507992E+03 0.  0.
          5    1    3    3  502    0  0.18060340718E+03  0.13204402441E+03  0.75922242134E+02  0.23629404207E+03  0.41800000000E+01 0.  1.
         -5    1    3    3    0  502 -0.12614479448E+02  0.13732080789E+01  0.31616757432E+02  0.34323498404E+02  0.41800000000E+01 0.  1.
        -11    1    1    2    0    0 -0.49597125427E+02 -0.12117875304E+02  0.13636824617E+03  0.14561255549E+03  0.00000000000E+00 0. -1.
         11    1    1    2    0    0 -0.11839180231E+03 -0.12129935718E+03  0.17381140118E+03  0.24277676183E+03  0.00000000000E+00 0.  1.
</event>
<event>
 7    1  0.5109948E-006  0.1646740E+03  0.7561462E-02  0.1183519E+00
          1   -1    0    0  501    0  0.00000000000E+00  0.00000000000E+00  0.18687012089E+02  0.18687012089E+02  0.00000000000E+00 0. -1.
         -1   -1    0    0    0  501 -0.00000000000E+00 -0.00000000000E+00 -0.16119065936E+04  0.16119065936E+04  0.00000000000E+00 0.  1.
         23    2    1    2    0    0  0.82475272630E+02 -0.10016764581E+03 -0.10369332824E+04  0.10524797936E+04  0.12508939109E+03 0.  0.
          5    1    3    3  502    0 -0.23002701804E+02  0.41039713005E+01 -0.63275722380E+02  0.67581479071E+02  0.41800000000E+01 0.  1.
         -5    1    3    3    0  502  0.10547797443E+03 -0.10427161711E+03 -0.97365756007E+03  0.98489831450E+03  0.41800000000E+01 0.  1.
        -11    1    1    2    0    0 -0.21508011210E+02 -0.15480571761E+02 -0.10257798987E+03  0.10594567784E+03  0.00000000000E+00 0. -1.
         11    1    1    2    0    0 -0.60967261420E+02  0.11564821757E+03 -0.45370830916E+03  0.47216813424E+03  0.00000000000E+00 0.  1.
</event>
<event>
 7    1  0.5109948E-006  0.1047710E+03  0.7561462E-02  0.1270571E+00
         -1   -1    0    0    0  501 -0.00000000000E+00  0.00000000000E+00  0.52470072314E+03  0.52470072314E+03  0.00000000000E+00 0.  1.
          1   -1    0    0  501    0  0.00000000000E+00 -0.00000000000E+00 -0.56259595815E+02  0.56259595815E+02  0.00000000000E+00 0. -1.
         23    2    1    2    0    0 -0.82233091280E+02 -0.42609061685E+02  0.40629904885E+03  0.43509122983E+03  0.12509055816E+03 0.  0.
          5    1    3    3  502    0 -0.13459414959E+02 -0.45782291917E+02  0.32484247311E+03  0.32835541543E+03  0.41800000000E+01 0. -1.
         -5    1    3    3    0  502 -0.68773676321E+02  0.31732302315E+01  0.81456575738E+02  0.10673581440E+03  0.41800000000E+01 0. -1.
        -11    1    1    2    0    0  0.43312751729E+02  0.24142061754E+02  0.84013562360E+02  0.97555688038E+02  0.00000000000E+00 0.  1.
         11    1    1    2    0    0  0.38920339551E+02  0.18466999931E+02 -0.21871483886E+02  0.48313401087E+02  0.00000000000E+00 0. -1.
</event>
<event>
 7    1  0.5109948E-006  0.1336973E+03  0.7561462E-02  0.1222071E+00
         -2   -1    0    0    0  501 -0.00000000000E+00  0.00000000000E+00  0.51666101947E+02  0.51666101947E+02  0.00000000000E+00 0.  1.
          2   -1    0    0  501    0  0.00000000000E+00 -0.00000000000E+00 -0.42519586576E+03  0.42519586576E+03  0.00000000000E+00 0. -1.
         23    2    1    2    0    0 -0.64056285921E+02 -0.58358426248E+02 -0.11491722450E+03  0.19069119207E+03  0.12509295969E+03 0.  0.
          5    1    3    3  502    0  0.25963786990E+02 -0.49291736833E+02 -0.70093122134E+02  0.89634322251E+02  0.41800000000E+01 0. -1.
         -5    1    3    3    0  502 -0.90020072910E+02 -0.90666894152E+01 -0.44824102369E+02  0.10105686982E+03  0.41800000000E+01 0. -1.
        -11    1    1    2    0    0 -0.19191015806E+02 -0.16927396782E+00 -0.60180282683E+02  0.63166368940E+02  0.00000000000E+00 0.  1.
         11    1    1    2    0    0  0.83247301727E+02  0.58527700216E+02 -0.19843225662E+03  0.22300440670E+03  0.00000000000E+00 0. -1.
</event>
<event>
 7    1  0.5109948E-006  0.1054651E+03  0.7561462E-02  0.1269206E+00
         -1   -1    0    0    0  501 -0.00000000000E+00  0.00000000000E+00  0.10627297700E+03  0.10627297700E+03  0.00000000000E+00 0.  1.
          1   -1    0    0  501    0  0.00000000000E+00 -0.00000000000E+00 -0.20049462079E+03  0.20049462079E+03  0.00000000000E+00 0. -1.
         23    2    1    2    0    0 -0.50119553795E+02 -0.77816658771E+02 -0.19032042594E+02  0.15676769410E+03  0.12508592732E+03 0.  0.
          5    1    3    3  502    0 -0.37373409005E+02 -0.52752248065E+02  0.50179488681E+02  0.81945255268E+02  0.41800000000E+01 0. -1.
         -5    1    3    3    0  502 -0.12746144790E+02 -0.25064410706E+02 -0.69211531275E+02  0.74822438830E+02  0.41800000000E+01 0. -1.
        -11    1    1    2    0    0  0.45061853968E+02  0.56968647057E+01  0.37281951316E+00  0.45422064516E+02  0.00000000000E+00 0.  1.
         11    1    1    2    0    0  0.50576998275E+01  0.72119794065E+02 -0.75562420715E+02  0.10457783918E+03  0.00000000000E+00 0. -1.
</event>
<event>
 7    1  0.5109948E-006  0.2302136E+03  0.7561462E-02  0.1126489E+00
          2   -1    0    0  501    0  0.00000000000E+00  0.00000000000E+00  0.27164090199E+03  0.27164090199E+03  0.00000000000E+00 0. -1.
         -2   -1    0    0    0  501 -0.00000000000E+00 -0.00000000000E+00 -0.25697345159E+03  0.25697345159E+03  0.00000000000E+00 0.  1.
         23    2    1    2    0    0  0.81738772780E+02  0.20750872765E+03 -0.79540083930E+02  0.26779702211E+03  0.12509005185E+03 0.  0.
          5    1    3    3  502    0  0.39317787755E+02  0.10537523377E+03  0.25292954291E+02  0.11535611931E+03  0.41800000000E+01 0.  1.
         -5    1    3    3    0  502  0.42420985025E+02  0.10213349388E+03 -0.10483303822E+03  0.15244090280E+03  0.41800000000E+01 0.  1.
        -11    1    1    2    0    0 -0.36804402410E+02 -0.18169480419E+03  0.96397162722E+02  0.20894970421E+03  0.00000000000E+00 0. -1.
         11    1    1    2    0    0 -0.44934370370E+02 -0.25813923463E+02 -0.21896283983E+01  0.51867627260E+02  0.00000000000E+00 0.  1.
</event>
<event>
 7    1  0.5109948E-006  0.8742454E+02  0.7561462E-02  0.1309211E+00
          1   -1    0    0  501    0  0.00000000000E+00  0.00000000000E+00  0.12960854745E+03  0.12960854745E+03  0.00000000000E+00 0. -1.
         -1   -1    0    0    0  501 -0.00000000000E+00 -0.00000000000E+00 -0.98092273171E+02  0.98092273171E+02  0.00000000000E+00 0.  1.
         23    2    1    2    0    0  0.27626917095E+02  0.21148206676E+02 -0.80915200430E+01  0.13008882370E+03  0.12508851330E+03 0.  0.
          5    1    3    3  502    0  0.76096410507E+02  0.10780798770E+02  0.89961157363E+01  0.77493817898E+02  0.41800000000E+01 0. -1.
         -5    1    3    3    0  502 -0.48469493411E+02  0.10367407907E+02 -0.17087635779E+02  0.52595005797E+02  0.41800000000E+01 0. -1.
        -11    1    1    2    0    0 -0.31331006036E+02 -0.51937255964E+01 -0.18830728671E+02  0.36921579964E+02  0.00000000000E+00 0.  1.
         11    1    1    2    0    0  0.37040889404E+01 -0.15954481080E+02  0.58438522993E+02  0.60690416962E+02  0.00000000000E+00 0. -1.
</event>
<event>
 7    1  0.5109948E-006  0.1094392E+03  0.7561462E-02  0.1261612E+00
         -1   -1    0    0    0  501 -0.00000000000E+00  0.00000000000E+00  0.10059906059E+03  0.10059906059E+03  0.00000000000E+00 0.  1.
          1   -1    0    0  501    0  0.00000000000E+00 -0.00000000000E+00 -0.18224838673E+03  0.18224838673E+03  0.00000000000E+00 0. -1.
         23    2    1    2    0    0 -0.62678706633E+02 -0.14758121674E+01  0.93958428458E+01  0.14023676281E+03  0.12508904626E+03 0.  0.
          5    1    3    3  502    0  0.11987578485E+02 -0.28106370238E+02  0.43923580371E+02  0.53669576097E+02  0.41800000000E+01 0.  1.
         -5    1    3    3    0  502 -0.74666285118E+02  0.26630558071E+02 -0.34527737525E+02  0.86567186711E+02  0.41800000000E+01 0.  1.
        -11    1    1    2    0    0  0.84462120983E+02 -0.81192913439E+01 -0.62172334069E+02  0.10519112081E+03  0.00000000000E+00 0.  1.
         11    1    1    2    0    0 -0.21783414350E+02  0.95951035113E+01 -0.28872834909E+02  0.37419563705E+02  0.00000000000E+00 0. -1.
</event>
<event>
 7    1  0.5109948E-006  0.1684303E+03  0.7561462E-02  0.1179495E+00
         -2   -1    0    0    0  501 -0.00000000000E+00  0.00000000000E+00  0.19631784423E+03  0.19631784423E+03  0.00000000000E+00 0.  1.
          2   -1    0    0  501    0  0.00000000000E+00 -0.00000000000E+00 -0.20455590248E+03  0.20455590248E+03  0.00000000000E+00 0. -1.
         23    2    1    2    0    0 -0.14844003143E+03  0.49552158504E+02  0.61507747709E+02  0.20957395825E+03  0.12509269205E+03 0.  0.
          5    1    3    3  502    0 -0.50343927342E+02  0.22715136849E+01  0.84239880293E+02  0.98252229626E+02  0.41800000000E+01 0.  1.
         -5    1    3    3    0  502 -0.98096104087E+02  0.47280644820E+02 -0.22732132584E+02  0.11132172862E+03  0.41800000000E+01 0.  1.
        -11    1    1    2    0    0  0.68375353112E+02  0.20021520636E+02 -0.37054637085E+02  0.80306265829E+02  0.00000000000E+00 0. -1.
         11    1    1    2    0    0  0.80064678317E+02 -0.69573679141E+02 -0.32691168873E+02  0.11099352263E+03  0.00000000000E+00 0.  1.
</event>
<event>
 7    1  0.5109948E-006  0.1471459E+03  0.7561462E-02  0.1204025E+00
         -3   -1    0    0    0  501 -0.00000000000E+00  0.00000000000E+00  0.12746316517E+04  0.12746316517E+04  0.00000000000E+00 0.  1.
          3   -1    0    0  501    0  0.00000000000E+00 -0.00000000000E+00 -0.33351656723E+02  0.33351656723E+02  0.00000000000E+00 0. -1.
         23    2    1    2    0    0 -0.18052146389E+02  0.98482052884E+02  0.10985812285E+04  0.11102037938E+04  0.12508858298E+03 0.  0.
          5    1    3    3  502    0 -0.16076243654E+02 -0.27129746992E+02  0.15040702027E+03  0.15373422823E+03  0.41800000000E+01 0. -1.
         -5    1    3    3    0  502 -0.19759027350E+01  0.12561179988E+03  0.94817420819E+03  0.95646956561E+03  0.41800000000E+01 0. -1.
        -11    1    1    2    0    0 -0.36711637868E+02 -0.58158711410E+02  0.76536073269E+02  0.10289776761E+03  0.00000000000E+00 0.  1.
         11    1    1    2    0    0  0.54763784257E+02 -0.40323341474E+02  0.66162693290E+02  0.94881747018E+02  0.00000000000E+00 0. -1.
</event>
<event>
 7    1  0.5109948E-006  0.6999594E+02  0.7561462E-02  0.1360107E+00
          3   -1    0    0  501    0  0.00000000000E+00  0.00000000000E+00  0.10708295391E+03  0.10708295391E+03  0.00000000000E+00 0. -1.
         -3   -1    0    0    0  501 -0.00000000000E+00 -0.00000000000E+00 -0.15937797616E+03  0.15937797616E+03  0.00000000000E+00 0.  1.
         23    2    1    2    0    0  0.24795162498E+02  0.27536795870E+02 -0.92854048463E+02  0.16013343890E+03  0.12509104175E+03 0.  0.
          5    1    3    3  502    0 -0.26057906303E+02  0.54415937797E+01 -0.10046130389E+03  0.10401236178E+03  0.41800000000E+01 0. -1.
         -5    1    3    3    0  502  0.50853068801E+02  0.22095202091E+02  0.76072554251E+01  0.56121077119E+02  0.41800000000E+01 0. -1.
        -11    1    1    2    0    0 -0.35534066431E+02 -0.10060998743E+02 -0.20273704691E+02  0.42129759965E+02  0.00000000000E+00 0.  1.
         11    1    1    2    0    0  0.10738903933E+02 -0.17475797127E+02  0.60832730904E+02  0.64197731208E+02  0.00000000000E+00 0. -1.
</event>
<event>
 7    1  0.5109948E-006  0.1492421E+03  0.7561462E-02  0.1201407E+00
         -2   -1    0    0    0  501 -0.00000000000E+00  0.00000000000E+00  0.44770783800E+03  0.44770783800E+03  0.00000000000E+00 0.  1.
          2   -1    0    0  501    0  0.00000000000E+00 -0.00000000000E+00 -0.60082774549E+02  0.60082774549E+02  0.00000000000E+00 0. -1.
         23    2    1    2    0    0 -0.99313141693E+02  0.74704790624E+02  0.23275552269E+03  0.29200643918E+03  0.12509484931E+03 0.  0.
          5    1    3    3  502    0 -0.12766418436E+03  0.53263275339E+02  0.16479606991E+03  0.21519836786E+03  0.41800000000E+01 0. -1.
         -5    1    3    3    0  502  0.28351042672E+02  0.21441515285E+02  0.67959452782E+02  0.76808071325E+02  0.41800000000E+01 0. -1.
        -11    1    1    2    0    0  0.41457178468E+02 -0.32781786097E+02  0.12966146072E+03  0.14001941845E+03  0.00000000000E+00 0.  1.
         11    1    1    2    0    0  0.57855963225E+02 -0.41923004527E+02  0.25208080040E+02  0.75764754923E+02  0.00000000000E+00 0. -1.
</event>
<event>
 7    1  0.5109948E-006  0.1026108E+03  0.7561462E-02  0.1274900E+00
         -2   -1    0    0    0  501 -0.00000000000E+00  0.00000000000E+00  0.67404373718E+02  0.67404373718E+02  0.00000000000E+00 0.  1.
          2   -1    0    0  501    0  0.00000000000E+00 -0.00000000000E+00 -0.25724958896E+03  0.25724958896E+03  0.00000000000E+00 0. -1.
         23    2    1    2    0    0 -0.52753114453E+02 -0.87710870785E+01 -0.41203118951E+02  0.14213965572E+03  0.12508461801E+03 0.  0.
          5    1    3    3  502    0  0.22654335941E+01 -0.45197719358E+02 -0.58229847153E+02  0.73865780467E+02  0.41800000000E+01 0. -1.
         -5    1    3    3    0  502 -0.55018548047E+02  0.36426632280E+02  0.17026728202E+02  0.68273875250E+02  0.41800000000E+01 0. -1.
        -11    1    1    2    0    0  0.72919000212E+02  0.91326101838E+01 -0.70594417623E+02  0.10190268377E+03  0.00000000000E+00 0.  1.
         11    1    1    2    0    0 -0.20165885760E+02 -0.36152310529E+00 -0.78047678663E+02  0.80611623182E+02  0.00000000000E+00 0. -1.
</event>
<event>
 7    1  0.5109948E-006  0.1505141E+03  0.7561462E-02  0.1199843E+00
         -2   -1    0    0    0  501 -0.00000000000E+00  0.00000000000E+00  0.18074223214E+03  0.18074223214E+03  0.00000000000E+00 0.  1.
          2   -1    0    0  501    0  0.00000000000E+00 -0.00000000000E+00 -0.18884272299E+03  0.18884272299E+03  0.00000000000E+00 0. -1.
         23    2    1    2    0    0  0.78074127489E+02  0.12408090275E+03  0.46881382337E+02  0.19833632048E+03  0.12509113558E+03 0.  0.
          5    1    3    3  502    0  0.35837945748E+02  0.61123487720E+02  0.87145515249E+02  0.11239329310E+03  0.41800000000E+01 0. -1.
         -5    1    3    3    0  502  0.42236181741E+02  0.62957415033E+02 -0.40264132912E+02  0.85943027378E+02  0.41800000000E+01 0. -1.
        -11    1    1    2    0    0 -0.16310542899E+02 -0.91317057359E+00  0.97393225255E+01  0.19018992965E+02  0.00000000000E+00 0.  1.
         11    1    1    2    0    0 -0.61763584590E+02 -0.12316773218E+03 -0.64721195709E+02  0.15222964168E+03  0.00000000000E+00 0. -1.
</event>
<event>
 7    1  0.5109948E-006  0.8899947E+02  0.7561462E-02  0.1305293E+00
          2   -1    0    0  501    0  0.00000000000E+00  0.00000000000E+00  0.22121530784E+03  0.22121530784E+03  0.00000000000E+00 0. -1.
         -2   -1    0    0    0  501 -0.00000000000E+00 -0.00000000000E+00 -0.91037033015E+02  0.91037033015E+02  0.00000000000E+00 0.  1.
         23    2    1    2    0    0  0.94576305404E+00 -0.31037947545E+02 -0.23414800684E+02  0.13099660647E+03  0.12509040475E+03 0.  0.
          5    1    3    3  502    0  0.42705237143E+02 -0.50554269118E+02  0.18192836059E+02  0.68759894483E+02  0.41800000000E+01 0. -1.
         -5    1    3    3    0  502 -0.41759474089E+02  0.19516321573E+02 -0.41607636743E+02  0.62236711989E+02  0.41800000000E+01 0. -1.
        -11    1    1    2    0    0  0.28293623947E+02  0.14063341957E+02  0.14206314036E+03  0.14553433475E+03  0.00000000000E+00 0. -1.
         11    1    1    2    0    0 -0.29239387001E+02  0.16974605588E+02  0.11529935151E+02  0.35721399632E+02  0.00000000000E+00 0.  1.
</event>
<event>
 7    1  0.5109948E-006  0.1527518E+03  0.7561462E-02  0.1197132E+00
         -2   -1    0    0    0  501 -0.00000000000E+00  0.00000000000E+00  0.64614895079E+02  0.64614895079E+02  0.00000000000E+00 0. -1.
          2   -1    0    0  501    0  0.00000000000E+00 -0.00000000000E+00 -0.45732379086E+03  0.45732379086E+03  0.00000000000E+00 0.  1.
         23    2    1    2    0    0 -0.53486319847E+01  0.13114182038E+03 -0.18193861507E+03  0.25685656385E+03  0.12508736874E+03 0.  0.
          5    1    3    3  502    0 -0.42174830307E+02  0.35621481637E+02 -0.93511965860E+01  0.56147337809E+02  0.41800000000E+01 0. -1.
         -5    1    3    3    0  502  0.36826198322E+02  0.95520338744E+02 -0.17258741849E+03  0.20070922604E+03  0.41800000000E+01 0. -1.
        -11    1    1    2    0    0  0.35246831979E+02 -0.91314796351E+02 -0.18430989905E+03  0.20868845221E+03  0.00000000000E+00 0. -1.
         11    1    1    2    0    0 -0.29898199994E+02 -0.39827024029E+02 -0.26460381662E+02  0.56393669889E+02  0.00000000000E+00 0.  1.
</event>
<event>
 6    1  0.5109948E-006  0.2111574E+03  0.7561462E-02  0.1140653E+00
         -2   -1    0    0    0  501 -0.00000000000E+00  0.00000000000E+00  0.86511027134E+03  0.86511027134E+03  0.00000000000E+00 0.  1.
          2   -1    0    0  501    0  0.00000000000E+00 -0.00000000000E+00 -0.17934018517E+03  0.17934018517E+03  0.00000000000E+00 0. -1.
          5    1    1    2  502    0  0.73788634947E+02 -0.82319216644E+01  0.26133878217E+03  0.27171300787E+03  0.41800000000E+01 0. -1.
         -5    1    1    2    0  502 -0.72700865060E+01  0.16733732185E+03  0.52705963011E+03  0.55304968993E+03  0.41800000000E+01 0.  1.
        -11    1    1    2    0    0 -0.43842817328E+02 -0.40619681183E+02 -0.75047616465E+02  0.95939021611E+02  0.00000000000E+00 0.  1.
         11    1    1    2    0    0 -0.22675731114E+02 -0.11848571900E+03 -0.27580709649E+02  0.12374873710E+03  0.00000000000E+00 0. -1.
</event>
<event>
 7    1  0.5109948E-006  0.1927474E+03  0.7561462E-02  0.1156006E+00
          1   -1    0    0  501    0  0.00000000000E+00  0.00000000000E+00  0.60193985582E+03  0.60193985582E+03  0.00000000000E+00 0. -1.
         -1   -1    0    0    0  501 -0.00000000000E+00 -0.00000000000E+00 -0.92163534588E+02  0.92163534588E+02  0.00000000000E+00 0.  1.
         23    2    1    2    0    0 -0.15520582671E+03  0.93746158803E+02  0.11170957064E+03  0.24698283406E+03  0.12507718103E+03 0.  0.
          5    1    3    3  502    0 -0.97252050336E+02  0.43232212592E+02 -0.56076129405E+01  0.10665787933E+03  0.41800000000E+01 0.  1.
         -5    1    3    3    0  502 -0.57953776378E+02  0.50513946210E+02  0.11731718358E+03  0.14032495473E+03  0.41800000000E+01 0.  1.
        -11    1    1    2    0    0  0.12479183127E+03 -0.25632776510E+02  0.22301945881E+03  0.25684181784E+03  0.00000000000E+00 0.  1.
         11    1    1    2    0    0  0.30413995444E+02 -0.68113382293E+02  0.17504729178E+03  0.19027873851E+03  0.00000000000E+00 0. -1.
</event>
<event>
 7    1  0.5109948E-006  0.1399926E+03  0.7561462E-02  0.1213339E+00
         -1   -1    0    0    0  501 -0.00000000000E+00  0.00000000000E+00  0.10664135908E+03  0.10664135908E+03  0.00000000000E+00 0.  1.
          1   -1    0    0  501    0  0.00000000000E+00 -0.00000000000E+00 -0.20437385518E+03  0.20437385518E+03  0.00000000000E+00 0. -1.
         23    2    1    2    0    0 -0.64309259507E+01  0.92126699863E+02 -0.16619113037E+02  0.15637495367E+03  0.12509294776E+03 0.  0.
          5    1    3    3  502    0  0.22547531718E+02  0.11254728237E+03 -0.29222921203E+02  0.11851891612E+03  0.41800000000E+01 0.  1.
         -5    1    3    3    0  502 -0.28978457669E+02 -0.20420582502E+02  0.12603808166E+02  0.37856037548E+02  0.41800000000E+01 0.  1.
        -11    1    1    2    0    0  0.46570152407E+02 -0.29776116891E+02 -0.48865092794E+02  0.73778001641E+02  0.00000000000E+00 0. -1.
         11    1    1    2    0    0 -0.40139226457E+02 -0.62350582972E+02 -0.32248290267E+02  0.80862258951E+02  0.00000000000E+00 0.  1.
</event>
<event>
 7    1  0.5109948E-006  0.9836902E+02  0.7561462E-02  0.1283764E+00
          1   -1    0    0  501    0  0.00000000000E+00  0.00000000000E+00  0.26415995914E+03  0.26415995914E+03  0.00000000000E+00 0. -1.
         -1   -1    0    0    0  501 -0.00000000000E+00 -0.00000000000E+00 -0.45302834436E+02  0.45302834436E+02  0.00000000000E+00 0.  1.
         23    2    1    2    0    0 -0.17720358989E+01  0.19274528062E+02  0.11349383612E+03  0.17000839960E+03  0.12508939826E+03 0.  0.
          5    1    3    3  502    0  0.57559986702E+02  0.38544816425E+01  0.83648130863E+02  0.10169803978E+03  0.41800000000E+01 0. -1.
         -5    1    3    3    0  502 -0.59332022601E+02  0.15420046420E+02  0.29845705254E+02  0.68310359826E+02  0.41800000000E+01 0. -1.
        -11    1    1    2    0    0  0.32170506300E+02 -0.31184462312E+02  0.95273155841E+02  0.10528241253E+03  0.00000000000E+00 0. -1.
         11    1    1    2    0    0 -0.30398470401E+02  0.11909934250E+02  0.10090132749E+02  0.34171981438E+02  0.00000000000E+00 0.  1.
</event>
<event>
 7    1  0.5109948E-006  0.1143008E+03  0.7561462E-02  0.1252807E+00
          2   -1    0    0  501    0  0.00000000000E+00  0.00000000000E+00  0.61376030104E+03  0.61376030104E+03  0.00000000000E+00 0. -1.
         -2   -1    0    0    0  501 -0.00000000000E+00 -0.00000000000E+00 -0.33700576545E+02  0.33700576545E+02  0.00000000000E+00 0.  1.
         23    2    1    2    0    0  0.97632619989E+02  0.11233847314E+01  0.36145197237E+03  0.39475224886E+03  0.12509364161E+03 0.  0.
          5    1    3    3  502    0  0.29990777840E+02 -0.26265125720E+02  0.28923214257E+03  0.29199658950E+03  0.41800000000E+01 0. -1.
         -5    1    3    3    0  502  0.67641842150E+02  0.27388510451E+02  0.72219829805E+02  0.10275565936E+03  0.41800000000E+01 0. -1.
        -11    1    1    2    0    0 -0.52929204765E+02  0.30103424672E+02  0.62094128317E+02  0.86967796715E+02  0.00000000000E+00 0.  1.
         11    1    1    2    0    0 -0.44703415224E+02 -0.31226809403E+02  0.15651362381E+03  0.16574083201E+03  0.00000000000E+00 0. -1.
</event>
<event>
 7    1  0.5109948E-006  0.1100800E+03  0.7561462E-02  0.1260422E+00
          4   -1    0    0  501    0  0.00000000000E+00  0.00000000000E+00  0.27310934017E+02  0.27310934017E+02  0.00000000000E+00 0.  1.
         -4   -1    0    0    0  501 -0.00000000000E+00 -0.00000000000E+00 -0.50522671531E+03  0.50522671531E+03  0.00000000000E+00 0. -1.
         23    2    1    2    0    0 -0.32885229523E+02 -0.69456423317E+01 -0.34055512849E+03  0.36435655733E+03  0.12509286574E+03 0.  0.
          5    1    3    3  502    0  0.17664336241E+02  0.50034005961E+02 -0.14307556314E+03  0.15265490394E+03  0.41800000000E+01 0.  1.
         -5    1    3    3    0  502 -0.50549565764E+02 -0.56979648293E+02 -0.19747956535E+03  0.21170165339E+03  0.41800000000E+01 0.  1.
        -11    1    1    2    0    0 -0.28746611471E+02  0.26517955217E+01 -0.75153959891E+02  0.80507871527E+02  0.00000000000E+00 0.  1.
         11    1    1    2    0    0  0.61631840994E+02  0.42938468100E+01 -0.62206692907E+02  0.87673220467E+02  0.00000000000E+00 0. -1.
</event>
<event>
 7    1  0.5109948E-006  0.1145501E+03  0.7561462E-02  0.1252368E+00
         -2   -1    0    0    0  501 -0.00000000000E+00  0.00000000000E+00  0.21472479709E+02  0.21472479709E+02  0.00000000000E+00 0.  1.
          2   -1    0    0  501    0  0.00000000000E+00 -0.00000000000E+00 -0.77226896914E+03  0.77226896914E+03  0.00000000000E+00 0. -1.
         23    2    1    2    0    0  0.12294225283E+02 -0.60436500583E+02 -0.31988703703E+03  0.34897067298E+03  0.12509634513E+03 0.  0.
          5    1    3    3  502    0  0.62124472241E+02 -0.35147446837E+02 -0.24635202703E+03  0.25651819954E+03  0.41800000000E+01 0.  1.
         -5    1    3    3    0  502 -0.49830246958E+02 -0.25289053746E+02 -0.73535009998E+02  0.92452473448E+02  0.41800000000E+01 0.  1.
        -11    1    1    2    0    0  0.14863696507E+02 -0.15163724435E+02 -0.36182810386E+02  0.41953114068E+02  0.00000000000E+00 0.  1.
         11    1    1    2    0    0 -0.27157921790E+02  0.75600225019E+02 -0.39472664202E+03  0.40281766180E+03  0.00000000000E+00 0. -1.
</event>
<event>
 7    1  0.5109948E-006  0.2402332E+03  0.7561462E-02  0.1119638E+00
         -2   -1    0    0    0  501 -0.00000000000E+00  0.00000000000E+00  0.31637465993E+03  0.31637465993E+03  0.00000000000E+00 0.  1.
          2   -1    0    0  501    0  0.00000000000E+00 -0.00000000000E+00 -0.39293736560E+03  0.39293736560E+03  0.00000000000E+00 0. -1.
         23    2    1    2    0    0  0.21454677497E+03  0.10112866409E+03  0.19924551003E+03  0.33407129297E+03  0.12509008819E+03 0.  0.
          5    1    3    3  502    0  0.18079182420E+03  0.72141613787E+02  0.21176022344E+03  0.28766292908E+03  0.41800000000E+01 0. -1.
         -5    1    3    3    0  502  0.33754950779E+02  0.28987050299E+02 -0.12514713405E+02  0.46408363887E+02  0.41800000000E+01 0. -1.
        -11    1    1    2    0    0 -0.16168362157E+03 -0.54595816043E+02 -0.13424414386E+03  0.21712620011E+03  0.00000000000E+00 0.  1.
         11    1    1    2    0    0 -0.52863153402E+02 -0.46532848042E+02 -0.14156407185E+03  0.15811453245E+03  0.00000000000E+00 0. -1.
</event>
<event>
 7    1  0.5109948E-006  0.8595788E+02  0.7561462E-02  0.1312946E+00
         -2   -1    0    0    0  501 -0.00000000000E+00  0.00000000000E+00  0.25186831312E+03  0.25186831312E+03  0.00000000000E+00 0. -1.
          2   -1    0    0  501    0  0.00000000000E+00 -0.00000000000E+00 -0.53718288200E+02  0.53718288200E+02  0.00000000000E+00 0.  1.
         23    2    1    2    0    0  0.87982828307E+01  0.35072823072E+02  0.12621322998E+03  0.18134374974E+03  0.12509301918E+03 0.  0.
          5    1    3    3  502    0 -0.43706246094E+02  0.11205617448E+02  0.11339591537E+03  0.12211432280E+03  0.41800000000E+01 0.  1.
         -5    1    3    3    0  502  0.52504528925E+02  0.23867205624E+02  0.12817314619E+02  0.59229426943E+02  0.41800000000E+01 0.  1.
        -11    1    1    2    0    0 -0.31388301616E+02 -0.59958605591E+01 -0.10760341449E+02  0.33718848887E+02  0.00000000000E+00 0.  1.
         11    1    1    2    0    0  0.22590018785E+02 -0.29076962513E+02  0.82697136380E+02  0.90524002691E+02  0.00000000000E+00 0. -1.
</event>
<event>
 7    1  0.5109948E-006  0.7603607E+02  0.7561462E-02  0.1340692E+00
         -1   -1    0    0    0  501 -0.00000000000E+00  0.00000000000E+00  0.62975344460E+02  0.62975344460E+02  0.00000000000E+00 0.  1.
          1   -1    0    0  501    0  0.00000000000E+00 -0.00000000000E+00 -0.22901668650E+03  0.22901668650E+03  0.00000000000E+00 0. -1.
         23    2    1    2    0    0  0.36763348688E+02  0.27262918100E+02 -0.56865206073E+02  0.14484364383E+03  0.12510483198E+03 0.  0.
          5    1    3    3  502    0  0.20955606782E+02  0.38334690346E+02  0.31677293210E+02  0.54125864840E+02  0.41800000000E+01 0.  1.
         -5    1    3    3    0  502  0.15807741905E+02 -0.11071772246E+02 -0.88542499283E+02  0.90717778986E+02  0.41800000000E+01 0.  1.
        -11    1    1    2    0    0  0.65640627035E+01 -0.42123713177E+02 -0.20421145790E+02  0.47270681467E+02  0.00000000000E+00 0.  1.
         11    1    1    2    0    0 -0.43327411391E+02  0.14860795077E+02 -0.88754990178E+02  0.99877705669E+02  0.00000000000E+00 0. -1.
</event>
<event>
 7    1  0.5109948E-006  0.6279334E+02  0.7561462E-02  0.1386470E+00
         -1   -1    0    0    0  501 -0.00000000000E+00  0.00000000000E+00  0.16023651255E+03  0.16023651255E+03  0.00000000000E+00 0.  1.
          1   -1    0    0  501    0  0.00000000000E+00 -0.00000000000E+00 -0.88649556408E+02  0.88649556408E+02  0.00000000000E+00 0. -1.
         23    2    1    2    0    0 -0.26157057746E+02 -0.25089386784E+02  0.72463414331E+02  0.14903882242E+03  0.12509178699E+03 0.  0.
          5    1    3    3  502    0 -0.27780902683E+02 -0.64499516682E+01 -0.31862562356E+02  0.42965983176E+02  0.41800000000E+01 0.  1.
         -5    1    3    3    0  502  0.16238449372E+01 -0.18639435116E+02  0.10432597669E+03  0.10607283925E+03  0.41800000000E+01 0.  1.
        -11    1    1    2    0    0  0.50157410340E+00 -0.23042736237E+02  0.29484312027E+02  0.37423841673E+02  0.00000000000E+00 0.  1.
         11    1    1    2    0    0  0.25655483642E+02  0.48132123021E+02 -0.30360770212E+02  0.62423404868E+02  0.00000000000E+00 0. -1.
</event>
<event>
 7    1  0.5109948E-006  0.1485848E+03  0.7561462E-02  0.1202223E+00
         -2   -1    0    0    0  501 -0.00000000000E+00  0.00000000000E+00  0.16719200682E+03  0.16719200682E+03  0.00000000000E+00 0.  1.
          2   -1    0    0  501    0  0.00000000000E+00 -0.00000000000E+00 -0.20882193796E+03  0.20882193796E+03  0.00000000000E+00 0. -1.
         23    2    1    2    0    0 -0.11352314591E+03 -0.68824830304E+02  0.51389452234E+02  0.18950613423E+03  0.12508931683E+03 0.  0.
          5    1    3    3  502    0  0.16655756585E+02 -0.67838631441E+01 -0.21110839725E+02  0.28045944100E+02  0.41800000000E+01 0.  1.
         -5    1    3    3    0  502 -0.13017890250E+03 -0.62040967160E+02  0.72500291959E+02  0.16146019013E+03  0.41800000000E+01 0.  1.
        -11    1    1    2    0    0  0.99031815940E+02  0.50770379037E+02 -0.11101014664E+03  0.15718837302E+03  0.00000000000E+00 0.  1.
         11    1    1    2    0    0  0.14491329973E+02  0.18054451267E+02  0.17990763264E+02  0.29319437542E+02  0.00000000000E+00 0. -1.
</event>
<event>
 7    1  0.5109948E-006  0.9598206E+02  0.7561462E-02  0.1288979E+00
          1   -1    0    0  501    0  0.00000000000E+00  0.00000000000E+00  0.53903366853E+03  0.53903366853E+03  0.00000000000E+00 0. -1.
         -1   -1    0    0    0  501 -0.00000000000E+00 -0.00000000000E+00 -0.28904595969E+02  0.28904595969E+02  0.00000000000E+00 0.  1.
         23    2    1    2    0    0 -0.51885813633E+01 -0.25057509990E+02  0.15682894453E+03  0.20222593903E+03  0.12508082343E+03 0.  0.
          5    1    3    3  502    0 -0.49949567365E+02 -0.18218144023E+02  0.18236283937E+02  0.56363946840E+02  0.41800000000E+01 0. -1.
         -5    1    3    3    0  502  0.44760986001E+02 -0.68393659667E+01  0.13859266059E+03  0.14586199219E+03  0.41800000000E+01 0. -1.
        -11    1    1    2    0    0  0.19000111475E+02 -0.30486942377E+02  0.16692350781E+03  0.17074517665E+03  0.00000000000E+00 0.  1.
         11    1    1    2    0    0 -0.13811530112E+02  0.55544452367E+02  0.18637662023E+03  0.19496714882E+03  0.00000000000E+00 0. -1.
</event>
<event>
 7    1  0.5109948E-006  0.8718526E+02  0.7561462E-02  0.1309815E+00
          1   -1    0    0  501    0  0.00000000000E+00  0.00000000000E+00  0.55845741802E+03  0.55845741802E+03  0.00000000000E+00 0. -1.
         -1   -1    0    0    0  501 -0.00000000000E+00 -0.00000000000E+00 -0.21681499059E+02  0.21681499059E+02  0.00000000000E+00 0.  1.
         23    2    1    2    0    0  0.11087700958E+02 -0.16765272302E+02  0.27136377540E+03  0.29948253375E+03  0.12508987952E+03 0.  0.
          5    1    3    3  502    0 -0.33378347290E+02 -0.18706759033E+02  0.24410949491E+03  0.24712542323E+03  0.41800000000E+01 0.  1.
         -5    1    3    3    0  502  0.44466048247E+02  0.19414867315E+01  0.27254280482E+02  0.52357110520E+02  0.41800000000E+01 0.  1.
        -11    1    1    2    0    0  0.30413367849E+02  0.34545885895E+02  0.12878539819E+03  0.13676282377E+03  0.00000000000E+00 0.  1.
         11    1    1    2    0    0 -0.41501068807E+02 -0.17780613593E+02  0.13662674537E+03  0.14389355956E+03  0.00000000000E+00 0. -1.
</event>
<event>
 7    1  0.5109948E-006  0.9683362E+02  0.7561462E-02  0.1287099E+00
          1   -1    0    0  501    0  0.00000000000E+00  0.00000000000E+00  0.22105814313E+03  0.22105814313E+03  0.00000000000E+00 0. -1.
         -1   -1    0    0    0  501 -0.00000000000E+00 -0.00000000000E+00 -0.87155020905E+02  0.87155020905E+02  0.00000000000E+00 0.  1.
         23    2    1    2    0    0 -0.70511536995E+02 -0.50282560664E+02  0.70304657697E+02  0.16760399525E+03  0.12509253205E+03 0.  0.
          5    1    3    3  502    0 -0.68674239118E+02 -0.19959029432E+02 -0.18219908389E+02  0.73918545954E+02  0.41800000000E+01 0. -1.
         -5    1    3    3    0  502 -0.18372978774E+01 -0.30323531232E+02  0.88524566087E+02  0.93685449301E+02  0.41800000000E+01 0. -1.
        -11    1    1    2    0    0  0.41398654671E+02  0.11681378126E+02  0.78927883419E+02  0.89888341760E+02  0.00000000000E+00 0. -1.
         11    1    1    2    0    0  0.29112882324E+02  0.38601182538E+02 -0.15329418887E+02  0.50720827024E+02  0.00000000000E+00 0.  1.
</event>
<event>
 7    1  0.5109948E-006  0.1015640E+03  0.7561462E-02  0.1277041E+00
          1   -1    0    0  501    0  0.00000000000E+00  0.00000000000E+00  0.39245483080E+03  0.39245483080E+03  0.00000000000E+00 0. -1.
         -1   -1    0    0    0  501 -0.00000000000E+00 -0.00000000000E+00 -0.34552779447E+02  0.34552779447E+02  0.00000000000E+00 0.  1.
         23    2    1    2    0    0 -0.50262164710E+02 -0.42266756667E+01  0.20289726359E+03  0.24067931667E+03  0.11922702678E+03 0.  0.
          5    1    3    3  502    0 -0.53817584769E+02 -0.42369959548E+02  0.18663804152E+03  0.19885365685E+03  0.41800000000E+01 0. -1.
         -5    1    3    3    0  502  0.35554200596E+01  0.38143283881E+02  0.16259222069E+02  0.41825659819E+02  0.41800000000E+01 0.  1.
        -11    1    1    2    0    0  0.52370176893E+02 -0.30882208828E+02  0.12892774443E+03  0.14254371096E+03  0.00000000000E+00 0.  1.
         11    1    1    2    0    0 -0.21080121830E+01  0.35108884495E+02  0.26077043340E+02  0.43784582620E+02  0.00000000000E+00 0. -1.
</event>
<event>
 7    1  0.5109948E-006  0.1120621E+03  0.7561462E-02  0.1256798E+00
         -2   -1    0    0    0  501 -0.00000000000E+00  0.00000000000E+00  0.35144692419E+02  0.35144692419E+02  0.00000000000E+00 0.  1.
          2   -1    0    0  501    0  0.00000000000E+00 -0.00000000000E+00 -0.56838772915E+03  0.56838772915E+03  0.00000000000E+00 0. -1.
         23    2    1    2    0    0 -0.74055691931E+02 -0.51060698376E+02 -0.26472708901E+03  0.30629761158E+03  0.12508538994E+03 0.  0.
          5    1    3    3  502    0 -0.75192190154E+02 -0.65077393001E+02 -0.10059934115E+03  0.14151548460E+03  0.41800000000E+01 0.  1.
         -5    1    3    3    0  502  0.11364982229E+01  0.14016694625E+02 -0.16412774786E+03  0.16478212698E+03  0.41800000000E+01 0.  1.
        -11    1    1    2    0    0  0.58419688476E+02  0.20256610409E+01 -0.21573486233E+03  0.22351396853E+03  0.00000000000E+00 0. -1.
         11    1    1    2    0    0  0.15636003455E+02  0.49035037336E+02 -0.52781085398E+02  0.73720841465E+02  0.00000000000E+00 0.  1.
</event>
<event>
 7    1  0.5109948E-006  0.1117885E+03  0.7561462E-02  0.1257293E+00
         -2   -1    0    0    0  501 -0.00000000000E+00  0.00000000000E+00  0.20871539143E+02  0.20871539143E+02  0.00000000000E+00 0.  1.
          2   -1    0    0  501    0  0.00000000000E+00 -0.00000000000E+00 -0.60467908944E+03  0.60467908944E+03  0.00000000000E+00 0. -1.
         23    2    1    2    0    0 -0.10747624829E+02  0.30967045993E+02 -0.31326180666E+03  0.33846506456E+03  0.12389984276E+03 0.  0.
          5    1    3    3  502    0  0.43432974229E+02 -0.24380032773E+02 -0.13925316554E+03  0.14795176836E+03  0.41800000000E+01 0.  1.
         -5    1    3    3    0  502 -0.54180599057E+02  0.55347078767E+02 -0.17400864112E+03  0.19051329620E+03  0.41800000000E+01 0.  1.
        -11    1    1    2    0    0  0.35657400180E+02  0.18848714834E+02 -0.11182175072E+03  0.11887316001E+03  0.00000000000E+00 0.  1.
         11    1    1    2    0    0 -0.24909775352E+02 -0.49815760828E+02 -0.15872399291E+03  0.16821240400E+03  0.00000000000E+00 0. -1.
</event>
<event>
 7    1  0.5109948E-006  0.1196007E+03  0.7561462E-02  0.1243757E+00
          2   -1    0    0  501    0  0.00000000000E+00  0.00000000000E+00  0.15511031185E+03  0.15511031185E+03  0.00000000000E+00 0. -1.
         -2   -1    0    0    0  501 -0.00000000000E+00 -0.00000000000E+00 -0.11969840804E+03  0.11969840804E+03  0.00000000000E+00 0.  1.
         23    2    1    2    0    0  0.48578786722E+02  0.44244936235E+02 -0.29690247058E+02  0.14438337883E+03  0.12509011316E+03 0.  0.
          5    1    3    3  502    0 -0.33566885200E+02 -0.14589190159E+02  0.56279583273E+01  0.37265621777E+02  0.41800000000E+01 0.  1.
         -5    1    3    3    0  502  0.82145671922E+02  0.58834126394E+02 -0.35318205385E+02  0.10711775705E+03  0.41800000000E+01 0.  1.
        -11    1    1    2    0    0 -0.51265643003E+02 -0.63603054390E+02  0.24373103198E+02  0.85250001992E+02  0.00000000000E+00 0.  1.
         11    1    1    2    0    0  0.26868562804E+01  0.19358118155E+02  0.40729047676E+02  0.45175339067E+02  0.00000000000E+00 0. -1.
</event>
<event>
 7    1  0.5109948E-006  0.1859579E+03  0.7561462E-02  0.1162158E+00
          2   -1    0    0  501    0  0.00000000000E+00  0.00000000000E+00  0.64453649041E+02  0.64453649041E+02  0.00000000000E+00 0. -1.
         -2   -1    0    0    0  501 -0.00000000000E+00 -0.00000000000E+00 -0.55650621323E+03  0.55650621323E+03  0.00000000000E+00 0.  1.
         23    2    1    2    0    0  0.12569304877E+03 -0.84250118422E+02 -0.31117870536E+03  0.36793443202E+03  0.12508690832E+03 0.  0.
          5    1    3    3  502    0  0.15014597835E+03 -0.63747685691E+02 -0.24528140226E+03  0.29459806676E+03  0.41800000000E+01 0. -1.
         -5    1    3    3    0  502 -0.24452929582E+02 -0.20502432731E+02 -0.65897303098E+02  0.73336365254E+02  0.41800000000E+01 0. -1.
        -11    1    1    2    0    0 -0.87107791546E+02  0.36308893219E+01 -0.97559108146E+02  0.13083856575E+03  0.00000000000E+00 0.  1.
         11    1    1    2    0    0 -0.38585257226E+02  0.80619229100E+02 -0.83314750691E+02  0.12218686451E+03  0.00000000000E+00 0. -1.
</event>
<event>
 7    1  0.5109948E-006  0.1160135E+03  0.7561462E-02  0.1249822E+00
          2   -1    0    0  501    0  0.00000000000E+00  0.00000000000E+00  0.60328027694E+03  0.60328027694E+03  0.00000000000E+00 0. -1.
         -2   -1    0    0    0  501 -0.00000000000E+00 -0.00000000000E+00 -0.27896585278E+02  0.27896585278E+02  0.00000000000E+00 0.  1.
         23    2    1    2    0    0 -0.23980057184E+02 -0.95830395516E+02  0.25100493398E+03  0.29148079058E+03  0.11044938454E+03 0.  0.
          5    1    3    3  502    0 -0.30015131355E+02 -0.11080621913E+03  0.24957198619E+03  0.27474092342E+03  0.41800000000E+01 0. -1.
         -5    1    3    3    0  502  0.60350741708E+01  0.14975823614E+02  0.14329477883E+01  0.16739867160E+02  0.41800000000E+01 0.  1.
        -11    1    1    2    0    0  0.98172641615E+01  0.12236989914E+02  0.40728132351E+02  0.43645198620E+02  0.00000000000E+00 0.  1.
         11    1    1    2    0    0  0.14162793023E+02  0.83593405602E+02  0.28365062533E+03  0.29605087302E+03  0.00000000000E+00 0. -1.
</event>
<event>
 6    1  0.5109948E-006  0.1256778E+03  0.7561462E-02  0.1234014E+00
          4   -1    0    0  501    0  0.00000000000E+00  0.00000000000E+00  0.69847833116E+02  0.69847833116E+02  0.00000000000E+00 0. -1.
         -4   -1    0    0    0  501 -0.00000000000E+00 -0.00000000000E+00 -0.31956939436E+03  0.31956939436E+03  0.00000000000E+00 0.  1.
          5    1    1    2  502    0 -0.15074073150E+02 -0.38151182595E+02 -0.42013528562E+02  0.58867218356E+02  0.41800000000E+01 0. -1.
         -5    1    1    2    0  502 -0.11188708057E+02  0.10143748054E+03 -0.19018136566E+03  0.21587305040E+03  0.41800000000E+01 0.  1.
        -11    1    1    2    0    0  0.30878075353E+02  0.11577935954E+02 -0.21828587713E+02  0.39547330883E+02  0.00000000000E+00 0.  1.
         11    1    1    2    0    0 -0.46152941451E+01 -0.74864233898E+02  0.43019206885E+01  0.75129627836E+02  0.00000000000E+00 0. -1.
</event>
<event>
 7    1  0.5109948E-006  0.1300987E+03  0.7561462E-02  0.1227309E+00
          1   -1    0    0  501    0  0.00000000000E+00  0.00000000000E+00  0.70668730039E+03  0.70668730039E+03  0.00000000000E+00 0. -1.
         -1   -1    0    0    0  501 -0.00000000000E+00 -0.00000000000E+00 -0.27308623342E+02  0.27308623342E+02  0.00000000000E+00 0.  1.
         23    2    1    2    0    0  0.65901229402E+02  0.55072743309E+02  0.34592874691E+03  0.37774405627E+03  0.12509154653E+03 0.  0.
          5    1    3    3  502    0  0.92164170943E+02  0.22351562765E+01  0.19911996535E+03  0.21946631480E+03  0.41800000000E+01 0.  1.
         -5    1    3    3    0  502 -0.26262941542E+02  0.52837587033E+02  0.14680878156E+03  0.15827774147E+03  0.41800000000E+01 0.  1.
        -11    1    1    2    0    0 -0.54754325637E+02 -0.22796630648E+01  0.79019076820E+02  0.96162609891E+02  0.00000000000E+00 0.  1.
         11    1    1    2    0    0 -0.11146903765E+02 -0.52793080245E+02  0.25443085332E+03  0.26008925757E+03  0.00000000000E+00 0. -1.
</event>
<event>
 7    1  0.5109948E-006  0.8466507E+02  0.7561462E-02  0.1316311E+00
         -2   -1    0    0    0  501 -0.00000000000E+00  0.00000000000E+00  0.11346970209E+03  0.11346970209E+03  0.00000000000E+00 0.  1.
          2   -1    0    0  501    0  0.00000000000E+00 -0.00000000000E+00 -0.15270628204E+03  0.15270628204E+03  0.00000000000E+00 0. -1.
         23    2    1    2    0    0  0.39570908291E+02 -0.46217446705E+02  0.22440888510E+02  0.14089984766E+03  0.12508902601E+03 0.  0.
          5    1    3    3  502    0  0.20521101265E+02 -0.21313239241E+02 -0.52024243052E+02  0.59994700009E+02  0.41800000000E+01 0. -1.
         -5    1    3    3    0  502  0.19049807025E+02 -0.24904207465E+02  0.74465131562E+02  0.80905147646E+02  0.41800000000E+01 0. -1.
        -11    1    1    2    0    0 -0.67794076381E+02  0.24063716685E+02 -0.32091114508E+02  0.78771434438E+02  0.00000000000E+00 0.  1.
         11    1    1    2    0    0  0.28223168090E+02  0.22153730021E+02 -0.29586353950E+02  0.46504702030E+02  0.00000000000E+00 0. -1.
</event>
<event>
 7    1  0.5109948E-006  0.1174610E+03  0.7561462E-02  0.1247345E+00
          1   -1    0    0  501    0  0.00000000000E+00  0.00000000000E+00  0.90978189956E+02  0.90978189956E+02  0.00000000000E+00 0. -1.
         -1   -1    0    0    0  501 -0.00000000000E+00 -0.00000000000E+00 -0.17317407592E+03  0.17317407592E+03  0.00000000000E+00 0.  1.
         23    2    1    2    0    0  0.59912832556E+02  0.52115842689E+01 -0.64107788528E+02  0.15288627381E+03  0.12509075127E+03 0.  0.
          5    1    3    3  502    0  0.36721621779E+01  0.57070377599E+02 -0.79397890273E+01  0.57888042151E+02  0.41800000000E+01 0. -1.
         -5    1    3    3    0  502  0.56240670378E+02 -0.51858793330E+02 -0.56167999501E+02  0.94998231658E+02  0.41800000000E+01 0. -1.
        -11    1    1    2    0    0  0.15350866854E+02  0.16595945061E+02 -0.23640605698E+02  0.32710132121E+02  0.00000000000E+00 0.  1.
         11    1    1    2    0    0 -0.75263699409E+02 -0.21807529330E+02  0.55525082600E+01  0.78555859948E+02  0.00000000000E+00 0. -1.
</event>
<event>
 7    1  0.5109948E-006  0.1460861E+03  0.7561462E-02  0.1205367E+00
          1   -1    0    0  501    0  0.00000000000E+00  0.00000000000E+00  0.59020563335E+02  0.59020563335E+02  0.00000000000E+00 0. -1.
         -1   -1    0    0    0  501 -0.00000000000E+00 -0.00000000000E+00 -0.45330141032E+03  0.45330141032E+03  0.00000000000E+00 0.  1.
         23    2    1    2    0    0  0.63457953796E+02 -0.79945041810E+02 -0.31704745887E+03  0.35578777256E+03  0.12509087223E+03 0.  0.
          5    1    3    3  502    0  0.75690618827E+02 -0.15031681679E+00 -0.11066305584E+03  0.13413752906E+03  0.41800000000E+01 0. -1.
         -5    1    3    3    0  502 -0.12232665030E+02 -0.79794724994E+02 -0.20638440303E+03  0.22165024350E+03  0.41800000000E+01 0. -1.
        -11    1    1    2    0    0 -0.36922812430E+01 -0.19316177508E+02 -0.16750188237E+02  0.25832469109E+02  0.00000000000E+00 0.  1.
         11    1    1    2    0    0 -0.59765672553E+02  0.99261219318E+02 -0.60483199872E+02  0.13070173198E+03  0.00000000000E+00 0. -1.
</event>
<event>
 7    1  0.5109948E-006  0.1036960E+03  0.7561462E-02  0.1272710E+00
         -2   -1    0    0    0  501 -0.00000000000E+00  0.00000000000E+00  0.28583256109E+02  0.28583256109E+02  0.00000000000E+00 0.  1.
          2   -1    0    0  501    0  0.00000000000E+00 -0.00000000000E+00 -0.58472107605E+03  0.58472107605E+03  0.00000000000E+00 0. -1.
         23    2    1    2    0    0 -0.50329181882E+02 -0.27190806840E+02 -0.20544304133E+03  0.24723585817E+03  0.12508541007E+03 0.  0.
          5    1    3    3  502    0 -0.71595375518E+02  0.12918454336E+02 -0.58697901135E+02  0.93571898857E+02  0.41800000000E+01 0.  1.
         -5    1    3    3    0  502  0.21266193636E+02 -0.40109261175E+02 -0.14674514019E+03  0.15366395932E+03  0.41800000000E+01 0.  1.
        -11    1    1    2    0    0  0.53493738656E+02 -0.75691201967E+01 -0.29803038785E+03  0.30288774115E+03  0.00000000000E+00 0. -1.
         11    1    1    2    0    0 -0.31645567739E+01  0.34759927036E+02 -0.52664390769E+02  0.63180732840E+02  0.00000000000E+00 0.  1.
</event>
<event>
 7    1  0.5109948E-006  0.9810970E+02  0.7561462E-02  0.1284322E+00
          2   -1    0    0  501    0  0.00000000000E+00  0.00000000000E+00  0.61017998366E+02  0.61017998366E+02  0.00000000000E+00 0. -1.
         -2   -1    0    0    0  501 -0.00000000000E+00 -0.00000000000E+00 -0.24032694415E+03  0.24032694415E+03  0.00000000000E+00 0.  1.
         23    2    1    2    0    0 -0.41030314762E+02 -0.21818544977E+02 -0.13656749165E+03  0.19094227843E+03  0.12509491709E+03 0.  0.
          5    1    3    3  502    0 -0.71945922663E+02 -0.22921831522E+02 -0.14041962050E+03  0.15948908543E+03  0.41800000000E+01 0. -1.
         -5    1    3    3    0  502  0.30915607901E+02  0.11032865447E+01  0.38521288575E+01  0.31453192999E+02  0.41800000000E+01 0. -1.
        -11    1    1    2    0    0  0.51644156514E+02  0.42006145039E+02 -0.55847903990E+01  0.66804378650E+02  0.00000000000E+00 0.  1.
         11    1    1    2    0    0 -0.10613841752E+02 -0.20187600061E+02 -0.37156663738E+02  0.43598285437E+02  0.00000000000E+00 0. -1.
</event>
<event>
 7    1  0.5109948E-006  0.1102304E+03  0.7561462E-02  0.1260144E+00
          2   -1    0    0  501    0  0.00000000000E+00  0.00000000000E+00  0.50363555348E+03  0.50363555348E+03  0.00000000000E+00 0. -1.
         -2   -1    0    0    0  501 -0.00000000000E+00 -0.00000000000E+00 -0.45054365981E+02  0.45054365981E+02  0.00000000000E+00 0.  1.
         23    2    1    2    0    0 -0.12789812712E+02  0.10280041825E+03  0.26154438439E+03  0.30787437625E+03  0.12509860608E+03 0.  0.
          5    1    3    3  502    0 -0.18898710223E+02  0.74249001530E+02  0.26706299531E+03  0.27786721890E+03  0.41800000000E+01 0.  1.
         -5    1    3    3    0  502  0.61088975114E+01  0.28551416719E+02 -0.55186109210E+01  0.30007157346E+02  0.41800000000E+01 0.  1.
        -11    1    1    2    0    0  0.25809414314E+02 -0.27102235112E+02  0.10175958429E+02  0.38784109443E+02  0.00000000000E+00 0.  1.
         11    1    1    2    0    0 -0.13019601602E+02 -0.75698183137E+02  0.18686084468E+03  0.20203143377E+03  0.00000000000E+00 0. -1.
</event>
<event>
 7    1  0.5109948E-006  0.1262440E+03  0.7561462E-02  0.1233138E+00
         -1   -1    0    0    0  501 -0.00000000000E+00  0.00000000000E+00  0.30511886562E+03  0.30511886562E+03  0.00000000000E+00 0.  1.
          1   -1    0    0  501    0  0.00000000000E+00 -0.00000000000E+00 -0.10085774386E+03  0.10085774386E+03  0.00000000000E+00 0. -1.
         23    2    1    2    0    0 -0.66257453240E+02 -0.10201419741E+03  0.18158417363E+03  0.25182838236E+03  0.12509106869E+03 0.  0.
          5    1    3    3  502    0 -0.25896595123E+02 -0.10717461973E+02 -0.14446355345E+02  0.31806716474E+02  0.41800000000E+01 0.  1.
         -5    1    3    3    0  502 -0.40360858117E+02 -0.91296735442E+02  0.19603052897E+03  0.22002166589E+03  0.41800000000E+01 0.  1.
        -11    1    1    2    0    0  0.33647863860E+02  0.29555794923E+02 -0.34268057712E+02  0.56391697396E+02  0.00000000000E+00 0. -1.
         11    1    1    2    0    0  0.32609589381E+02  0.72458402492E+02  0.56945005846E+02  0.97756529716E+02  0.00000000000E+00 0.  1.
</event>
<event>
 6    1  0.5109948E-006  0.1049194E+03  0.7561462E-02  0.1270278E+00
         -2   -1    0    0    0  501 -0.00000000000E+00  0.00000000000E+00  0.29758935187E+03  0.29758935187E+03  0.00000000000E+00 0.  1.
          2   -1    0    0  501    0  0.00000000000E+00 -0.00000000000E+00 -0.21441119657E+03  0.21441119657E+03  0.00000000000E+00 0. -1.
          5    1    1    2  502    0  0.53165291282E+02 -0.38746737382E+02  0.25034763240E+02  0.70512903963E+02  0.41800000000E+01 0. -1.
         -5    1    1    2    0  502 -0.46228692226E+02  0.48874831058E+02  0.23373877407E+03  0.24326349500E+03  0.41800000000E+01 0.  1.
        -11    1    1    2    0    0  0.11301689650E+01 -0.42824202655E+02 -0.14979551723E+03  0.15580079138E+03  0.00000000000E+00 0. -1.
         11    1    1    2    0    0 -0.80667680210E+01  0.32696108979E+02 -0.25799864788E+02  0.42423358091E+02  0.00000000000E+00 0.  1.
</event>
<event>
 7    1  0.5109948E-006  0.9330397E+02  0.7561462E-02  0.1295042E+00
         -3   -1    0    0    0  501 -0.00000000000E+00  0.00000000000E+00  0.34520597564E+02  0.34520597564E+02  0.00000000000E+00 0.  1.
          3   -1    0    0  501    0  0.00000000000E+00 -0.00000000000E+00 -0.47536449827E+03  0.47536449827E+03  0.00000000000E+00 0. -1.
         23    2    1    2    0    0 -0.63603923393E+02 -0.22615130839E+02 -0.24021136723E+03  0.27911655878E+03  0.12509056409E+03 0.  0.
          5    1    3    3  502    0 -0.57957684738E+02 -0.34880612143E+02 -0.40596545351E+02  0.79001912750E+02  0.41800000000E+01 0. -1.
         -5    1    3    3    0  502 -0.56462386551E+01  0.12265481305E+02 -0.19961482188E+03  0.20011464603E+03  0.41800000000E+01 0. -1.
        -11    1    1    2    0    0  0.60448098732E+02  0.49192881223E+02 -0.10082471876E+03  0.12743443850E+03  0.00000000000E+00 0.  1.
         11    1    1    2    0    0  0.31558246610E+01 -0.26577750384E+02 -0.99807814713E+02  0.10333409855E+03  0.00000000000E+00 0. -1.
</event>
<event>
 7    1  0.5109948E-006  0.8744298E+02  0.7561462E-02  0.1309165E+00
          4   -1    0    0  501    0  0.00000000000E+00  0.00000000000E+00  0.20656450484E+03  0.20656450484E+03  0.00000000000E+00 0. -1.
         -4   -1    0    0    0  501 -0.00000000000E+00 -0.00000000000E+00 -0.67140702782E+02  0.67140702782E+02  0.00000000000E+00 0.  1.
         23    2    1    2    0    0  0.36736052287E+02 -0.27308030104E+02  0.88745554465E+02  0.16006051744E+03  0.12509328423E+03 0.  0.
          5    1    3    3  502    0 -0.40289665807E+02 -0.23317933952E+02  0.64287330754E+01  0.47178217682E+02  0.41800000000E+01 0.  1.
         -5    1    3    3    0  502  0.77025718095E+02 -0.39900961513E+01  0.82316821389E+02  0.11288229976E+03  0.41800000000E+01 0.  1.
        -11    1    1    2    0    0 -0.11585925325E+02  0.22488940312E+02 -0.23894033377E+02  0.34798145540E+02  0.00000000000E+00 0.  1.
         11    1    1    2    0    0 -0.25150126962E+02  0.48190897914E+01  0.74572280971E+02  0.78846544641E+02  0.00000000000E+00 0. -1.
</event>
<event>
 7    1  0.5109948E-006  0.9746148E+02  0.7561462E-02  0.1285726E+00
          1   -1    0    0  501    0  0.00000000000E+00  0.00000000000E+00  0.90511439585E+03  0.90511439585E+03  0.00000000000E+00 0.  1.
         -1   -1    0    0    0  501 -0.00000000000E+00 -0.00000000000E+00 -0.16787030585E+02  0.16787030585E+02  0.00000000000E+00 0. -1.
         23    2    1    2    0    0 -0.43699643133E+02  0.20986179981E+02  0.45131319374E+03  0.47083041613E+03  0.12509038075E+03 0.  0.
          5    1    3    3  502    0  0.22592758163E+02 -0.73063212383E+01  0.14592542586E+02  0.28182082084E+02  0.41800000000E+01 0.  1.
         -5    1    3    3    0  502 -0.66292401296E+02  0.28292501219E+02  0.43672065115E+03  0.44264833405E+03  0.41800000000E+01 0.  1.
        -11    1    1    2    0    0 -0.10637951021E+02  0.25166131993E+02  0.45141042487E+02  0.52765650931E+02  0.00000000000E+00 0. -1.
         11    1    1    2    0    0  0.54337594153E+02 -0.46152311973E+02  0.39187312904E+03  0.39830535937E+03  0.00000000000E+00 0.  1.
</event>
<event>
 7    1  0.7682512E-006  0.4332890E+03  0.7561462E-02  0.1032826E+00
          2   -1    0    0  501    0  0.00000000000E+00  0.00000000000E+00  0.13803986254E+04  0.13803986254E+04  0.00000000000E+00 0. -1.
         -2   -1    0    0    0  501 -0.00000000000E+00 -0.00000000000E+00 -0.13960676362E+03  0.13960676362E+03  0.00000000000E+00 0.  1.
         23    2    1    2    0    0  0.39538696692E+03  0.15534103936E+03  0.65614415827E+03  0.79160262779E+03  0.12509145363E+03 0.  0.
          5    1    3    3  502    0  0.18148548342E+03  0.13504614330E+03  0.30198274345E+03  0.37734002074E+03  0.41800000000E+01 0. -1.
         -5    1    3    3    0  502  0.21390148350E+03  0.20294896057E+02  0.35416141483E+03  0.41426260706E+03  0.41800000000E+01 0. -1.
        -11    1    1    2    0    0 -0.27394944753E+03 -0.11883014209E+03  0.33761742745E+03  0.45072655767E+03  0.00000000000E+00 0. -1.
         11    1    1    2    0    0 -0.12143751939E+03 -0.36510897269E+02  0.24703027608E+03  0.27767620358E+03  0.00000000000E+00 0.  1.
</event>
<event>
 7    1  0.5109948E-006  0.1197987E+03  0.7561462E-02  0.1243430E+00
         -1   -1    0    0    0  501 -0.00000000000E+00  0.00000000000E+00  0.41814734035E+02  0.41814734035E+02  0.00000000000E+00 0.  1.
          1   -1    0    0  501    0  0.00000000000E+00 -0.00000000000E+00 -0.52985306286E+03  0.52985306286E+03  0.00000000000E+00 0. -1.
         23    2    1    2    0    0 -0.28599060215E+02  0.82688186206E+02 -0.16525831271E+03  0.22497967359E+03  0.12510116397E+03 0.  0.
          5    1    3    3  502    0 -0.30867133559E+02 -0.25118207435E+02 -0.22119819801E+02  0.45721582507E+02  0.41800000000E+01 0.  1.
         -5    1    3    3    0  502  0.22680733447E+01  0.10780639364E+03 -0.14313849291E+03  0.17925809108E+03  0.41800000000E+01 0.  1.
        -11    1    1    2    0    0  0.14130115356E+02 -0.94060844549E+01 -0.17293927161E+01  0.17062396781E+02  0.00000000000E+00 0.  1.
         11    1    1    2    0    0  0.14468944859E+02 -0.73282101751E+02 -0.32105062340E+03  0.32962572652E+03  0.00000000000E+00 0. -1.
</event>
<event>
 7    1  0.5109948E-006  0.2394862E+03  0.7561462E-02  0.1120136E+00
          2   -1    0    0  501    0  0.00000000000E+00  0.00000000000E+00  0.10510096568E+04  0.10510096568E+04  0.00000000000E+00 0. -1.
         -2   -1    0    0    0  501 -0.00000000000E+00 -0.00000000000E+00 -0.62258096943E+02  0.62258096943E+02  0.00000000000E+00 0.  1.
         23    2    1    2    0    0  0.30012357971E+02 -0.22923999343E+03  0.46387158480E+03  0.53317600787E+03  0.12509233374E+03 0.  0.
          5    1    3    3  502    0  0.59782815932E+02 -0.16094580762E+03  0.39865546066E+03  0.43407509349E+03  0.41800000000E+01 0. -1.
         -5    1    3    3    0  502 -0.29770457961E+02 -0.68294185816E+02  0.65216124140E+02  0.99100914382E+02  0.41800000000E+01 0. -1.
        -11    1    1    2    0    0 -0.26847332540E+02  0.10647707378E+03  0.34683557350E+03  0.36380360300E+03  0.00000000000E+00 0. -1.
         11    1    1    2    0    0 -0.31650254311E+01  0.12276291965E+03  0.17804440156E+03  0.21628814289E+03  0.00000000000E+00 0.  1.
</event>
<event>
 7    1  0.5109948E-006  0.2363691E+03  0.7561462E-02  0.1122236E+00
          2   -1    0    0  501    0  0.00000000000E+00  0.00000000000E+00  0.21899313986E+03  0.21899313986E+03  0.00000000000E+00 0.  1.
         -2   -1    0    0    0  501 -0.00000000000E+00 -0.00000000000E+00 -0.33083210147E+03  0.33083210147E+03  0.00000000000E+00 0. -1.
         23    2    1    2    0    0 -0.10023443821E+03  0.18290638797E+03 -0.18320722871E+03  0.30446325664E+03  0.12502518398E+03 0.  0.
          5    1    3    3  502    0 -0.11778849602E+03  0.89664740268E+02 -0.11604518386E+03  0.18814317032E+03  0.41800000000E+01 0.  1.
         -5    1    3    3    0  502  0.17554057816E+02  0.93241647698E+02 -0.67162044859E+02  0.11632008632E+03  0.41800000000E+01 0.  1.
        -11    1    1    2    0    0  0.14827703784E+02  0.10553941316E+02 -0.74657497343E+01  0.19671906260E+02  0.00000000000E+00 0.  1.
         11    1    1    2    0    0  0.85406734424E+02 -0.19346032928E+03  0.78834016837E+02  0.22569007843E+03  0.00000000000E+00 0. -1.
</event>
<event>
 7    1  0.5109948E-006  0.1445127E+03  0.7561462E-02  0.1207383E+00
         -2   -1    0    0    0  501 -0.00000000000E+00  0.00000000000E+00  0.31867847469E+02  0.31867847469E+02  0.00000000000E+00 0.  1.
          2   -1    0    0  501    0  0.00000000000E+00 -0.00000000000E+00 -0.98529853106E+03  0.98529853106E+03  0.00000000000E+00 0. -1.
         23    2    1    2    0    0  0.72186569801E+01  0.10456328254E+03 -0.23952690607E+03  0.28983884589E+03  0.12509128183E+03 0.  0.
          5    1    3    3  502    0  0.55192778861E+02  0.18407117718E+02 -0.53026706989E+02  0.78831268385E+02  0.41800000000E+01 0.  1.
         -5    1    3    3    0  502 -0.47974121881E+02  0.86156164817E+02 -0.18650019908E+03  0.21100757750E+03  0.41800000000E+01 0.  1.
        -11    1    1    2    0    0 -0.38266734705E+01  0.13423229812E+02 -0.27400338266E+02  0.30750692115E+02  0.00000000000E+00 0.  1.
         11    1    1    2    0    0 -0.33919835097E+01 -0.11798651235E+03 -0.68650343926E+03  0.69657684053E+03  0.00000000000E+00 0. -1.
</event>
<event>
 6    1  0.5109948E-006  0.1165515E+03  0.7561462E-02  0.1248897E+00
         -2   -1    0    0    0  501 -0.00000000000E+00  0.00000000000E+00  0.29284053360E+02  0.29284053360E+02  0.00000000000E+00 0.  1.
          2   -1    0    0  501    0  0.00000000000E+00 -0.00000000000E+00 -0.79553206616E+03  0.79553206616E+03  0.00000000000E+00 0. -1.
          5    1    1    2  502    0  0.65168687143E+02  0.28650040879E+02 -0.28756559369E+03  0.29627559079E+03  0.41800000000E+01 0. -1.
         -5    1    1    2    0  502 -0.13264029004E+02  0.36971918113E+02 -0.58197445228E+01  0.39927421914E+02  0.41800000000E+01 0.  1.
        -11    1    1    2    0    0 -0.55539958599E+02  0.10207145175E+01 -0.24220929458E+03  0.24849762824E+03  0.00000000000E+00 0.  1.
         11    1    1    2    0    0  0.36353004599E+01 -0.66642673509E+02 -0.23065338001E+03  0.24011547857E+03  0.00000000000E+00 0. -1.
</event>
<event>
 7    1  0.5109948E-006  0.1058904E+03  0.7561462E-02  0.1268375E+00
         -2   -1    0    0    0  501 -0.00000000000E+00  0.00000000000E+00  0.34961617342E+03  0.34961617342E+03  0.00000000000E+00 0.  1.
          2   -1    0    0  501    0  0.00000000000E+00 -0.00000000000E+00 -0.38057654231E+02  0.38057654231E+02  0.00000000000E+00 0. -1.
         23    2    1    2    0    0 -0.13248246006E+01 -0.26282725317E+01  0.24547535202E+03  0.27552392733E+03  0.12508646251E+03 0.  0.
          5    1    3    3  502    0 -0.44088097341E+02 -0.44258750046E+02  0.97037343976E+02  0.11548296761E+03  0.41800000000E+01 0.  1.
         -5    1    3    3    0  502  0.42763272741E+02  0.41630477515E+02  0.14843800805E+03  0.16004095972E+03  0.41800000000E+01 0.  1.
        -11    1    1    2    0    0 -0.12688420755E+02 -0.41315170555E+02  0.41344684243E+02  0.59810720230E+02  0.00000000000E+00 0. -1.
         11    1    1    2    0    0  0.14013245356E+02  0.43943443087E+02  0.24738482927E+02  0.52339180098E+02  0.00000000000E+00 0.  1.
</event>
<event>
 7    1  0.5109948E-006  0.8529897E+02  0.7561462E-02  0.1314653E+00
         -2   -1    0    0    0  501 -0.00000000000E+00  0.00000000000E+00  0.92160437246E+01  0.92160437246E+01  0.00000000000E+00 0.  1.
          2   -1    0    0  501    0  0.00000000000E+00 -0.00000000000E+00 -0.90201087869E+03  0.90201087869E+03  0.00000000000E+00 0. -1.
         23    2    1    2    0    0  0.33862793827E+02  0.31734734001E+02 -0.61260457954E+03  0.62527079841E+03  0.11629883201E+03 0.  0.
          5    1    3    3  502    0 -0.29522800378E+02  0.40101920187E+02 -0.40315591608E+03  0.40624121506E+03  0.41800000000E+01 0. -1.
         -5    1    3    3    0  502  0.63385594205E+02 -0.83671861856E+01 -0.20944866345E+03  0.21902958335E+03  0.41800000000E+01 0.  1.
        -11    1    1    2    0    0  0.41513392380E+01 -0.14006763033E+02 -0.55894883746E+02  0.57772493949E+02  0.00000000000E+00 0.  1.
         11    1    1    2    0    0 -0.38014133065E+02 -0.17727970968E+02 -0.22429537169E+03  0.22818363006E+03  0.00000000000E+00 0. -1.
</event>
<event>
 7    1  0.5109948E-006  0.1006879E+03  0.7561462E-02  0.1278856E+00
          1   -1    0    0  501    0  0.00000000000E+00  0.00000000000E+00  0.15854736033E+03  0.15854736033E+03  0.00000000000E+00 0. -1.
         -1   -1    0    0    0  501 -0.00000000000E+00 -0.00000000000E+00 -0.12181811027E+03  0.12181811027E+03  0.00000000000E+00 0.  1.
         23    2    1    2    0    0  0.13102162413E+02 -0.67372787673E+02 -0.48014418384E+02  0.13927489046E+03  0.11127152179E+03 0.  0.
          5    1    3    3  502    0  0.29403553400E+02  0.13771793563E+02 -0.45897871882E+02  0.56376575754E+02  0.41800000000E+01 0. -1.
         -5    1    3    3    0  502 -0.16301390987E+02 -0.81144581236E+02 -0.21165465023E+01  0.82898314706E+02  0.41800000000E+01 0.  1.
        -11    1    1    2    0    0  0.17994051814E+02  0.41793595951E+02  0.89641252977E+02  0.10052882571E+03  0.00000000000E+00 0. -1.
         11    1    1    2    0    0 -0.31096214227E+02  0.25579191722E+02 -0.48975845356E+01  0.40561754433E+02  0.00000000000E+00 0.  1.
</event>
<event>
 7    1  0.5109948E-006  0.1091331E+03  0.7561462E-02  0.1262184E+00
         -2   -1    0    0    0  501 -0.00000000000E+00  0.00000000000E+00  0.66490858172E+02  0.66490858172E+02  0.00000000000E+00 0.  1.
          2   -1    0    0  501    0  0.00000000000E+00 -0.00000000000E+00 -0.53981095280E+03  0.53981095280E+03  0.00000000000E+00 0. -1.
         23    2    1    2    0    0 -0.44932964175E+02 -0.94831047041E+01 -0.12274476494E+02  0.13381751545E+03  0.12509022393E+03 0.  0.
          5    1    3    3  502    0  0.16519281289E+02 -0.42714572376E+02 -0.37586434129E+02  0.59393886707E+02  0.41800000000E+01 0.  1.
         -5    1    3    3    0  502 -0.61452245464E+02  0.33231467672E+02  0.25311957636E+02  0.74423628745E+02  0.41800000000E+01 0.  1.
        -11    1    1    2    0    0 -0.27300150132E+02  0.12432699137E+02 -0.10654816304E+03  0.11069047498E+03  0.00000000000E+00 0. -1.
         11    1    1    2    0    0  0.72233114307E+02 -0.29495944332E+01 -0.35449745510E+03  0.36179382054E+03  0.00000000000E+00 0.  1.
</event>
<event>
 7    1  0.5109948E-006  0.1130298E+03  0.7561462E-02  0.1255060E+00
          1   -1    0    0  501    0  0.00000000000E+00  0.00000000000E+00  0.17618754238E+02  0.17618754238E+02  0.00000000000E+00 0. -1.
         -1   -1    0    0    0  501 -0.00000000000E+00 -0.00000000000E+00 -0.11331335174E+04  0.11331335174E+04  0.00000000000E+00 0.  1.
         23    2    1    2    0    0 -0.66422218372E+02 -0.47947078491E+02 -0.45801723947E+03  0.48180679945E+03  0.12508863621E+03 0.  0.
          5    1    3    3  502    0 -0.34926714289E+02 -0.59442497857E+02 -0.43609424708E+03  0.44153023754E+03  0.41800000000E+01 0.  1.
         -5    1    3    3    0  502 -0.31495504083E+02  0.11495419366E+02 -0.21922992393E+02  0.40276561910E+02  0.41800000000E+01 0.  1.
        -11    1    1    2    0    0  0.82057017044E+02  0.61471886821E+02 -0.54194232780E+03  0.55155564867E+03  0.00000000000E+00 0.  1.
         11    1    1    2    0    0 -0.15634798671E+02 -0.13524808330E+02 -0.11555519588E+03  0.11738982351E+03  0.00000000000E+00 0. -1.
</event>
<event>
 7    1  0.5109948E-006  0.1042332E+03  0.7561462E-02  0.1271638E+00
         -1   -1    0    0    0  501 -0.00000000000E+00  0.00000000000E+00  0.19126547364E+03  0.19126547364E+03  0.00000000000E+00 0.  1.
          1   -1    0    0  501    0  0.00000000000E+00 -0.00000000000E+00 -0.81703066627E+02  0.81703066627E+02  0.00000000000E+00 0. -1.
         23    2    1    2    0    0  0.32335777909E+02  0.47332411860E+02  0.79410755360E+02  0.15886889591E+03  0.12508916130E+03 0.  0.
          5    1    3    3  502    0 -0.38798316835E+02  0.50998510568E+02  0.24095287399E+02  0.68587263718E+02  0.41800000000E+01 0.  1.
         -5    1    3    3    0  502  0.71134094744E+02 -0.36660987083E+01  0.55315467960E+02  0.90281632188E+02  0.41800000000E+01 0.  1.
        -11    1    1    2    0    0 -0.12030930376E+02  0.76709522562E+01  0.50158615096E+02  0.52148571050E+02  0.00000000000E+00 0.  1.
         11    1    1    2    0    0 -0.20304847533E+02 -0.55003364116E+02 -0.20006963447E+02  0.61951073307E+02  0.00000000000E+00 0. -1.
</event>
<event>
 7    1  0.5109948E-006  0.1298580E+03  0.7561462E-02  0.1227667E+00
         -1   -1    0    0    0  501 -0.00000000000E+00  0.00000000000E+00  0.19754719630E+03  0.19754719630E+03  0.00000000000E+00 0.  1.
          1   -1    0    0  501    0  0.00000000000E+00 -0.00000000000E+00 -0.22658001448E+03  0.22658001448E+03  0.00000000000E+00 0. -1.
         23    2    1    2    0    0 -0.60959227559E+02 -0.42457339902E+02  0.15063852979E+03  0.20942315324E+03  0.12508971709E+03 0.  0.
          5    1    3    3  502    0  0.37272607634E+02 -0.14278955314E+02  0.63186022855E+02  0.74853735571E+02  0.41800000000E+01 0.  1.
         -5    1    3    3    0  502 -0.98231835192E+02 -0.28178384588E+02  0.87452506935E+02  0.13456941767E+03  0.41800000000E+01 0.  1.
        -11    1    1    2    0    0 -0.19484039885E+01  0.53414469572E+02 -0.88685113760E+02  0.10354685529E+03  0.00000000000E+00 0. -1.
         11    1    1    2    0    0  0.62907631547E+02 -0.10957129670E+02 -0.90986234204E+02  0.11115720225E+03  0.00000000000E+00 0.  1.
</event>
<event>
 7    1  0.5109948E-006  0.9846462E+02  0.7561462E-02  0.1283558E+00
         -1   -1    0    0    0  501 -0.00000000000E+00  0.00000000000E+00  0.27434851790E+03  0.27434851790E+03  0.00000000000E+00 0.  1.
          1   -1    0    0  501    0  0.00000000000E+00 -0.00000000000E+00 -0.64069770880E+02  0.64069770880E+02  0.00000000000E+00 0. -1.
         23    2    1    2    0    0 -0.33381796867E+02 -0.73218910997E+01  0.19575509054E+03  0.23480997864E+03  0.12509083158E+03 0.  0.
          5    1    3    3  502    0  0.35812900347E+02 -0.14949079723E+02  0.16334157804E+02  0.42312125059E+02  0.41800000000E+01 0. -1.
         -5    1    3    3    0  502 -0.69194697214E+02  0.76271886231E+01  0.17942093274E+03  0.19249785358E+03  0.41800000000E+01 0. -1.
        -11    1    1    2    0    0 -0.27167824029E+02  0.53862093260E-02 -0.19805452939E+02  0.33620628454E+02  0.00000000000E+00 0. -1.
         11    1    1    2    0    0  0.60549620896E+02  0.73165048904E+01  0.34329109418E+02  0.69987681687E+02  0.00000000000E+00 0.  1.
</event>
<event>
 7    1  0.5109948E-006  0.1022658E+03  0.7561462E-02  0.1275602E+00
          2   -1    0    0  501    0  0.00000000000E+00  0.00000000000E+00  0.42797172697E+02  0.42797172697E+02  0.00000000000E+00 0. -1.
         -2   -1    0    0    0  501 -0.00000000000E+00 -0.00000000000E+00 -0.30117146830E+03  0.30117146830E+03  0.00000000000E+00 0.  1.
         23    2    1    2    0    0  0.51435892736E+01  0.33370520437E+02 -0.12913668070E+03  0.18293119941E+03  0.12508994073E+03 0.  0.
          5    1    3    3  502    0  0.32662969422E+02 -0.28003764951E+02 -0.10107572761E+03  0.10993113997E+03  0.41800000000E+01 0. -1.
         -5    1    3    3    0  502 -0.27519380148E+02  0.61374285388E+02 -0.28060953091E+02  0.73000059445E+02  0.41800000000E+01 0. -1.
        -11    1    1    2    0    0 -0.32804586238E+02  0.16624446015E+02 -0.67836789030E+02  0.77164389646E+02  0.00000000000E+00 0.  1.
         11    1    1    2    0    0  0.27660996964E+02 -0.49994966452E+02 -0.61400825874E+02  0.83873051939E+02  0.00000000000E+00 0. -1.
</event>
<event>
 7    1  0.5109948E-006  0.1263433E+03  0.7561462E-02  0.1232985E+00
          2   -1    0    0  501    0  0.00000000000E+00  0.00000000000E+00  0.67166928351E+03  0.67166928351E+03  0.00000000000E+00 0.  1.
         -2   -1    0    0    0  501 -0.00000000000E+00 -0.00000000000E+00 -0.31074477396E+02  0.31074477396E+02  0.00000000000E+00 0. -1.
         23    2    1    2    0    0  0.48741695494E+02 -0.75113074331E+02  0.27551010451E+03  0.31554913857E+03  0.12509082440E+03 0.  0.
          5    1    3    3  502    0 -0.15406236301E+02 -0.53692537450E+02  0.22271270308E+03  0.22964899566E+03  0.41800000000E+01 0.  1.
         -5    1    3    3    0  502  0.64147931795E+02 -0.21420536880E+02  0.52797401434E+02  0.85900142910E+02  0.41800000000E+01 0.  1.
        -11    1    1    2    0    0 -0.66769904133E+02  0.85206245223E+02  0.30228172940E+03  0.32108031433E+03  0.00000000000E+00 0. -1.
         11    1    1    2    0    0  0.18028208639E+02 -0.10093170892E+02  0.62802972204E+02  0.66114308005E+02  0.00000000000E+00 0.  1.
</event>
<event>
 7    1  0.5109948E-006  0.1261684E+03  0.7561462E-02  0.1233255E+00
         -1   -1    0    0    0  501 -0.00000000000E+00  0.00000000000E+00  0.71828165941E+02  0.71828165941E+02  0.00000000000E+00 0.  1.
          1   -1    0    0  501    0  0.00000000000E+00 -0.00000000000E+00 -0.34984212203E+03  0.34984212203E+03  0.00000000000E+00 0. -1.
         23    2    1    2    0    0  0.61461806649E+02 -0.65646206518E+02 -0.56944975014E+02  0.16424659696E+03  0.12508891369E+03 0.  0.
          5    1    3    3  502    0  0.98517198863E+02 -0.61563133917E+02 -0.38593132112E+02  0.12248493857E+03  0.41800000000E+01 0. -1.
         -5    1    3    3    0  502 -0.37055392214E+02 -0.40830726014E+01 -0.18351842902E+02  0.41761658395E+02  0.41800000000E+01 0. -1.
        -11    1    1    2    0    0 -0.33416146395E+02  0.78347955776E+01 -0.85051857373E+01  0.35360444653E+02  0.00000000000E+00 0.  1.
         11    1    1    2    0    0 -0.28045660255E+02  0.57811410941E+02 -0.21256379534E+03  0.22206324636E+03  0.00000000000E+00 0. -1.
</event>
<event>
 7    1  0.5109948E-006  0.1048793E+03  0.7561462E-02  0.1270358E+00
          1   -1    0    0  501    0  0.00000000000E+00  0.00000000000E+00  0.28989896698E+02  0.28989896698E+02  0.00000000000E+00 0. -1.
         -1   -1    0    0    0  501 -0.00000000000E+00 -0.00000000000E+00 -0.49367417546E+03  0.49367417546E+03  0.00000000000E+00 0.  1.
         23    2    1    2    0    0 -0.23271859177E+02  0.43069638835E+02 -0.25954663868E+03  0.29224700053E+03  0.12508908206E+03 0.  0.
          5    1    3    3  502    0 -0.14979165265E+01 -0.29187811485E+02 -0.94811255388E+01  0.31008647740E+02  0.41800000000E+01 0. -1.
         -5    1    3    3    0  502 -0.21773942651E+02  0.72257450320E+02 -0.25006551314E+03  0.26123835279E+03  0.41800000000E+01 0. -1.
        -11    1    1    2    0    0 -0.91831299858E+01  0.26412884506E+02 -0.47632898940E+02  0.55234621441E+02  0.00000000000E+00 0.  1.
         11    1    1    2    0    0  0.32454989163E+02 -0.69482523341E+02 -0.15750474114E+03  0.17518245018E+03  0.00000000000E+00 0. -1.
</event>
<event>
 7    1  0.5109948E-006  0.1348691E+03  0.7561462E-02  0.1220405E+00
          1   -1    0    0  501    0  0.00000000000E+00  0.00000000000E+00  0.78256539562E+02  0.78256539562E+02  0.00000000000E+00 0. -1.
         -1   -1    0    0    0  501 -0.00000000000E+00 -0.00000000000E+00 -0.33345521267E+03  0.33345521267E+03  0.00000000000E+00 0.  1.
         23    2    1    2    0    0 -0.28336941822E+02  0.11521402340E+03 -0.15740067801E+03  0.23345100626E+03  0.12508855032E+03 0.  0.
          5    1    3    3  502    0 -0.55802147991E+02  0.10713116540E+03 -0.16404682323E+03  0.20376407665E+03  0.41800000000E+01 0. -1.
         -5    1    3    3    0  502  0.27465206169E+02  0.80828580040E+01  0.66461452148E+01  0.29686929610E+02  0.41800000000E+01 0. -1.
        -11    1    1    2    0    0  0.24515438952E+01 -0.45643569223E+02  0.10562141448E+02  0.46913796594E+02  0.00000000000E+00 0. -1.
         11    1    1    2    0    0  0.25885397927E+02 -0.69570454180E+02 -0.10836013654E+03  0.13134694938E+03  0.00000000000E+00 0.  1.
</event>
<event>
 7    1  0.5109948E-006  0.1142268E+03  0.7561462E-02  0.1252937E+00
         -2   -1    0    0    0  501 -0.00000000000E+00  0.00000000000E+00  0.54236226487E+02  0.54236226487E+02  0.00000000000E+00 0.  1.
          2   -1    0    0  501    0  0.00000000000E+00 -0.00000000000E+00 -0.42201883980E+03  0.42201883980E+03  0.00000000000E+00 0. -1.
         23    2    1    2    0    0 -0.78375802275E+02  0.27983615987E+02 -0.94220597329E+02  0.17734250612E+03  0.12508794655E+03 0.  0.
          5    1    3    3  502    0 -0.21685958241E+02 -0.43168078059E+02 -0.32158083379E+01  0.48596065390E+02  0.41800000000E+01 0.  1.
         -5    1    3    3    0  502 -0.56689844034E+02  0.71151694046E+02 -0.91004788991E+02  0.12874644073E+03  0.41800000000E+01 0.  1.
        -11    1    1    2    0    0  0.41445696450E+02 -0.31123469169E+02 -0.24926141566E+03  0.25459314489E+03  0.00000000000E+00 0. -1.
         11    1    1    2    0    0  0.36930105825E+02  0.31398531812E+01 -0.24300600325E+02  0.44319415275E+02  0.00000000000E+00 0.  1.
</event>
<event>
 6    1  0.5109948E-006  0.1323290E+03  0.7561462E-02  0.1224040E+00
         -1   -1    0    0    0  501 -0.00000000000E+00  0.00000000000E+00  0.21852920753E+03  0.21852920753E+03  0.00000000000E+00 0.  1.
          1   -1    0    0  501    0  0.00000000000E+00 -0.00000000000E+00 -0.15014087626E+03  0.15014087626E+03  0.00000000000E+00 0. -1.
          5    1    1    2  502    0 -0.66710841435E+02  0.32507150579E+02 -0.73131134504E+02  0.10427217480E+03  0.41800000000E+01 0. -1.
         -5    1    1    2    0  502  0.91822099022E+02  0.33742840929E+01  0.13618962616E+03  0.16434040993E+03  0.41800000000E+01 0.  1.
        -11    1    1    2    0    0  0.20062715869E+02 -0.47623297211E+02 -0.60088190475E+01  0.52024964312E+02  0.00000000000E+00 0.  1.
         11    1    1    2    0    0 -0.45173973456E+02  0.11741862540E+02  0.11338658663E+02  0.48032534745E+02  0.00000000000E+00 0. -1.
</event>
<event>
 7    1  0.5109948E-006  0.1187294E+03  0.7561462E-02  0.1245208E+00
         -1   -1    0    0    0  501 -0.00000000000E+00  0.00000000000E+00  0.27696979637E+03  0.27696979637E+03  0.00000000000E+00 0.  1.
          1   -1    0    0  501    0  0.00000000000E+00 -0.00000000000E+00 -0.55093662427E+02  0.55093662427E+02  0.00000000000E+00 0. -1.
         23    2    1    2    0    0 -0.51132490268E+02 -0.29541671754E+02  0.11445678897E+03  0.17954504708E+03  0.12509526554E+03 0.  0.
          5    1    3    3  502    0 -0.21803900410E+02 -0.73426239698E+02  0.35614729774E+02  0.84573660947E+02  0.41800000000E+01 0.  1.
         -5    1    3    3    0  502 -0.29328589858E+02  0.43884567944E+02  0.78842059192E+02  0.94971386134E+02  0.41800000000E+01 0.  1.
        -11    1    1    2    0    0 -0.26100665300E+02  0.11310450705E+02  0.22295110803E+02  0.36141983758E+02  0.00000000000E+00 0. -1.
         11    1    1    2    0    0  0.77233155568E+02  0.18231221049E+02  0.85124234171E+02  0.11637642795E+03  0.00000000000E+00 0.  1.
</event>
<event>
 7    1  0.5109948E-006  0.9452251E+02  0.7561462E-02  0.1292255E+00
         -1   -1    0    0    0  501 -0.00000000000E+00  0.00000000000E+00  0.40468315328E+02  0.40468315328E+02  0.00000000000E+00 0.  1.
          1   -1    0    0  501    0  0.00000000000E+00 -0.00000000000E+00 -0.32022154307E+03  0.32022154307E+03  0.00000000000E+00 0. -1.
         23    2    1    2    0    0 -0.25456532263E+02 -0.44758750235E+01 -0.13119985674E+03  0.18310990453E+03  0.12509103180E+03 0.  0.
          5    1    3    3  502    0 -0.68838223446E+02  0.48736928399E+01 -0.11775710884E+03  0.13655278456E+03  0.41800000000E+01 0.  1.
         -5    1    3    3    0  502  0.43381691183E+02 -0.93495678634E+01 -0.13442747901E+02  0.46557119974E+02  0.41800000000E+01 0.  1.
        -11    1    1    2    0    0 -0.14723735122E+02 -0.22534893032E+02 -0.11637248923E+03  0.11944524281E+03  0.00000000000E+00 0. -1.
         11    1    1    2    0    0  0.40180267385E+02  0.27010768056E+02 -0.32180881778E+02  0.58134711060E+02  0.00000000000E+00 0.  1.
</event>
<event>
 7    1  0.5109948E-006  0.1468147E+03  0.7561462E-02  0.1204443E+00
          2   -1    0    0  501    0  0.00000000000E+00  0.00000000000E+00  0.70440269340E+03  0.70440269340E+03  0.00000000000E+00 0. -1.
         -2   -1    0    0    0  501 -0.00000000000E+00 -0.00000000000E+00 -0.32030515476E+02  0.32030515476E+02  0.00000000000E+00 0.  1.
         23    2    1    2    0    0  0.81380358770E+02  0.57797770427E+02  0.29895968325E+03  0.33909708446E+03  0.12508635185E+03 0.  0.
          5    1    3    3  502    0 -0.33114365922E+02  0.18853436671E+02  0.86036467566E+02  0.94190017815E+02  0.41800000000E+01 0. -1.
         -5    1    3    3    0  502  0.11449472469E+03  0.38944333756E+02  0.21292321569E+03  0.24490706664E+03  0.41800000000E+01 0. -1.
        -11    1    1    2    0    0 -0.30351225737E+02  0.23441756792E+02  0.81698672903E+02  0.90251792334E+02  0.00000000000E+00 0. -1.
         11    1    1    2    0    0 -0.51029133033E+02 -0.81239527219E+02  0.29171382176E+03  0.30708433208E+03  0.00000000000E+00 0.  1.
</event>
<event>
 7    1  0.5109948E-006  0.1561080E+03  0.7561462E-02  0.1193162E+00
          4   -1    0    0  501    0  0.00000000000E+00  0.00000000000E+00  0.35347783376E+03  0.35347783376E+03  0.00000000000E+00 0.  1.
         -4   -1    0    0    0  501 -0.00000000000E+00 -0.00000000000E+00 -0.73834639014E+02  0.73834639014E+02  0.00000000000E+00 0. -1.
         23    2    1    2    0    0  0.67342683328E+02 -0.96177928944E+02  0.10860144070E+03  0.20304638802E+03  0.12509329219E+03 0.  0.
          5    1    3    3  502    0 -0.31672238533E+02 -0.54867362552E+02  0.49347368741E+02  0.80412644334E+02  0.41800000000E+01 0. -1.
         -5    1    3    3    0  502  0.99014921861E+02 -0.41310566392E+02  0.59254071957E+02  0.12263374369E+03  0.41800000000E+01 0. -1.
        -11    1    1    2    0    0 -0.29681594082E+02  0.99228633948E+02  0.14573249895E+03  0.17878836672E+03  0.00000000000E+00 0.  1.
         11    1    1    2    0    0 -0.37661089246E+02 -0.30507050037E+01  0.25309255090E+02  0.45477718033E+02  0.00000000000E+00 0. -1.
</event>
<event>
 7    1  0.5109948E-006  0.1135465E+03  0.7561462E-02  0.1254140E+00
         -1   -1    0    0    0  501 -0.00000000000E+00  0.00000000000E+00  0.97289731822E+02  0.97289731822E+02  0.00000000000E+00 0.  1.
          1   -1    0    0  501    0  0.00000000000E+00 -0.00000000000E+00 -0.22767068524E+03  0.22767068524E+03  0.00000000000E+00 0. -1.
         23    2    1    2    0    0  0.18671662189E+02 -0.86635083649E+02 -0.17358495039E+02  0.15428130402E+03  0.12508850759E+03 0.  0.
          5    1    3    3  502    0 -0.34869578303E+01 -0.78212705059E+02 -0.64385901697E+02  0.10145148025E+03  0.41800000000E+01 0. -1.
         -5    1    3    3    0  502  0.22158620019E+02 -0.84223785902E+01  0.47027406658E+02  0.52829823767E+02  0.41800000000E+01 0. -1.
        -11    1    1    2    0    0 -0.44952497954E+01  0.10292630943E+03 -0.10636734588E+03  0.14808120986E+03  0.00000000000E+00 0. -1.
         11    1    1    2    0    0 -0.14176412393E+02 -0.16291225784E+02 -0.66551124955E+01  0.22597903182E+02  0.00000000000E+00 0.  1.
</event>
<event>
 7    1  0.5109948E-006  0.5161799E+02  0.7561462E-02  0.1436805E+00
         -2   -1    0    0    0  501 -0.00000000000E+00  0.00000000000E+00  0.62234162426E+03  0.62234162426E+03  0.00000000000E+00 0. -1.
          2   -1    0    0  501    0  0.00000000000E+00 -0.00000000000E+00 -0.25999172306E+02  0.25999172306E+02  0.00000000000E+00 0.  1.
         23    2    1    2    0    0  0.19415004247E+02 -0.18867505696E+02  0.47168949944E+03  0.48874416790E+03  0.12508777964E+03 0.  0.
          5    1    3    3  502    0  0.11976607919E+02  0.81616504629E+01  0.45618976735E+03  0.45643907361E+03  0.41800000000E+01 0.  1.
         -5    1    3    3    0  502  0.74383963284E+01 -0.27029156159E+02  0.15499732083E+02  0.32305094292E+02  0.41800000000E+01 0.  1.
        -11    1    1    2    0    0 -0.28262190434E+02  0.32804662355E+02  0.13386388587E+03  0.14069270493E+03  0.00000000000E+00 0. -1.
         11    1    1    2    0    0  0.88471861871E+01 -0.13937156660E+02 -0.92109333573E+01  0.18903923733E+02  0.00000000000E+00 0.  1.
</event>
<event>
 7    1  0.5109948E-006  0.1625080E+03  0.7561462E-02  0.1185894E+00
         -2   -1    0    0    0  501 -0.00000000000E+00  0.00000000000E+00  0.55509532343E+02  0.55509532343E+02  0.00000000000E+00 0.  1.
          2   -1    0    0  501    0  0.00000000000E+00 -0.00000000000E+00 -0.49203853384E+03  0.49203853384E+03  0.00000000000E+00 0. -1.
         23    2    1    2    0    0  0.43944888221E+02  0.11492916049E+03 -0.20882764395E+03  0.27275727589E+03  0.12509069327E+03 0.  0.
          5    1    3    3  502    0  0.13656511893E+02 -0.26332258195E+02 -0.25736078113E+02  0.39493116557E+02  0.41800000000E+01 0.  1.
         -5    1    3    3    0  502  0.30288376328E+02  0.14126141869E+03 -0.18309156584E+03  0.23326415934E+03  0.41800000000E+01 0.  1.
        -11    1    1    2    0    0  0.25769089862E+02 -0.19350014600E+02 -0.28057494321E+02  0.42728117732E+02  0.00000000000E+00 0. -1.
         11    1    1    2    0    0 -0.69713978083E+02 -0.95579145894E+02 -0.19964386322E+03  0.23206267255E+03  0.00000000000E+00 0.  1.
</event>
<event>
 7    1  0.5109948E-006  0.1290933E+03  0.7561462E-02  0.1228807E+00
          2   -1    0    0  501    0  0.00000000000E+00  0.00000000000E+00  0.82336369975E+02  0.82336369975E+02  0.00000000000E+00 0. -1.
         -2   -1    0    0    0  501 -0.00000000000E+00 -0.00000000000E+00 -0.33672671667E+03  0.33672671667E+03  0.00000000000E+00 0.  1.
         23    2    1    2    0    0  0.81186028370E+02  0.48893465120E+02 -0.23965037167E+03  0.28646342858E+03  0.12508898088E+03 0.  0.
          5    1    3    3  502    0  0.16052248543E+02 -0.29007549976E+02 -0.92924905114E+01  0.34683359393E+02  0.41800000000E+01 0. -1.
         -5    1    3    3    0  502  0.65133779827E+02  0.77901015096E+02 -0.23035788116E+03  0.25178006918E+03  0.41800000000E+01 0. -1.
        -11    1    1    2    0    0  0.15728637488E+02 -0.10437548448E+02 -0.20886877375E+02  0.28153047815E+02  0.00000000000E+00 0. -1.
         11    1    1    2    0    0 -0.96914665859E+02 -0.38455916672E+02  0.61469023431E+01  0.10444661026E+03  0.00000000000E+00 0.  1.
</event>
<event>
 7    1  0.5109948E-006  0.1351043E+03  0.7561462E-02  0.1220072E+00
         -2   -1    0    0    0  501 -0.00000000000E+00  0.00000000000E+00  0.50966591826E+03  0.50966591826E+03  0.00000000000E+00 0.  1.
          2   -1    0    0  501    0  0.00000000000E+00 -0.00000000000E+00 -0.46500828449E+02  0.46500828449E+02  0.00000000000E+00 0. -1.
         23    2    1    2    0    0 -0.98191302454E+02  0.14939402400E+01  0.33509017088E+03  0.37091290498E+03  0.12508875541E+03 0.  0.
          5    1    3    3  502    0 -0.62008189577E+02  0.53235640226E+02  0.11001592521E+03  0.13711318377E+03  0.41800000000E+01 0.  1.
         -5    1    3    3    0  502 -0.36183112877E+02 -0.51741699986E+02  0.22507424567E+03  0.23379972121E+03  0.41800000000E+01 0.  1.
        -11    1    1    2    0    0  0.23784627686E+02  0.34928111183E+02  0.77279136944E+02  0.88078070322E+02  0.00000000000E+00 0.  1.
         11    1    1    2    0    0  0.74406674769E+02 -0.36422051423E+02  0.50795781991E+02  0.97175771405E+02  0.00000000000E+00 0. -1.
</event>
<event>
 7    1  0.5109948E-006  0.1730274E+03  0.7561462E-02  0.1174727E+00
         -1   -1    0    0    0  501 -0.00000000000E+00  0.00000000000E+00  0.13675814866E+04  0.13675814866E+04  0.00000000000E+00 0.  1.
          1   -1    0    0  501    0  0.00000000000E+00 -0.00000000000E+00 -0.52634725162E+02  0.52634725162E+02  0.00000000000E+00 0. -1.
         23    2    1    2    0    0  0.97327162547E+02 -0.10845985788E+03  0.11969605489E+04  0.12122699519E+04  0.12509101949E+03 0.  0.
          5    1    3    3  502    0  0.77315356211E+01  0.25636625545E+02  0.10428576226E+03  0.10774973700E+03  0.41800000000E+01 0.  1.
         -5    1    3    3    0  502  0.89595626926E+02 -0.13409648342E+03  0.10926747867E+04  0.11045202149E+04  0.41800000000E+01 0.  1.
        -11    1    1    2    0    0 -0.14437092934E+02  0.59778789430E+02  0.87790387564E+02  0.10718715159E+03  0.00000000000E+00 0.  1.
         11    1    1    2    0    0 -0.82890069613E+02  0.48681068447E+02  0.30195824968E+02  0.10075910833E+03  0.00000000000E+00 0. -1.
</event>
<event>
 7    1  0.5109948E-006  0.7150140E+02  0.7561462E-02  0.1355061E+00
         -2   -1    0    0    0  501 -0.00000000000E+00  0.00000000000E+00  0.50433212092E+02  0.50433212092E+02  0.00000000000E+00 0.  1.
          2   -1    0    0  501    0  0.00000000000E+00 -0.00000000000E+00 -0.31291223148E+03  0.31291223148E+03  0.00000000000E+00 0. -1.
         23    2    1    2    0    0 -0.28870970749E+02 -0.55156283707E+02 -0.13355544391E+03  0.19328869895E+03  0.12509083084E+03 0.  0.
          5    1    3    3  502    0 -0.26806489167E+02 -0.39782536464E+01 -0.13893768957E+03  0.14161768373E+03  0.41800000000E+01 0. -1.
         -5    1    3    3    0  502 -0.20644815818E+01 -0.51178030061E+02  0.53822456602E+01  0.51671015216E+02  0.41800000000E+01 0. -1.
        -11    1    1    2    0    0  0.10383668972E+02  0.36417427655E+02 -0.13730478011E+03  0.14243121940E+03  0.00000000000E+00 0. -1.
         11    1    1    2    0    0  0.18487301777E+02  0.18738856052E+02  0.83812046255E+01  0.27625525227E+02  0.00000000000E+00 0.  1.
</event>
<event>
 7    1  0.5109948E-006  0.1302249E+03  0.7561462E-02  0.1227122E+00
          2   -1    0    0  501    0  0.00000000000E+00  0.00000000000E+00  0.32144327263E+03  0.32144327263E+03  0.00000000000E+00 0. -1.
         -2   -1    0    0    0  501 -0.00000000000E+00 -0.00000000000E+00 -0.72241143158E+02  0.72241143158E+02  0.00000000000E+00 0.  1.
         23    2    1    2    0    0 -0.28256536403E+02  0.77014571107E+02  0.47014555673E+02  0.15680457707E+03  0.12509049098E+03 0.  0.
          5    1    3    3  502    0  0.30215834749E+02  0.84975160830E+02  0.24999542628E+02  0.93681503827E+02  0.41800000000E+01 0.  1.
         -5    1    3    3    0  502 -0.58472371152E+02 -0.79605897231E+01  0.22015013045E+02  0.63123073248E+02  0.41800000000E+01 0.  1.
        -11    1    1    2    0    0  0.53505136522E+02 -0.42988948518E+02  0.17102603238E+03  0.18428443526E+03  0.00000000000E+00 0. -1.
         11    1    1    2    0    0 -0.25248600119E+02 -0.34025622589E+02  0.31161541420E+02  0.52595403451E+02  0.00000000000E+00 0.  1.
</event>
<event>
 7    1  0.5109948E-006  0.1262602E+03  0.7561462E-02  0.1233113E+00
          1   -1    0    0  501    0  0.00000000000E+00  0.00000000000E+00  0.90377169690E+02  0.90377169690E+02  0.00000000000E+00 0. -1.
         -1   -1    0    0    0  501 -0.00000000000E+00 -0.00000000000E+00 -0.32477384441E+03  0.32477384441E+03  0.00000000000E+00 0.  1.
         23    2    1    2    0    0 -0.18478061040E+02 -0.88757852593E+02 -0.24197138089E+03  0.28708261272E+03  0.12508749824E+03 0.  0.
          5    1    3    3  502    0 -0.70751409778E+02 -0.60504402998E+02 -0.16794079941E+03  0.19206282638E+03  0.41800000000E+01 0. -1.
         -5    1    3    3    0  502  0.52273348738E+02 -0.28253449595E+02 -0.74030581480E+02  0.95019786342E+02  0.41800000000E+01 0. -1.
        -11    1    1    2    0    0  0.29312771231E+02  0.81788470354E+02  0.38150324086E+02  0.94889618336E+02  0.00000000000E+00 0. -1.
         11    1    1    2    0    0 -0.10834710191E+02  0.69693822395E+01 -0.30575617915E+02  0.33178783049E+02  0.00000000000E+00 0.  1.
</event>
<event>
 7    1  0.5109948E-006  0.8918107E+02  0.7561462E-02  0.1304847E+00
         -1   -1    0    0    0  501 -0.00000000000E+00  0.00000000000E+00  0.32485220558E+02  0.32485220558E+02  0.00000000000E+00 0.  1.
          1   -1    0    0  501    0  0.00000000000E+00 -0.00000000000E+00 -0.39387311283E+03  0.39387311283E+03  0.00000000000E+00 0. -1.
         23    2    1    2    0    0  0.35624751501E+02  0.10577360791E+02 -0.12303605747E+03  0.16952641040E+03  0.11054559650E+03 0.  0.
          5    1    3    3  502    0  0.63565027230E+02 -0.26853843791E+02 -0.64773295718E+02  0.94734860803E+02  0.41800000000E+01 0. -1.
         -5    1    3    3    0  502 -0.27940275729E+02  0.37431204582E+02 -0.58262761749E+02  0.74791549596E+02  0.41800000000E+01 0.  1.
        -11    1    1    2    0    0 -0.30261876794E+02 -0.29744106554E+02 -0.23213419120E+03  0.23598045636E+03  0.00000000000E+00 0. -1.
         11    1    1    2    0    0 -0.53628747071E+01  0.19166745763E+02 -0.62176435990E+01  0.20851466620E+02  0.00000000000E+00 0.  1.
</event>
<event>
 7    1  0.5109948E-006  0.1069843E+03  0.7561462E-02  0.1266259E+00
          2   -1    0    0  501    0  0.00000000000E+00  0.00000000000E+00  0.56463762846E+03  0.56463762846E+03  0.00000000000E+00 0. -1.
         -2   -1    0    0    0  501 -0.00000000000E+00 -0.00000000000E+00 -0.21048961888E+02  0.21048961888E+02  0.00000000000E+00 0.  1.
         23    2    1    2    0    0  0.14955609219E+02 -0.28255806653E+01  0.28902311077E+03  0.31529876075E+03  0.12508915149E+03 0.  0.
          5    1    3    3  502    0  0.13535653142E+02 -0.63309982430E+02  0.16323720934E+03  0.17565655893E+03  0.41800000000E+01 0.  1.
         -5    1    3    3    0  502  0.14199560767E+01  0.60484401765E+02  0.12578590143E+03  0.13964220183E+03  0.41800000000E+01 0.  1.
        -11    1    1    2    0    0  0.34096469978E+02 -0.13614264023E+02  0.13907947928E+03  0.14384373121E+03  0.00000000000E+00 0. -1.
         11    1    1    2    0    0 -0.49052079197E+02  0.16439844688E+02  0.11548607652E+03  0.12654409839E+03  0.00000000000E+00 0.  1.
</event>
<event>
 7    1  0.5109948E-006  0.1237478E+03  0.7561462E-02  0.1237039E+00
         -2   -1    0    0    0  501 -0.00000000000E+00  0.00000000000E+00  0.47715770324E+02  0.47715770324E+02  0.00000000000E+00 0.  1.
          2   -1    0    0  501    0  0.00000000000E+00 -0.00000000000E+00 -0.39128781235E+03  0.39128781235E+03  0.00000000000E+00 0. -1.
         23    2    1    2    0    0 -0.34555191827E+02 -0.47121183801E+02 -0.10715004032E+03  0.17485991692E+03  0.12522137262E+03 0.  0.
          5    1    3    3  502    0  0.32045199791E+02  0.18132907281E+02 -0.59425036999E+02  0.70032168170E+02  0.41800000000E+01 0. -1.
         -5    1    3    3    0  502 -0.66600391618E+02 -0.65254091082E+02 -0.47725003316E+02  0.10482774875E+03  0.41800000000E+01 0.  1.
        -11    1    1    2    0    0 -0.25112602447E+02 -0.16370028496E+02 -0.48687590381E+02  0.57176062227E+02  0.00000000000E+00 0.  1.
         11    1    1    2    0    0  0.59667794274E+02  0.63491212297E+02 -0.18773441133E+03  0.20696760353E+03  0.00000000000E+00 0. -1.
</event>
<event>
 7    1  0.5109948E-006  0.1204996E+03  0.7561462E-02  0.1242275E+00
          3   -1    0    0  501    0  0.00000000000E+00  0.00000000000E+00  0.32179585417E+02  0.32179585417E+02  0.00000000000E+00 0. -1.
         -3   -1    0    0    0  501 -0.00000000000E+00 -0.00000000000E+00 -0.56691922833E+03  0.56691922833E+03  0.00000000000E+00 0.  1.
         23    2    1    2    0    0  0.37197210588E+02  0.57176261093E+02 -0.38388570621E+03  0.40947474371E+03  0.12509425646E+03 0.  0.
          5    1    3    3  502    0 -0.64287944660E+00 -0.32513993686E+02 -0.38307843837E+02  0.50423569676E+02  0.41800000000E+01 0.  1.
         -5    1    3    3    0  502  0.37840090035E+02  0.89690254779E+02 -0.34557786237E+03  0.35905117404E+03  0.41800000000E+01 0.  1.
        -11    1    1    2    0    0 -0.18529064833E+02  0.22382093569E+02 -0.64448656311E+02  0.70695923902E+02  0.00000000000E+00 0.  1.
         11    1    1    2    0    0 -0.18668145755E+02 -0.79558354662E+02 -0.86405280395E+02  0.11892814613E+03  0.00000000000E+00 0. -1.
</event>
<event>
 7    1  0.5109948E-006  0.1742993E+03  0.7561462E-02  0.1173437E+00
          3   -1    0    0  501    0  0.00000000000E+00  0.00000000000E+00  0.28707664391E+03  0.28707664391E+03  0.00000000000E+00 0. -1.
         -3   -1    0    0    0  501 -0.00000000000E+00 -0.00000000000E+00 -0.14250889691E+03  0.14250889691E+03  0.00000000000E+00 0.  1.
         23    2    1    2    0    0 -0.15224936939E+03  0.26655664148E+01 -0.62275054408E+01  0.19716603463E+03  0.12509471478E+03 0.  0.
          5    1    3    3  502    0 -0.72417907637E+02  0.46568203096E+02 -0.45956742231E+02  0.97685441303E+02  0.41800000000E+01 0. -1.
         -5    1    3    3    0  502 -0.79831461753E+02 -0.43902636681E+02  0.39729236790E+02  0.99480593330E+02  0.41800000000E+01 0. -1.
        -11    1    1    2    0    0  0.61797058007E+02  0.37436861048E+02  0.35541752950E+02  0.80520873978E+02  0.00000000000E+00 0.  1.
         11    1    1    2    0    0  0.90452311383E+02 -0.40102427463E+02  0.11525349949E+03  0.15189863221E+03  0.00000000000E+00 0. -1.
</event>
<event>
 7    1  0.5109948E-006  0.9635160E+02  0.7561462E-02  0.1288161E+00
          2   -1    0    0  501    0  0.00000000000E+00  0.00000000000E+00  0.48359421467E+03  0.48359421467E+03  0.00000000000E+00 0. -1.
         -2   -1    0    0    0  501 -0.00000000000E+00 -0.00000000000E+00 -0.39730029055E+02  0.39730029055E+02  0.00000000000E+00 0.  1.
         23    2    1    2    0    0  0.27988918131E+02 -0.80793318720E+02  0.23679837780E+03  0.28112524934E+03  0.12508794586E+03 0.  0.
          5    1    3    3  502    0 -0.70516731214E+01  0.49672538707E+01 -0.12143708174E+02  0.15470673969E+02  0.41800000000E+01 0. -1.
         -5    1    3    3    0  502  0.35040591253E+02 -0.85760572591E+02  0.24894208598E+03  0.26565457538E+03  0.41800000000E+01 0. -1.
        -11    1    1    2    0    0 -0.24728784094E+02  0.27481260839E+02  0.10392855671E+02  0.38402394575E+02  0.00000000000E+00 0.  1.
         11    1    1    2    0    0 -0.32601340366E+01  0.53312057881E+02  0.19667295214E+03  0.20379659980E+03  0.00000000000E+00 0. -1.
</event>
<event>
 7    1  0.5109948E-006  0.1215556E+03  0.7561462E-02  0.1240553E+00
         -1   -1    0    0    0  501 -0.00000000000E+00  0.00000000000E+00  0.16436492940E+02  0.16436492940E+02  0.00000000000E+00 0.  1.
          1   -1    0    0  501    0  0.00000000000E+00 -0.00000000000E+00 -0.13055520678E+04  0.13055520678E+04  0.00000000000E+00 0. -1.
         23    2    1    2    0    0  0.76600521033E+02  0.29344862452E+02 -0.93187256158E+03  0.94380793634E+03  0.12513268520E+03 0.  0.
          5    1    3    3  502    0  0.84940163050E+02 -0.24092294144E+02 -0.70606776553E+03  0.71157883038E+03  0.41800000000E+01 0. -1.
         -5    1    3    3    0  502 -0.83396420172E+01  0.53437156596E+02 -0.22580479605E+03  0.23222910596E+03  0.41800000000E+01 0. -1.
        -11    1    1    2    0    0 -0.33341281425E+02  0.16706825562E+02 -0.39923615797E+02  0.54631988485E+02  0.00000000000E+00 0.  1.
         11    1    1    2    0    0 -0.43259239607E+02 -0.46051688014E+02 -0.31731939746E+03  0.32354863588E+03  0.00000000000E+00 0. -1.
</event>
<event>
 7    1  0.5109948E-006  0.9079354E+02  0.7561462E-02  0.1300941E+00
          2   -1    0    0  501    0  0.00000000000E+00  0.00000000000E+00  0.68618700898E+02  0.68618700898E+02  0.00000000000E+00 0. -1.
         -2   -1    0    0    0  501 -0.00000000000E+00 -0.00000000000E+00 -0.17201697219E+03  0.17201697219E+03  0.00000000000E+00 0.  1.
         23    2    1    2    0    0  0.60740432261E+01 -0.27847080344E+01 -0.73312329969E+02  0.14514510854E+03  0.12509099171E+03 0.  0.
          5    1    3    3  502    0 -0.39790512238E+02  0.41592525779E+02 -0.52136127421E+02  0.77774489695E+02  0.41800000000E+01 0.  1.
         -5    1    3    3    0  502  0.45864555464E+02 -0.44377233814E+02 -0.21176202549E+02  0.67370618843E+02  0.41800000000E+01 0.  1.
        -11    1    1    2    0    0 -0.14423063297E+02 -0.26117288269E+02  0.20804897353E+02  0.36372809285E+02  0.00000000000E+00 0. -1.
         11    1    1    2    0    0  0.83490200713E+01  0.28901996304E+02 -0.50890838674E+02  0.59117755264E+02  0.00000000000E+00 0.  1.
</event>
<event>
 7    1  0.5109948E-006  0.7977835E+02  0.7561462E-02  0.1329682E+00
          2   -1    0    0  501    0  0.00000000000E+00  0.00000000000E+00  0.22651728352E+03  0.22651728352E+03  0.00000000000E+00 0. -1.
         -2   -1    0    0    0  501 -0.00000000000E+00 -0.00000000000E+00 -0.55404002423E+02  0.55404002423E+02  0.00000000000E+00 0.  1.
         23    2    1    2    0    0 -0.17714832907E+02 -0.11928629365E+02  0.81927083161E+02  0.15105211446E+03  0.12509431171E+03 0.  0.
          5    1    3    3  502    0  0.40266244266E+02 -0.33042113766E+02  0.71142825873E+02  0.88271885573E+02  0.41800000000E+01 0. -1.
         -5    1    3    3    0  502 -0.57981077172E+02  0.21113484401E+02  0.10784257288E+02  0.62780228885E+02  0.41800000000E+01 0. -1.
        -11    1    1    2    0    0 -0.13069932041E+02  0.31997082460E+01 -0.16010205082E+02  0.20913821344E+02  0.00000000000E+00 0.  1.
         11    1    1    2    0    0  0.30784764948E+02  0.87289211190E+01  0.10519640302E+03  0.10995535014E+03  0.00000000000E+00 0. -1.
</event>
<event>
 7    1  0.5109948E-006  0.8993959E+02  0.7561462E-02  0.1302998E+00
         -1   -1    0    0    0  501 -0.00000000000E+00  0.00000000000E+00  0.32466798016E+02  0.32466798016E+02  0.00000000000E+00 0.  1.
          1   -1    0    0  501    0  0.00000000000E+00 -0.00000000000E+00 -0.58191540959E+03  0.58191540959E+03  0.00000000000E+00 0. -1.
         23    2    1    2    0    0 -0.44423171540E+02  0.29323165520E+02 -0.15199701130E+03  0.20392081882E+03  0.12508933886E+03 0.  0.
          5    1    3    3  502    0 -0.56214826122E+02  0.37663213783E+02 -0.19457922420E+02  0.70531606343E+02  0.41800000000E+01 0. -1.
         -5    1    3    3    0  502  0.11791654582E+02 -0.83400482640E+01 -0.13253908888E+03  0.13338921248E+03  0.41800000000E+01 0. -1.
        -11    1    1    2    0    0  0.61867968939E+02 -0.42608979972E+02 -0.35288687540E+03  0.36079400991E+03  0.00000000000E+00 0. -1.
         11    1    1    2    0    0 -0.17444797399E+02  0.13285814453E+02 -0.44564724866E+02  0.49667378875E+02  0.00000000000E+00 0.  1.
</event>
<event>
 7    1  0.5109948E-006  0.1428179E+03  0.7561462E-02  0.1209587E+00
         -2   -1    0    0    0  501 -0.00000000000E+00  0.00000000000E+00  0.35245139539E+02  0.35245139539E+02  0.00000000000E+00 0. -1.
          2   -1    0    0  501    0  0.00000000000E+00 -0.00000000000E+00 -0.65517630422E+03  0.65517630422E+03  0.00000000000E+00 0.  1.
         23    2    1    2    0    0  0.71405031680E+02 -0.61775156254E+02 -0.22357348467E+03  0.27303207388E+03  0.12508621762E+03 0.  0.
          5    1    3    3  502    0 -0.29738176961E+02  0.90834077252E+01 -0.63373710234E+02  0.70714687397E+02  0.41800000000E+01 0. -1.
         -5    1    3    3    0  502  0.10114320864E+03 -0.70858563979E+02 -0.16019977444E+03  0.20231738649E+03  0.41800000000E+01 0. -1.
        -11    1    1    2    0    0  0.18860941095E+02  0.29141367652E+02 -0.11353901205E+03  0.11872683633E+03  0.00000000000E+00 0.  1.
         11    1    1    2    0    0 -0.90265972774E+02  0.32633788602E+02 -0.28281866796E+03  0.29866253355E+03  0.00000000000E+00 0. -1.
</event>
<event>
 7    1  0.5109948E-006  0.1146331E+03  0.7561462E-02  0.1252223E+00
          1   -1    0    0  501    0  0.00000000000E+00  0.00000000000E+00  0.20697539532E+03  0.20697539532E+03  0.00000000000E+00 0. -1.
         -1   -1    0    0    0  501 -0.00000000000E+00 -0.00000000000E+00 -0.95805879235E+02  0.95805879235E+02  0.00000000000E+00 0.  1.
         23    2    1    2    0    0  0.83492380213E+01  0.87353777171E+02  0.39575666831E+02  0.15784105604E+03  0.12508866217E+03 0.  0.
          5    1    3    3  502    0 -0.24238247687E+02  0.48146360577E+02  0.77265300307E+02  0.94302511733E+02  0.41800000000E+01 0. -1.
         -5    1    3    3    0  502  0.32587485708E+02  0.39207416594E+02 -0.37689633475E+02  0.63538544304E+02  0.41800000000E+01 0. -1.
        -11    1    1    2    0    0 -0.43823773891E+02 -0.20535553224E+02  0.15696627651E+02  0.50878445572E+02  0.00000000000E+00 0. -1.
         11    1    1    2    0    0  0.35474535870E+02 -0.66818223947E+02  0.55897221599E+02  0.94061772943E+02  0.00000000000E+00 0.  1.
</event>
<event>
 7    1  0.5109948E-006  0.7736895E+02  0.7561462E-02  0.1336688E+00
          1   -1    0    0  501    0  0.00000000000E+00  0.00000000000E+00  0.38443453074E+03  0.38443453074E+03  0.00000000000E+00 0. -1.
         -1   -1    0    0    0  501 -0.00000000000E+00 -0.00000000000E+00 -0.25437853580E+02  0.25437853580E+02  0.00000000000E+00 0.  1.
         23    2    1    2    0    0 -0.10288619343E+02 -0.67971609191E+01  0.24076922896E+03  0.27160547459E+03  0.12509058769E+03 0.  0.
          5    1    3    3  502    0  0.39071220430E+02  0.66505469750E+01  0.19327100042E+02  0.44292202892E+02  0.41800000000E+01 0.  1.
         -5    1    3    3    0  502 -0.49359839773E+02 -0.13447707894E+02  0.22144212892E+03  0.22731327170E+03  0.41800000000E+01 0.  1.
        -11    1    1    2    0    0  0.26197962595E+02 -0.19611244548E+02  0.28517768274E+02  0.43407341133E+02  0.00000000000E+00 0. -1.
         11    1    1    2    0    0 -0.15909343252E+02  0.26408405467E+02  0.89709679917E+02  0.94859568589E+02  0.00000000000E+00 0.  1.
</event>
<event>
 7    1  0.5109948E-006  0.1207702E+03  0.7561462E-02  0.1241832E+00
         -1   -1    0    0    0  501 -0.00000000000E+00  0.00000000000E+00  0.49610153244E+02  0.49610153244E+02  0.00000000000E+00 0.  1.
          1   -1    0    0  501    0  0.00000000000E+00 -0.00000000000E+00 -0.35740526387E+03  0.35740526387E+03  0.00000000000E+00 0. -1.
         23    2    1    2    0    0  0.59638006727E+02 -0.46975814591E+02 -0.14576215498E+03  0.20653449405E+03  0.12508586014E+03 0.  0.
          5    1    3    3  502    0 -0.37177006147E+02 -0.24876697492E+02 -0.30326708414E+02  0.54204810740E+02  0.41800000000E+01 0.  1.
         -5    1    3    3    0  502  0.96815012874E+02 -0.22099117099E+02 -0.11543544657E+03  0.15232968331E+03  0.41800000000E+01 0.  1.
        -11    1    1    2    0    0 -0.42038846305E+02 -0.50096811801E+01 -0.17377971125E+02  0.45764127705E+02  0.00000000000E+00 0.  1.
         11    1    1    2    0    0 -0.17599160422E+02  0.51985495771E+02 -0.14465498452E+03  0.15471679536E+03  0.00000000000E+00 0. -1.
</event>
<event>
 7    1  0.5109948E-006  0.9018978E+02  0.7561462E-02  0.1302393E+00
          2   -1    0    0  501    0  0.00000000000E+00  0.00000000000E+00  0.56068198274E+03  0.56068198274E+03  0.00000000000E+00 0. -1.
         -2   -1    0    0    0  501 -0.00000000000E+00 -0.00000000000E+00 -0.22453191503E+02  0.22453191503E+02  0.00000000000E+00 0.  1.
         23    2    1    2    0    0 -0.12352165733E+02 -0.20622275871E+02  0.27160549350E+03  0.29999111635E+03  0.12508905440E+03 0.  0.
          5    1    3    3  502    0 -0.43095941024E+02  0.32905151336E+02  0.67316631884E+02  0.86539068896E+02  0.41800000000E+01 0.  1.
         -5    1    3    3    0  502  0.30743775290E+02 -0.53527427207E+02  0.20428886161E+03  0.21345204745E+03  0.41800000000E+01 0.  1.
        -11    1    1    2    0    0 -0.15151043429E+02 -0.13505479891E+02  0.96757274662E+01  0.22484923973E+02  0.00000000000E+00 0.  1.
         11    1    1    2    0    0  0.27503209162E+02  0.34127755762E+02  0.25694757027E+03  0.26065913392E+03  0.00000000000E+00 0. -1.
</event>
<event>
 7    1  0.5109948E-006  0.9172704E+02  0.7561462E-02  0.1298723E+00
         -1   -1    0    0    0  501 -0.00000000000E+00  0.00000000000E+00  0.65953232542E+02  0.65953232542E+02  0.00000000000E+00 0.  1.
          1   -1    0    0  501    0  0.00000000000E+00 -0.00000000000E+00 -0.24410045825E+03  0.24410045825E+03  0.00000000000E+00 0. -1.
         23    2    1    2    0    0  0.10481683842E+02 -0.51336121420E+02 -0.49429808083E+02  0.14434649649E+03  0.12508933633E+03 0.  0.
          5    1    3    3  502    0 -0.30786178818E+02 -0.41628781178E+02 -0.77523406630E+02  0.93317175290E+02  0.41800000000E+01 0.  1.
         -5    1    3    3    0  502  0.41267862660E+02 -0.97073402416E+01  0.28093598547E+02  0.51029321202E+02  0.41800000000E+01 0.  1.
        -11    1    1    2    0    0 -0.39129049547E+02  0.44883176591E+02 -0.38687313235E+02  0.71009085790E+02  0.00000000000E+00 0.  1.
         11    1    1    2    0    0  0.28647365705E+02  0.64529448285E+01 -0.90030104392E+02  0.94698108512E+02  0.00000000000E+00 0. -1.
</event>
<event>
 6    1  0.5109948E-006  0.1543243E+03  0.7561462E-02  0.1195258E+00
         -2   -1    0    0    0  501 -0.00000000000E+00  0.00000000000E+00  0.90026952022E+02  0.90026952022E+02  0.00000000000E+00 0.  1.
          2   -1    0    0  501    0  0.00000000000E+00 -0.00000000000E+00 -0.85074975480E+03  0.85074975480E+03  0.00000000000E+00 0. -1.
          5    1    1    2  502    0  0.18867600201E+02  0.35010443648E+02  0.14234660165E+02  0.42447796783E+02  0.41800000000E+01 0. -1.
         -5    1    1    2    0  502  0.57387403650E+02 -0.11303671686E+03 -0.17895573848E+02  0.12809503277E+03  0.41800000000E+01 0.  1.
        -11    1    1    2    0    0 -0.18792877078E+02  0.82090512711E+02 -0.44378035788E+03  0.45170015557E+03  0.00000000000E+00 0. -1.
         11    1    1    2    0    0 -0.57462126773E+02 -0.40642394949E+01 -0.31328153122E+03  0.31853372169E+03  0.00000000000E+00 0.  1.
</event>
<event>
 7    1  0.1154607E-005  0.1627251E+03  0.7561462E-02  0.1185654E+00
         -2   -1    0    0    0  501 -0.00000000000E+00  0.00000000000E+00  0.47564413105E+02  0.47564413105E+02  0.00000000000E+00 0. -1.
          2   -1    0    0  501    0  0.00000000000E+00 -0.00000000000E+00 -0.68469352370E+03  0.68469352370E+03  0.00000000000E+00 0.  1.
         23    2    1    2    0    0  0.54549614032E+02 -0.13119906936E+03 -0.28929980844E+03  0.34573211420E+03  0.12508980547E+03 0.  0.
          5    1    3    3  502    0 -0.25660493047E+02 -0.79224297229E+02 -0.79764088541E+02  0.11538948130E+03  0.41800000000E+01 0. -1.
         -5    1    3    3    0  502  0.80210107079E+02 -0.51974772131E+02 -0.20953571989E+03  0.23034263289E+03  0.41800000000E+01 0. -1.
        -11    1    1    2    0    0 -0.59838381904E+01  0.59506188779E+02 -0.55320854218E+02  0.81468949508E+02  0.00000000000E+00 0. -1.
         11    1    1    2    0    0 -0.48565775841E+02  0.71692880582E+02 -0.29250844794E+03  0.30505687310E+03  0.00000000000E+00 0.  1.
</event>
<event>
 7    1  0.5109948E-006  0.1977063E+03  0.7561462E-02  0.1151689E+00
         -1   -1    0    0    0  501 -0.00000000000E+00  0.00000000000E+00  0.73407373785E+02  0.73407373785E+02  0.00000000000E+00 0.  1.
          1   -1    0    0  501    0  0.00000000000E+00 -0.00000000000E+00 -0.60580324266E+03  0.60580324266E+03  0.00000000000E+00 0. -1.
         23    2    1    2    0    0 -0.15517173721E+03 -0.72404704722E+02 -0.18708619539E+03  0.28278899993E+03  0.12509062588E+03 0.  0.
          5    1    3    3  502    0 -0.46618200037E+01 -0.53803713944E+02 -0.81851181177E+02  0.98151212219E+02  0.41800000000E+01 0.  1.
         -5    1    3    3    0  502 -0.15050991720E+03 -0.18600990778E+02 -0.10523501421E+03  0.18463778771E+03  0.41800000000E+01 0.  1.
        -11    1    1    2    0    0 -0.70050954157E+01  0.16610610427E+02 -0.12243335253E+02  0.21791810357E+02  0.00000000000E+00 0. -1.
         11    1    1    2    0    0  0.16217683262E+03  0.55794094295E+02 -0.33306633824E+03  0.37462980616E+03  0.00000000000E+00 0.  1.
</event>
<event>
 7    1  0.5109948E-006  0.9409287E+02  0.7561462E-02  0.1293232E+00
         -2   -1    0    0    0  501 -0.00000000000E+00  0.00000000000E+00  0.24197523109E+03  0.24197523109E+03  0.00000000000E+00 0.  1.
          2   -1    0    0  501    0  0.00000000000E+00 -0.00000000000E+00 -0.69990396044E+02  0.69990396044E+02  0.00000000000E+00 0. -1.
         23    2    1    2    0    0 -0.42268582539E+02 -0.51093830116E+02  0.13040924733E+03  0.19248976013E+03  0.12509405830E+03 0.  0.
          5    1    3    3  502    0 -0.11857752777E+02 -0.49164641625E+02  0.14841400984E+03  0.15685011636E+03  0.41800000000E+01 0.  1.
         -5    1    3    3    0  502 -0.30410829762E+02 -0.19291884915E+01 -0.18004762507E+02  0.35639643769E+02  0.41800000000E+01 0.  1.
        -11    1    1    2    0    0  0.38656850913E+02 -0.14278511873E+02  0.34270547559E+02  0.53597560148E+02  0.00000000000E+00 0.  1.
         11    1    1    2    0    0  0.36117316255E+01  0.65372341989E+02  0.73050401585E+01  0.65878306856E+02  0.00000000000E+00 0. -1.
</event>
<event>
 7    1  0.5109948E-006  0.1223716E+03  0.7561462E-02  0.1239235E+00
         -1   -1    0    0    0  501 -0.00000000000E+00  0.00000000000E+00  0.63120610741E+02  0.63120610741E+02  0.00000000000E+00 0.  1.
          1   -1    0    0  501    0  0.00000000000E+00 -0.00000000000E+00 -0.35757091638E+03  0.35757091638E+03  0.00000000000E+00 0. -1.
         23    2    1    2    0    0  0.76166571933E+02  0.69600642314E+01 -0.62538159268E+02  0.15939634333E+03  0.12508550567E+03 0.  0.
          5    1    3    3  502    0  0.10904667797E+03 -0.92932040912E+01 -0.43318245579E+02  0.11777726614E+03  0.41800000000E+01 0. -1.
         -5    1    3    3    0  502 -0.32880106038E+02  0.16253268323E+02 -0.19219913689E+02  0.41619077194E+02  0.41800000000E+01 0. -1.
        -11    1    1    2    0    0 -0.36335062116E+02 -0.34321633592E+02 -0.41859922845E+02  0.65195585832E+02  0.00000000000E+00 0.  1.
         11    1    1    2    0    0 -0.39831509817E+02  0.27361569361E+02 -0.19005222352E+03  0.19609959796E+03  0.00000000000E+00 0. -1.
</event>
<event>
 7    1  0.5109948E-006  0.1035710E+03  0.7561462E-02  0.1272961E+00
         -2   -1    0    0    0  501 -0.00000000000E+00  0.00000000000E+00  0.91121856176E+02  0.91121856176E+02  0.00000000000E+00 0.  1.
          2   -1    0    0  501    0  0.00000000000E+00 -0.00000000000E+00 -0.16346228897E+03  0.16346228897E+03  0.00000000000E+00 0. -1.
         23    2    1    2    0    0  0.32695703154E+02 -0.38769118510E+02 -0.48826490377E+02  0.14353952746E+03  0.12509003248E+03 0.  0.
          5    1    3    3  502    0 -0.43863348410E+02 -0.36612407375E+02 -0.12348465601E+02  0.58603913779E+02  0.41800000000E+01 0. -1.
         -5    1    3    3    0  502  0.76559051564E+02 -0.21567111348E+01 -0.36478024776E+02  0.84935613678E+02  0.41800000000E+01 0. -1.
        -11    1    1    2    0    0  0.28205502963E+01  0.37505750923E+02  0.29098610787E+02  0.47553822202E+02  0.00000000000E+00 0.  1.
         11    1    1    2    0    0 -0.35516253450E+02  0.12633675871E+01 -0.52612553209E+02  0.63490795490E+02  0.00000000000E+00 0. -1.
</event>
<event>
 7    1  0.5109948E-006  0.1372159E+03  0.7561462E-02  0.1217125E+00
          4   -1    0    0  501    0  0.00000000000E+00  0.00000000000E+00  0.28195837481E+03  0.28195837481E+03  0.00000000000E+00 0. -1.
         -4   -1    0    0    0  501 -0.00000000000E+00 -0.00000000000E+00 -0.92689029279E+02  0.92689029279E+02  0.00000000000E+00 0.  1.
         23    2    1    2    0    0 -0.10292839487E+03 -0.59754642079E+02  0.85915741580E+02  0.19285911398E+03  0.12509297131E+03 0.  0.
          5    1    3    3  502    0  0.94679651836E+01  0.91864971686E+01 -0.19556616891E+02  0.23957624239E+02  0.41800000000E+01 0.  1.
         -5    1    3    3    0  502 -0.11239636006E+03 -0.68941139248E+02  0.10547235847E+03  0.16890148974E+03  0.41800000000E+01 0.  1.
        -11    1    1    2    0    0  0.41623067764E+02  0.52410621637E+02  0.99512404586E+02  0.11992527547E+03  0.00000000000E+00 0. -1.
         11    1    1    2    0    0  0.61305327108E+02  0.73440204423E+01  0.38411993676E+01  0.61863014643E+02  0.00000000000E+00 0.  1.
</event>
<event>
 7    1  0.5109948E-006  0.2101793E+03  0.7561462E-02  0.1141424E+00
          1   -1    0    0  501    0  0.00000000000E+00  0.00000000000E+00  0.83735510169E+03  0.83735510169E+03  0.00000000000E+00 0. -1.
         -1   -1    0    0    0  501 -0.00000000000E+00 -0.00000000000E+00 -0.68316473502E+02  0.68316473502E+02  0.00000000000E+00 0.  1.
         23    2    1    2    0    0  0.19643701254E+03  0.91393128396E+01  0.24356639056E+03  0.33711032897E+03  0.12509100828E+03 0.  0.
          5    1    3    3  502    0  0.12756468081E+03  0.32227207781E+02  0.70405082803E+02  0.14928392009E+03  0.41800000000E+01 0. -1.
         -5    1    3    3    0  502  0.68872331733E+02 -0.23087894942E+02  0.17316130776E+03  0.18782640889E+03  0.41800000000E+01 0. -1.
        -11    1    1    2    0    0 -0.61202958808E+02 -0.45101855510E+02  0.21384966371E+03  0.22696179900E+03  0.00000000000E+00 0.  1.
         11    1    1    2    0    0 -0.13523405373E+03  0.35962542671E+02  0.31162257392E+03  0.34159944722E+03  0.00000000000E+00 0. -1.
</event>
<event>
 6    1  0.5109948E-006  0.1387300E+03  0.7561462E-02  0.1215048E+00
          1   -1    0    0  501    0  0.00000000000E+00  0.00000000000E+00  0.24775863304E+03  0.24775863304E+03  0.00000000000E+00 0. -1.
         -1   -1    0    0    0  501 -0.00000000000E+00 -0.00000000000E+00 -0.10740232257E+03  0.10740232257E+03  0.00000000000E+00 0.  1.
          5    1    1    2  502    0 -0.81238229399E+02  0.78401996088E+02  0.56018938228E+02  0.12610359530E+03  0.41800000000E+01 0. -1.
         -5    1    1    2    0  502 -0.24615008974E+02 -0.45920329340E+02 -0.15469468618E+02  0.54510110739E+02  0.41800000000E+01 0.  1.
        -11    1    1    2    0    0  0.23099481549E+02  0.56161385396E+00  0.79993911084E+02  0.83264201603E+02  0.00000000000E+00 0.  1.
         11    1    1    2    0    0  0.82753756823E+02 -0.33043280602E+02  0.19812929776E+02  0.91283047975E+02  0.00000000000E+00 0. -1.
</event>
<event>
 7    1  0.5109948E-006  0.1060542E+03  0.7561462E-02  0.1268056E+00
          4   -1    0    0  501    0  0.00000000000E+00  0.00000000000E+00  0.31474839405E+03  0.31474839405E+03  0.00000000000E+00 0. -1.
         -4   -1    0    0    0  501 -0.00000000000E+00 -0.00000000000E+00 -0.83170112139E+02  0.83170112139E+02  0.00000000000E+00 0.  1.
         23    2    1    2    0    0  0.21894086020E+02 -0.76650736640E+02  0.12954790535E+02  0.14889594983E+03  0.12508993104E+03 0.  0.
          5    1    3    3  502    0  0.35897452959E+02 -0.31030587490E+02 -0.50479485852E+02  0.69405874253E+02  0.41800000000E+01 0. -1.
         -5    1    3    3    0  502 -0.14003366940E+02 -0.45620149150E+02  0.63434276387E+02  0.79490075574E+02  0.41800000000E+01 0. -1.
        -11    1    1    2    0    0 -0.81591624947E+01 -0.18612517158E+02  0.61421602186E+02  0.64696297751E+02  0.00000000000E+00 0. -1.
         11    1    1    2    0    0 -0.13734923525E+02  0.95263253798E+02  0.15720188919E+03  0.18432625861E+03  0.00000000000E+00 0.  1.
</event>
<event>
 7    1  0.5109948E-006  0.8368151E+02  0.7561462E-02  0.1318917E+00
          1   -1    0    0  501    0  0.00000000000E+00  0.00000000000E+00  0.88567936768E+02  0.88567936768E+02  0.00000000000E+00 0. -1.
         -1   -1    0    0    0  501 -0.00000000000E+00 -0.00000000000E+00 -0.16557819971E+03  0.16557819971E+03  0.00000000000E+00 0.  1.
         23    2    1    2    0    0  0.36338473522E+02 -0.35774933080E+01 -0.83403944011E+02  0.15471729977E+03  0.12509173376E+03 0.  0.
          5    1    3    3  502    0  0.58124779858E+02 -0.15425351269E+02  0.71791049460E+01  0.60707853224E+02  0.41800000000E+01 0. -1.
         -5    1    3    3    0  502 -0.21786306336E+02  0.11847857961E+02 -0.90583048957E+02  0.94009446548E+02  0.41800000000E+01 0. -1.
        -11    1    1    2    0    0 -0.20323845515E+02 -0.34826240476E+02 -0.24876928561E+02  0.47379186325E+02  0.00000000000E+00 0.  1.
         11    1    1    2    0    0 -0.16014628007E+02  0.38403733784E+02  0.31270609626E+02  0.52049650384E+02  0.00000000000E+00 0. -1.
</event>
<event>
 7    1  0.5109948E-006  0.1244835E+03  0.7561462E-02  0.1235879E+00
          1   -1    0    0  501    0  0.00000000000E+00  0.00000000000E+00  0.10788336517E+02  0.10788336517E+02  0.00000000000E+00 0. -1.
         -1   -1    0    0    0  501 -0.00000000000E+00 -0.00000000000E+00 -0.15759472563E+04  0.15759472563E+04  0.00000000000E+00 0.  1.
         23    2    1    2    0    0  0.58276085727E+02  0.23936707985E+02 -0.10901335132E+04  0.10990940569E+04  0.12509037154E+03 0.  0.
          5    1    3    3  502    0 -0.37992166063E+02  0.18090937124E+02 -0.26862776828E+03  0.27193572214E+03  0.41800000000E+01 0. -1.
         -5    1    3    3    0  502  0.96268251790E+02  0.58457708615E+01 -0.82150574493E+03  0.82715833472E+03  0.41800000000E+01 0. -1.
        -11    1    1    2    0    0  0.25202622663E+01 -0.45550466653E+02 -0.20477051953E+03  0.20979075863E+03  0.00000000000E+00 0.  1.
         11    1    1    2    0    0 -0.60796347993E+02  0.21613758668E+02 -0.27025488700E+03  0.27785077729E+03  0.00000000000E+00 0. -1.
</event>
<event>
 7    1  0.5109948E-006  0.1202587E+03  0.7561462E-02  0.1242671E+00
         -1   -1    0    0    0  501 -0.00000000000E+00  0.00000000000E+00  0.18759460050E+02  0.18759460050E+02  0.00000000000E+00 0.  1.
          1   -1    0    0  501    0  0.00000000000E+00 -0.00000000000E+00 -0.88089212917E+03  0.88089212917E+03  0.00000000000E+00 0. -1.
         23    2    1    2    0    0 -0.63600586182E+02 -0.27852638515E+02 -0.48634975184E+03  0.50695547507E+03  0.12508784334E+03 0.  0.
          5    1    3    3  502    0  0.93798869150E+01  0.31577816832E+02 -0.46557849857E+02  0.57186069788E+02  0.41800000000E+01 0.  1.
         -5    1    3    3    0  502 -0.72980473097E+02 -0.59430455347E+02 -0.43979190198E+03  0.44976940528E+03  0.41800000000E+01 0.  1.
        -11    1    1    2    0    0  0.22021271186E+02 -0.32835285291E+02 -0.10868845936E+03  0.11565584094E+03  0.00000000000E+00 0. -1.
         11    1    1    2    0    0  0.41579314996E+02  0.60687923806E+02 -0.26709445791E+03  0.27704027321E+03  0.00000000000E+00 0.  1.
</event>
<event>
 7    1  0.5109948E-006  0.8936996E+02  0.7561462E-02  0.1304385E+00
         -2   -1    0    0    0  501 -0.00000000000E+00  0.00000000000E+00  0.72639487227E+02  0.72639487227E+02  0.00000000000E+00 0. -1.
          2   -1    0    0  501    0  0.00000000000E+00 -0.00000000000E+00 -0.20115753569E+03  0.20115753569E+03  0.00000000000E+00 0.  1.
         23    2    1    2    0    0 -0.16397175504E+02  0.40161650158E+02 -0.42809943474E+02  0.13914856573E+03  0.12509119304E+03 0.  0.
          5    1    3    3  502    0 -0.36731509553E+02  0.10034370810E+02  0.35806568844E+02  0.52435438055E+02  0.41800000000E+01 0. -1.
         -5    1    3    3    0  502  0.20334334049E+02  0.30127279348E+02 -0.78616512318E+02  0.86713127675E+02  0.41800000000E+01 0. -1.
        -11    1    1    2    0    0 -0.11669424761E+02  0.27890848364E+02 -0.25211645453E+02  0.39366254116E+02  0.00000000000E+00 0.  1.
         11    1    1    2    0    0  0.28066600265E+02 -0.68052498521E+02 -0.60496459532E+02  0.95282203067E+02  0.00000000000E+00 0. -1.
</event>
<event>
 7    1  0.5109948E-006  0.9881683E+02  0.7561462E-02  0.1282804E+00
         -1   -1    0    0    0  501 -0.00000000000E+00  0.00000000000E+00  0.28730242956E+02  0.28730242956E+02  0.00000000000E+00 0.  1.
          1   -1    0    0  501    0  0.00000000000E+00 -0.00000000000E+00 -0.51613014752E+03  0.51613014752E+03  0.00000000000E+00 0. -1.
         23    2    1    2    0    0 -0.30285247766E+02  0.11545148478E+02 -0.17233440788E+03  0.21539899738E+03  0.12508834177E+03 0.  0.
          5    1    3    3  502    0  0.74593141106E+00  0.61799171572E+02 -0.12531851640E+03  0.13979233517E+03  0.41800000000E+01 0. -1.
         -5    1    3    3    0  502 -0.31031179177E+02 -0.50254023093E+02 -0.47015891481E+02  0.75606662206E+02  0.41800000000E+01 0. -1.
        -11    1    1    2    0    0  0.27057459624E-03  0.27256762824E+02 -0.31499469177E+02  0.41655103867E+02  0.00000000000E+00 0.  1.
         11    1    1    2    0    0  0.30284977192E+02 -0.38801911302E+02 -0.28356602751E+03  0.28780628923E+03  0.00000000000E+00 0. -1.
</event>
<event>
 7    1  0.5109948E-006  0.1637178E+03  0.7561462E-02  0.1184562E+00
          4   -1    0    0  501    0  0.00000000000E+00  0.00000000000E+00  0.72835201369E+02  0.72835201369E+02  0.00000000000E+00 0. -1.
         -4   -1    0    0    0  501 -0.00000000000E+00 -0.00000000000E+00 -0.41151873541E+03  0.41151873541E+03  0.00000000000E+00 0.  1.
         23    2    1    2    0    0 -0.10965185805E+03  0.74978568123E+02 -0.14547201699E+03  0.23335627537E+03  0.12509087846E+03 0.  0.
          5    1    3    3  502    0  0.30758807429E+01  0.54056051403E+02 -0.89655046486E+01  0.55039716653E+02  0.41800000000E+01 0.  1.
         -5    1    3    3    0  502 -0.11272773879E+03  0.20922516720E+02 -0.13650651235E+03  0.17831655871E+03  0.41800000000E+01 0.  1.
        -11    1    1    2    0    0 -0.96309220158E+01  0.84711795263E+01 -0.28011610686E+02  0.30808535744E+02  0.00000000000E+00 0.  1.
         11    1    1    2    0    0  0.11928278006E+03 -0.83449747649E+02 -0.16519990636E+03  0.22018912567E+03  0.00000000000E+00 0. -1.
</event>
<event>
 7    1  0.5109948E-006  0.1382332E+03  0.7561462E-02  0.1215726E+00
         -2   -1    0    0    0  501 -0.00000000000E+00  0.00000000000E+00  0.18591573192E+02  0.18591573192E+02  0.00000000000E+00 0.  1.
          2   -1    0    0  501    0  0.00000000000E+00 -0.00000000000E+00 -0.11072449050E+04  0.11072449050E+04  0.00000000000E+00 0. -1.
         23    2    1    2    0    0 -0.30406503613E+02  0.91286781225E+02 -0.57380846580E+03  0.59511687646E+03  0.12510039704E+03 0.  0.
          5    1    3    3  502    0  0.34623773882E+02  0.85471958822E+02 -0.34543075818E+03  0.35755299266E+03  0.41800000000E+01 0. -1.
         -5    1    3    3    0  502 -0.65030277495E+02  0.58148224021E+01 -0.22837770762E+03  0.23756388380E+03  0.41800000000E+01 0. -1.
        -11    1    1    2    0    0  0.50106510820E+02 -0.41071379083E+02 -0.38004284936E+03  0.38552572930E+03  0.00000000000E+00 0. -1.
         11    1    1    2    0    0 -0.19700007208E+02 -0.50215402141E+02 -0.13480201661E+03  0.14519387238E+03  0.00000000000E+00 0.  1.
</event>
<event>
 7    1  0.5109948E-006  0.1196254E+03  0.7561462E-02  0.1243716E+00
          1   -1    0    0  501    0  0.00000000000E+00  0.00000000000E+00  0.53643916133E+03  0.53643916133E+03  0.00000000000E+00 0. -1.
         -1   -1    0    0    0  501 -0.00000000000E+00 -0.00000000000E+00 -0.46355525483E+02  0.46355525483E+02  0.00000000000E+00 0.  1.
         23    2    1    2    0    0  0.40778739924E+02  0.10626907573E+03  0.18534944862E+03  0.25091365154E+03  0.12508884978E+03 0.  0.
          5    1    3    3  502    0  0.26912031629E+02  0.11521218113E+02 -0.11690234008E+02  0.31798268575E+02  0.41800000000E+01 0.  1.
         -5    1    3    3    0  502  0.13866708295E+02  0.94747857612E+02  0.19703968263E+03  0.21911538296E+03  0.41800000000E+01 0.  1.
        -11    1    1    2    0    0 -0.11057812956E+02 -0.30341819028E+02  0.25981574565E+02  0.41448081092E+02  0.00000000000E+00 0.  1.
         11    1    1    2    0    0 -0.29720926968E+02 -0.75927256697E+02  0.27875261266E+03  0.29043295418E+03  0.00000000000E+00 0. -1.
</event>
<event>
 6    1  0.5109948E-006  0.9193933E+02  0.7561462E-02  0.1298222E+00
          1   -1    0    0  501    0  0.00000000000E+00  0.00000000000E+00  0.13773195793E+03  0.13773195793E+03  0.00000000000E+00 0. -1.
         -1   -1    0    0    0  501 -0.00000000000E+00 -0.00000000000E+00 -0.13415664011E+03  0.13415664011E+03  0.00000000000E+00 0.  1.
          5    1    1    2  502    0  0.53335395982E+02 -0.34810311015E+01 -0.47919621791E+02  0.71906498973E+02  0.41800000000E+01 0. -1.
         -5    1    1    2    0  502 -0.79253876103E+02  0.33409116765E+02  0.24329126561E+02  0.89480303753E+02  0.41800000000E+01 0.  1.
        -11    1    1    2    0    0  0.84349606323E+01 -0.24405841908E+02 -0.36239775159E+02  0.44498482937E+02  0.00000000000E+00 0.  1.
         11    1    1    2    0    0  0.17483519489E+02 -0.55222437553E+01  0.63405588202E+02  0.66003312379E+02  0.00000000000E+00 0. -1.
</event>
<event>
 7    1  0.5109948E-006  0.1030593E+03  0.7561462E-02  0.1273991E+00
         -1   -1    0    0    0  501 -0.00000000000E+00  0.00000000000E+00  0.25524419263E+03  0.25524419263E+03  0.00000000000E+00 0.  1.
          1   -1    0    0  501    0  0.00000000000E+00 -0.00000000000E+00 -0.55991884093E+02  0.55991884093E+02  0.00000000000E+00 0. -1.
         23    2    1    2    0    0 -0.44100986090E+02  0.71719785460E+00  0.80684686204E+02  0.15525467213E+03  0.12509429757E+03 0.  0.
          5    1    3    3  502    0  0.42008825672E+02 -0.55052751285E+01  0.10338410338E+02  0.43811010225E+02  0.41800000000E+01 0.  1.
         -5    1    3    3    0  502 -0.86109811762E+02  0.62224729831E+01  0.70346275866E+02  0.11144366191E+03  0.41800000000E+01 0.  1.
        -11    1    1    2    0    0  0.65452494992E+01 -0.29231536390E+02  0.10150895576E+03  0.10583662462E+03  0.00000000000E+00 0.  1.
         11    1    1    2    0    0  0.37555736590E+02  0.28514338536E+02  0.17058666569E+02  0.50144779968E+02  0.00000000000E+00 0. -1.
</event>
<event>
 7    1  0.5109948E-006  0.9307532E+02  0.7561462E-02  0.1295571E+00
          2   -1    0    0  501    0  0.00000000000E+00  0.00000000000E+00  0.46213142624E+03  0.46213142624E+03  0.00000000000E+00 0. -1.
         -2   -1    0    0    0  501 -0.00000000000E+00 -0.00000000000E+00 -0.31951607491E+02  0.31951607491E+02  0.00000000000E+00 0.  1.
         23    2    1    2    0    0 -0.32181112938E+02  0.42137727621E+02  0.27366266561E+03  0.30553278544E+03  0.12509123195E+03 0.  0.
          5    1    3    3  502    0 -0.74813491328E+02  0.48916437546E+02  0.21232640295E+03  0.23041234805E+03  0.41800000000E+01 0.  1.
         -5    1    3    3    0  502  0.42632378390E+02 -0.67787099251E+01  0.61336262662E+02  0.75120437384E+02  0.41800000000E+01 0.  1.
        -11    1    1    2    0    0  0.17925636694E+02 -0.19008885411E+02 -0.33940708343E+01  0.26347407696E+02  0.00000000000E+00 0.  1.
         11    1    1    2    0    0  0.14255476244E+02 -0.23128842209E+02  0.15991122397E+03  0.16220284059E+03  0.00000000000E+00 0. -1.
</event>
<event>
 7    1  0.5109948E-006  0.1620738E+03  0.7561462E-02  0.1186375E+00
          2   -1    0    0  501    0  0.00000000000E+00  0.00000000000E+00  0.10622087872E+04  0.10622087872E+04  0.00000000000E+00 0.  1.
         -2   -1    0    0    0  501 -0.00000000000E+00 -0.00000000000E+00 -0.28682379988E+02  0.28682379988E+02  0.00000000000E+00 0. -1.
         23    2    1    2    0    0  0.12140873413E+03 -0.55649342328E+01  0.35141195220E+03  0.39231248726E+03  0.12509068030E+03 0.  0.
          5    1    3    3  502    0  0.37028224232E+02 -0.61905675873E+02  0.16241689877E+03  0.17776423572E+03  0.41800000000E+01 0. -1.
         -5    1    3    3    0  502  0.84380509894E+02  0.56340741640E+02  0.18899505343E+03  0.21454825154E+03  0.41800000000E+01 0. -1.
        -11    1    1    2    0    0 -0.11017246490E+03 -0.29061561801E+02  0.49343840931E+03  0.50642275836E+03  0.00000000000E+00 0. -1.
         11    1    1    2    0    0 -0.11236269225E+02  0.34626496034E+02  0.18867604575E+03  0.19215592162E+03  0.00000000000E+00 0.  1.
</event>
<event>
 7    1  0.5109948E-006  0.9218660E+02  0.7561462E-02  0.1297641E+00
          1   -1    0    0  501    0  0.00000000000E+00  0.00000000000E+00  0.18338033786E+03  0.18338033786E+03  0.00000000000E+00 0. -1.
         -1   -1    0    0    0  501 -0.00000000000E+00 -0.00000000000E+00 -0.65546362066E+02  0.65546362066E+02  0.00000000000E+00 0.  1.
         23    2    1    2    0    0  0.66103110658E+01  0.85903826738E+01  0.73554245221E+02  0.14551157231E+03  0.12508357126E+03 0.  0.
          5    1    3    3  502    0  0.19405864212E+01 -0.43835493190E+02  0.80974460041E+02  0.92193556813E+02  0.41800000000E+01 0. -1.
         -5    1    3    3    0  502  0.46697246446E+01  0.52425875864E+02 -0.74202148200E+01  0.53318015495E+02  0.41800000000E+01 0. -1.
        -11    1    1    2    0    0 -0.18313022446E+02 -0.45356122501E+02  0.63742169832E+01  0.49327226575E+02  0.00000000000E+00 0.  1.
         11    1    1    2    0    0  0.11702711380E+02  0.36765739827E+02  0.37905513590E+02  0.54087901043E+02  0.00000000000E+00 0. -1.
</event>
<event>
 7    1  0.1686817E-005  0.2158823E+03  0.7561462E-02  0.1136991E+00
          2   -1    0    0  501    0  0.00000000000E+00  0.00000000000E+00  0.42941145034E+03  0.42941145034E+03  0.00000000000E+00 0. -1.
         -2   -1    0    0    0  501 -0.00000000000E+00 -0.00000000000E+00 -0.13922433856E+03  0.13922433856E+03  0.00000000000E+00 0.  1.
         23    2    1    2    0    0  0.16726653550E+03 -0.12058509658E+03  0.66168139548E+02  0.25008955751E+03  0.12509078570E+03 0.  0.
          5    1    3    3  502    0  0.11238530601E+03 -0.67204898738E+02 -0.22431745525E+02  0.13291956601E+03  0.41800000000E+01 0.  1.
         -5    1    3    3    0  502  0.54881229491E+02 -0.53380197846E+02  0.88599885073E+02  0.11716999150E+03  0.41800000000E+01 0.  1.
        -11    1    1    2    0    0 -0.80335331073E+02  0.11042392788E+03  0.11347850920E+03  0.17755163000E+03  0.00000000000E+00 0.  1.
         11    1    1    2    0    0 -0.86931204428E+02  0.10161168706E+02  0.11054046304E+03  0.14099460139E+03  0.00000000000E+00 0. -1.
</event>
<event>
 7    1  0.5109948E-006  0.6931970E+02  0.7561462E-02  0.1362422E+00
          2   -1    0    0  501    0  0.00000000000E+00  0.00000000000E+00  0.27690244762E+03  0.27690244762E+03  0.00000000000E+00 0.  1.
         -2   -1    0    0    0  501 -0.00000000000E+00 -0.00000000000E+00 -0.32587727330E+02  0.32587727330E+02  0.00000000000E+00 0. -1.
         23    2    1    2    0    0 -0.23112305607E+02 -0.46632890361E+01  0.13780641135E+03  0.18760200831E+03  0.12509189253E+03 0.  0.
          5    1    3    3  502    0  0.26774075914E+02  0.14443334257E+02  0.12984951662E+03  0.13343099495E+03  0.41800000000E+01 0. -1.
         -5    1    3    3    0  502 -0.49886381521E+02 -0.19106623293E+02  0.79568947340E+01  0.54171013363E+02  0.41800000000E+01 0. -1.
        -11    1    1    2    0    0  0.80283306776E+01 -0.22163121053E+02  0.71448270907E+02  0.75236383778E+02  0.00000000000E+00 0.  1.
         11    1    1    2    0    0  0.15083974929E+02  0.26826410089E+02  0.35060038029E+02  0.46651782866E+02  0.00000000000E+00 0. -1.
</event>
<event>
 7    1  0.5109948E-006  0.1138031E+03  0.7561462E-02  0.1253685E+00
          1   -1    0    0  501    0  0.00000000000E+00  0.00000000000E+00  0.60691142985E+03  0.60691142985E+03  0.00000000000E+00 0. -1.
         -1   -1    0    0    0  501 -0.00000000000E+00 -0.00000000000E+00 -0.24725290170E+02  0.24725290170E+02  0.00000000000E+00 0.  1.
         23    2    1    2    0    0 -0.40110877278E+02  0.11121495774E+02  0.22630981164E+03  0.26190918280E+03  0.12509084319E+03 0.  0.
          5    1    3    3  502    0 -0.98593228927E+01  0.66051780649E+02  0.93478107350E+02  0.11495944036E+03  0.41800000000E+01 0. -1.
         -5    1    3    3    0  502 -0.30251554385E+02 -0.54930284875E+02  0.13283170429E+03  0.14694974244E+03  0.41800000000E+01 0. -1.
        -11    1    1    2    0    0  0.63113045373E+02  0.13080140048E+02  0.19345167787E+03  0.20390659192E+03  0.00000000000E+00 0.  1.
         11    1    1    2    0    0 -0.23002168095E+02 -0.24201635822E+02  0.16242465017E+03  0.16582094529E+03  0.00000000000E+00 0. -1.
</event>
<event>
 7    1  0.5109948E-006  0.1848361E+03  0.7561462E-02  0.1163203E+00
          1   -1    0    0  501    0  0.00000000000E+00  0.00000000000E+00  0.16789144237E+03  0.16789144237E+03  0.00000000000E+00 0. -1.
         -1   -1    0    0    0  501 -0.00000000000E+00 -0.00000000000E+00 -0.24382397751E+03  0.24382397751E+03  0.00000000000E+00 0.  1.
         23    2    1    2    0    0  0.12275918211E+03  0.10943940505E+03 -0.85193436347E+02  0.22350129219E+03  0.12509238923E+03 0.  0.
          5    1    3    3  502    0  0.14543563114E+03  0.76495952831E+02 -0.55432286460E+02  0.17347439115E+03  0.41800000000E+01 0. -1.
         -5    1    3    3    0  502 -0.22676449027E+02  0.32943452222E+02 -0.29761149887E+02  0.50026901037E+02  0.41800000000E+01 0. -1.
        -11    1    1    2    0    0 -0.51969988587E+02 -0.36993404945E+02  0.47933099469E+02  0.79793318943E+02  0.00000000000E+00 0. -1.
         11    1    1    2    0    0 -0.70789193523E+02 -0.72446000108E+02 -0.38672198254E+02  0.10842080875E+03  0.00000000000E+00 0.  1.
</event>
<event>
 7    1  0.5109948E-006  0.1530842E+03  0.7561462E-02  0.1196734E+00
         -1   -1    0    0    0  501 -0.00000000000E+00  0.00000000000E+00  0.91078809997E+03  0.91078809997E+03  0.00000000000E+00 0.  1.
          1   -1    0    0  501    0  0.00000000000E+00 -0.00000000000E+00 -0.36190128202E+02  0.36190128202E+02  0.00000000000E+00 0. -1.
         23    2    1    2    0    0 -0.12078900667E+03  0.63404463204E+02  0.57639095641E+03  0.60537992551E+03  0.12509280356E+03 0.  0.
          5    1    3    3  502    0 -0.24460920018E+00 -0.23371577109E+01 -0.56139701850E+01  0.73831701229E+01  0.41800000000E+01 0.  1.
         -5    1    3    3    0  502 -0.12054439747E+03  0.65741620915E+02  0.58200492659E+03  0.59799675539E+03  0.41800000000E+01 0.  1.
        -11    1    1    2    0    0  0.33793628089E+02 -0.68997280850E+02  0.10990302494E+03  0.13409440314E+03  0.00000000000E+00 0. -1.
         11    1    1    2    0    0  0.86995378581E+02  0.55928176461E+01  0.18830399043E+03  0.20750389952E+03  0.00000000000E+00 0.  1.
</event>
<event>
 7    1  0.5109948E-006  0.8222458E+02  0.7561462E-02  0.1322854E+00
          1   -1    0    0  501    0  0.00000000000E+00  0.00000000000E+00  0.56920739170E+03  0.56920739170E+03  0.00000000000E+00 0. -1.
         -1   -1    0    0    0  501 -0.00000000000E+00 -0.00000000000E+00 -0.33865785090E+02  0.33865785090E+02  0.00000000000E+00 0.  1.
         23    2    1    2    0    0  0.42854255488E+02  0.43665922501E+02  0.16211641815E+03  0.21371113757E+03  0.12509003671E+03 0.  0.
          5    1    3    3  502    0  0.31194819722E+02  0.16153080333E+01 -0.12329937628E+02  0.33841184368E+02  0.41800000000E+01 0.  1.
         -5    1    3    3    0  502  0.11659435766E+02  0.42050614468E+02  0.17444635578E+03  0.17986995320E+03  0.41800000000E+01 0.  1.
        -11    1    1    2    0    0 -0.56549450247E+02 -0.16882842183E+02  0.33767188933E+03  0.34279027922E+03  0.00000000000E+00 0. -1.
         11    1    1    2    0    0  0.13695194759E+02 -0.26783080318E+02  0.35553299125E+02  0.46571760000E+02  0.00000000000E+00 0.  1.
</event>
<event>
 7    1  0.5109948E-006  0.1547629E+03  0.7561462E-02  0.1194740E+00
          1   -1    0    0  501    0  0.00000000000E+00  0.00000000000E+00  0.17114277771E+03  0.17114277771E+03  0.00000000000E+00 0. -1.
         -1   -1    0    0    0  501 -0.00000000000E+00 -0.00000000000E+00 -0.25219769376E+03  0.25219769376E+03  0.00000000000E+00 0.  1.
         23    2    1    2    0    0  0.14017795607E+02 -0.14875726108E+03 -0.13939127077E+03  0.23958933899E+03  0.12509158115E+03 0.  0.
          5    1    3    3  502    0 -0.63290356058E+01 -0.96074542169E+02 -0.82290705988E+01  0.96724166306E+02  0.41800000000E+01 0. -1.
         -5    1    3    3    0  502  0.20346831213E+02 -0.52682718909E+02 -0.13116220017E+03  0.14286517268E+03  0.41800000000E+01 0. -1.
        -11    1    1    2    0    0 -0.28138134361E+02  0.55739239628E+02 -0.15289398191E+02  0.64283614838E+02  0.00000000000E+00 0.  1.
         11    1    1    2    0    0  0.14120338753E+02  0.93018021449E+02  0.73625752915E+02  0.11946751765E+03  0.00000000000E+00 0. -1.
</event>
<event>
 7    1  0.5109948E-006  0.1727221E+03  0.7561462E-02  0.1175039E+00
         -1   -1    0    0    0  501 -0.00000000000E+00  0.00000000000E+00  0.10767607414E+03  0.10767607414E+03  0.00000000000E+00 0.  1.
          1   -1    0    0  501    0  0.00000000000E+00 -0.00000000000E+00 -0.29517141602E+03  0.29517141602E+03  0.00000000000E+00 0. -1.
         23    2    1    2    0    0 -0.37537171577E+02 -0.13338210992E+03 -0.75495582552E+02  0.20136348527E+03  0.12509134150E+03 0.  0.
          5    1    3    3  502    0 -0.41691805163E+02 -0.15357598996E+03 -0.47073929979E+02  0.16600367042E+03  0.41800000000E+01 0. -1.
         -5    1    3    3    0  502  0.41546335859E+01  0.20193880038E+02 -0.28421652573E+02  0.35359814850E+02  0.41800000000E+01 0. -1.
        -11    1    1    2    0    0 -0.28340934271E+02  0.61493166437E+02 -0.62431939764E+02  0.92099756658E+02  0.00000000000E+00 0.  1.
         11    1    1    2    0    0  0.65878105848E+02  0.71888943481E+02 -0.49567819571E+02  0.10938424824E+03  0.00000000000E+00 0. -1.
</event>
<event>
 6    1  0.5109948E-006  0.9190828E+02  0.7561462E-02  0.1298295E+00
          2   -1    0    0  501    0  0.00000000000E+00  0.00000000000E+00  0.78182977496E+03  0.78182977496E+03  0.00000000000E+00 0. -1.
         -2   -1    0    0    0  501 -0.00000000000E+00 -0.00000000000E+00 -0.55793880586E+02  0.55793880586E+02  0.00000000000E+00 0.  1.
          5    1    1    2  502    0 -0.51624506975E+02  0.27691702300E+01  0.30329295245E+03  0.30769602765E+03  0.41800000000E+01 0. -1.
         -5    1    1    2    0  502 -0.86153614180E+01  0.19498557191E+02 -0.44496528411E+02  0.49515973438E+02  0.41800000000E+01 0.  1.
        -11    1    1    2    0    0  0.61301554088E+02  0.22608151442E+02  0.31436665737E+03  0.32108473073E+03  0.00000000000E+00 0.  1.
         11    1    1    2    0    0 -0.10616856942E+01 -0.44875878863E+02  0.15287281297E+03  0.15932692373E+03  0.00000000000E+00 0. -1.
</event>
<event>
 7    1  0.5109948E-006  0.6345793E+02  0.7561462E-02  0.1383868E+00
         -1   -1    0    0    0  501 -0.00000000000E+00  0.00000000000E+00  0.31234853021E+02  0.31234853021E+02  0.00000000000E+00 0.  1.
          1   -1    0    0  501    0  0.00000000000E+00 -0.00000000000E+00 -0.31896876401E+03  0.31896876401E+03  0.00000000000E+00 0. -1.
         23    2    1    2    0    0 -0.27461492038E+02 -0.14243785210E+02 -0.17021386520E+03  0.21348809931E+03  0.12508952666E+03 0.  0.
          5    1    3    3  502    0 -0.41621594839E+02  0.14762746994E+02 -0.17504984034E+03  0.18058298607E+03  0.41800000000E+01 0.  1.
         -5    1    3    3    0  502  0.14160102802E+02 -0.29006532203E+02  0.48359751425E+01  0.32905113241E+02  0.41800000000E+01 0.  1.
        -11    1    1    2    0    0  0.15624155477E+02 -0.12986499158E+02 -0.58160463123E+01  0.21132671138E+02  0.00000000000E+00 0.  1.
         11    1    1    2    0    0  0.11837336561E+02  0.27230284367E+02 -0.11170399948E+03  0.11558284658E+03  0.00000000000E+00 0. -1.
</event>
<event>
 7    1  0.5109948E-006  0.1651315E+03  0.7561462E-02  0.1183022E+00
         -2   -1    0    0    0  501 -0.00000000000E+00  0.00000000000E+00  0.78873167347E+02  0.78873167347E+02  0.00000000000E+00 0.  1.
          2   -1    0    0  501    0  0.00000000000E+00 -0.00000000000E+00 -0.44315328224E+03  0.44315328224E+03  0.00000000000E+00 0. -1.
         23    2    1    2    0    0 -0.14012690959E+03 -0.30156159376E+02 -0.12453174176E+03  0.22737704045E+03  0.12508884475E+03 0.  0.
          5    1    3    3  502    0 -0.77921150518E+02  0.40069833108E+02 -0.94137946426E+02  0.12867292870E+03  0.41800000000E+01 0. -1.
         -5    1    3    3    0  502 -0.62205759068E+02 -0.70225992484E+02 -0.30393795332E+02  0.98704111749E+02  0.41800000000E+01 0. -1.
        -11    1    1    2    0    0  0.53874448033E+02  0.31431738817E+02 -0.17786948202E+03  0.18848862827E+03  0.00000000000E+00 0. -1.
         11    1    1    2    0    0  0.86252461553E+02 -0.12755794411E+01 -0.61878891115E+02  0.10616078086E+03  0.00000000000E+00 0.  1.
</event>
<event>
 7    1  0.5109948E-006  0.1388883E+03  0.7561462E-02  0.1214833E+00
         -1   -1    0    0    0  501 -0.00000000000E+00  0.00000000000E+00  0.69200390552E+02  0.69200390552E+02  0.00000000000E+00 0.  1.
          1   -1    0    0  501    0  0.00000000000E+00 -0.00000000000E+00 -0.36315589884E+03  0.36315589884E+03  0.00000000000E+00 0. -1.
         23    2    1    2    0    0 -0.48264945454E+01 -0.11074816690E+03 -0.11758968146E+03  0.20436040338E+03  0.12508952699E+03 0.  0.
          5    1    3    3  502    0 -0.21673072458E+02 -0.12689889312E+03 -0.12503346612E+03  0.17951014232E+03  0.41800000000E+01 0.  1.
         -5    1    3    3    0  502  0.16846577913E+02  0.16150726224E+02  0.74437846567E+01  0.24850261064E+02  0.41800000000E+01 0.  1.
        -11    1    1    2    0    0 -0.17646404862E+02  0.67962491960E+01 -0.87149167488E+02  0.89177138335E+02  0.00000000000E+00 0. -1.
         11    1    1    2    0    0  0.22472899408E+02  0.10395191770E+03 -0.89216659339E+02  0.13881874767E+03  0.00000000000E+00 0.  1.
</event>
<event>
 7    1  0.5109948E-006  0.1340845E+03  0.7561462E-02  0.1221518E+00
         -2   -1    0    0    0  501 -0.00000000000E+00  0.00000000000E+00  0.28573732332E+02  0.28573732332E+02  0.00000000000E+00 0.  1.
          2   -1    0    0  501    0  0.00000000000E+00 -0.00000000000E+00 -0.66456552635E+03  0.66456552635E+03  0.00000000000E+00 0. -1.
         23    2    1    2    0    0 -0.12757417721E+02  0.69226526395E+02 -0.32429266145E+03  0.35464017716E+03  0.12509540887E+03 0.  0.
          5    1    3    3  502    0  0.52225513223E+02  0.52913153458E+02 -0.19939288048E+03  0.21284336783E+03  0.41800000000E+01 0. -1.
         -5    1    3    3    0  502 -0.64982930944E+02  0.16313372936E+02 -0.12489978097E+03  0.14179680933E+03  0.41800000000E+01 0. -1.
        -11    1    1    2    0    0  0.34716497994E+02  0.16244688634E+02 -0.54867779975E+02  0.66929802190E+02  0.00000000000E+00 0.  1.
         11    1    1    2    0    0 -0.21959080273E+02 -0.85471215028E+02 -0.25683135259E+03  0.27156927933E+03  0.00000000000E+00 0. -1.
</event>
<event>
 7    1  0.5109948E-006  0.1458205E+03  0.7561462E-02  0.1205705E+00
          1   -1    0    0  501    0  0.00000000000E+00  0.00000000000E+00  0.51874023919E+03  0.51874023919E+03  0.00000000000E+00 0. -1.
         -1   -1    0    0    0  501 -0.00000000000E+00 -0.00000000000E+00 -0.10666282675E+03  0.10666282675E+03  0.00000000000E+00 0.  1.
         23    2    1    2    0    0  0.10752141690E+03  0.83545346174E+02  0.53981975234E+01  0.18497968827E+03  0.12509062545E+03 0.  0.
          5    1    3    3  502    0  0.19832093396E+02  0.49214884452E+02  0.56611585306E+02  0.77703029355E+02  0.41800000000E+01 0.  1.
         -5    1    3    3    0  502  0.87689323506E+02  0.34330461722E+02 -0.51213387783E+02  0.10727665891E+03  0.41800000000E+01 0.  1.
        -11    1    1    2    0    0 -0.68589379961E+02 -0.23330192952E+02  0.89037299229E+02  0.11478868237E+03  0.00000000000E+00 0.  1.
         11    1    1    2    0    0 -0.38932036940E+02 -0.60215153222E+02  0.31764191570E+03  0.32563469530E+03  0.00000000000E+00 0. -1.
</event>
<event>
 7    1  0.5109948E-006  0.1246202E+03  0.7561462E-02  0.1235664E+00
          2   -1    0    0  501    0  0.00000000000E+00  0.00000000000E+00  0.26227186327E+03  0.26227186327E+03  0.00000000000E+00 0. -1.
         -2   -1    0    0    0  501 -0.00000000000E+00 -0.00000000000E+00 -0.66292335110E+02  0.66292335110E+02  0.00000000000E+00 0.  1.
         23    2    1    2    0    0 -0.46244031849E+02  0.54877428776E+02  0.83093046066E+02  0.16644109214E+03  0.12509252647E+03 0.  0.
          5    1    3    3  502    0 -0.84339716984E+02  0.39365373983E+02  0.27466419019E+02  0.97132368979E+02  0.41800000000E+01 0.  1.
         -5    1    3    3    0  502  0.38095685135E+02  0.15512054793E+02  0.55626627047E+02  0.69308723163E+02  0.41800000000E+01 0.  1.
        -11    1    1    2    0    0 -0.24033762864E+02  0.22792638837E+01  0.35786850880E+02  0.43168454885E+02  0.00000000000E+00 0.  1.
         11    1    1    2    0    0  0.70277794713E+02 -0.57156692659E+02  0.77099631216E+02  0.11895465136E+03  0.00000000000E+00 0. -1.
</event>
<event>
 7    1  0.5109948E-006  0.1279896E+03  0.7561462E-02  0.1230470E+00
         -2   -1    0    0    0  501 -0.00000000000E+00  0.00000000000E+00  0.45709211705E+03  0.45709211705E+03  0.00000000000E+00 0.  1.
          2   -1    0    0  501    0  0.00000000000E+00 -0.00000000000E+00 -0.48825614460E+02  0.48825614460E+02  0.00000000000E+00 0. -1.
         23    2    1    2    0    0  0.40397000802E+02  0.81577013466E+02  0.29893087827E+03  0.33659173308E+03  0.12509035931E+03 0.  0.
          5    1    3    3  502    0  0.22697223472E+02 -0.31974166960E+02  0.85352026533E+02  0.94021019668E+02  0.41800000000E+01 0.  1.
         -5    1    3    3    0  502  0.17699777330E+02  0.11355118043E+03  0.21357885174E+03  0.24257071341E+03  0.41800000000E+01 0.  1.
        -11    1    1    2    0    0  0.58890503033E+00 -0.49494867251E+02  0.10621622282E+03  0.11718350858E+03  0.00000000000E+00 0.  1.
         11    1    1    2    0    0 -0.40985905832E+02 -0.32082146215E+02  0.31194015008E+01  0.52142489856E+02  0.00000000000E+00 0. -1.
</event>
<event>
 7    1  0.5109948E-006  0.2887485E+03  0.7561462E-02  0.1091004E+00
         -1   -1    0    0    0  501 -0.00000000000E+00  0.00000000000E+00  0.11364131095E+03  0.11364131095E+03  0.00000000000E+00 0.  1.
          1   -1    0    0  501    0  0.00000000000E+00 -0.00000000000E+00 -0.78454509679E+03  0.78454509679E+03  0.00000000000E+00 0. -1.
         23    2    1    2    0    0 -0.21249811997E+03  0.17711332406E+03 -0.37701974932E+03  0.48406238740E+03  0.12509165825E+03 0.  0.
          5    1    3    3  502    0 -0.31549168508E+02 -0.84199864623E+01 -0.93647551321E+01  0.34225973240E+02  0.41800000000E+01 0.  1.
         -5    1    3    3    0  502 -0.18094895146E+03  0.18553331053E+03 -0.36765499419E+03  0.44983641416E+03  0.41800000000E+01 0.  1.
        -11    1    1    2    0    0  0.16943780964E+03 -0.17295397591E+03 -0.21335840971E+03  0.32271358836E+03  0.00000000000E+00 0.  1.
         11    1    1    2    0    0  0.43060310328E+02 -0.41593481579E+01 -0.80525626809E+02  0.91410431985E+02  0.00000000000E+00 0. -1.
</event>
<event>
 7    1  0.5109948E-006  0.2274963E+03  0.7561462E-02  0.1128415E+00
         -2   -1    0    0    0  501 -0.00000000000E+00  0.00000000000E+00  0.10774988558E+03  0.10774988558E+03  0.00000000000E+00 0.  1.
          2   -1    0    0  501    0  0.00000000000E+00 -0.00000000000E+00 -0.58534073176E+03  0.58534073176E+03  0.00000000000E+00 0. -1.
         23    2    1    2    0    0  0.13829410340E+03 -0.17919346842E+03 -0.24055578476E+03  0.35321055192E+03  0.12512014323E+03 0.  0.
          5    1    3    3  502    0  0.93808584760E+02 -0.10863789711E+03 -0.22699823770E+03  0.26860364030E+03  0.41800000000E+01 0. -1.
         -5    1    3    3    0  502  0.44485518642E+02 -0.70555571311E+02 -0.13557547068E+02  0.84606911623E+02  0.41800000000E+01 0. -1.
        -11    1    1    2    0    0 -0.93040876990E+02  0.13954370037E+03 -0.11361847324E+03  0.20257888973E+03  0.00000000000E+00 0.  1.
         11    1    1    2    0    0 -0.45253226411E+02  0.39649768049E+02 -0.12341658818E+03  0.13730117569E+03  0.00000000000E+00 0. -1.
</event>
<event>
 7    1  0.5109948E-006  0.1113966E+03  0.7561462E-02  0.1258005E+00
         -2   -1    0    0    0  501 -0.00000000000E+00  0.00000000000E+00  0.16855861271E+02  0.16855861271E+02  0.00000000000E+00 0. -1.
          2   -1    0    0  501    0  0.00000000000E+00 -0.00000000000E+00 -0.80070672319E+03  0.80070672319E+03  0.00000000000E+00 0.  1.
         23    2    1    2    0    0 -0.11751495487E+02 -0.23853539485E+02 -0.33654412794E+03  0.36008595186E+03  0.12527112071E+03 0.  0.
          5    1    3    3  502    0 -0.65725455711E+02 -0.32161775668E+02 -0.19188563141E+03  0.20540638570E+03  0.41800000000E+01 0.  1.
         -5    1    3    3    0  502  0.53973960224E+02  0.83082361836E+01 -0.14465849653E+03  0.15467956617E+03  0.41800000000E+01 0.  1.
        -11    1    1    2    0    0 -0.10686823301E+01 -0.34737896986E+02 -0.20026970783E+03  0.20326293179E+03  0.00000000000E+00 0.  1.
         11    1    1    2    0    0  0.12820177817E+02  0.58591436470E+02 -0.24703702615E+03  0.25421370081E+03  0.00000000000E+00 0. -1.
</event>
<event>
 7    1  0.5109948E-006  0.4652503E+02  0.7561462E-02  0.1465040E+00
          2   -1    0    0  501    0  0.00000000000E+00  0.00000000000E+00  0.45082336169E+03  0.45082336169E+03  0.00000000000E+00 0. -1.
         -2   -1    0    0    0  501 -0.00000000000E+00 -0.00000000000E+00 -0.26862199434E+02  0.26862199434E+02  0.00000000000E+00 0.  1.
         23    2    1    2    0    0 -0.11677942748E+01 -0.98103750165E+01  0.20936451106E+03  0.24408785756E+03  0.12509107289E+03 0.  0.
          5    1    3    3  502    0 -0.54868642533E+01  0.15230946286E+01  0.22429317413E+03  0.22440438021E+03  0.41800000000E+01 0. -1.
         -5    1    3    3    0  502  0.43190699786E+01 -0.11333469645E+02 -0.14928663071E+02  0.19683477354E+02  0.41800000000E+01 0. -1.
        -11    1    1    2    0    0 -0.17582637130E+02 -0.26783756514E+02  0.28081209003E+02  0.42603674026E+02  0.00000000000E+00 0.  1.
         11    1    1    2    0    0  0.18750431405E+02  0.36594131530E+02  0.18651544220E+03  0.19099402954E+03  0.00000000000E+00 0. -1.
</event>
<event>
 7    1  0.5109948E-006  0.6012618E+02  0.7561462E-02  0.1397303E+00
         -2   -1    0    0    0  501 -0.00000000000E+00  0.00000000000E+00  0.61747363498E+02  0.61747363498E+02  0.00000000000E+00 0.  1.
          2   -1    0    0  501    0  0.00000000000E+00 -0.00000000000E+00 -0.19387320575E+03  0.19387320575E+03  0.00000000000E+00 0. -1.
         23    2    1    2    0    0  0.89947166227E+01  0.23402104692E+02 -0.79587427534E+02  0.15037178852E+03  0.12509577423E+03 0.  0.
          5    1    3    3  502    0  0.10002794331E+02  0.92084134327E+01  0.33458860089E+02  0.36356821792E+02  0.41800000000E+01 0.  1.
         -5    1    3    3    0  502 -0.10080777087E+01  0.14193691259E+02 -0.11304628762E+03  0.11401496673E+03  0.41800000000E+01 0.  1.
        -11    1    1    2    0    0  0.20410168481E+02  0.26395683500E+02 -0.19288613859E+02  0.38540338731E+02  0.00000000000E+00 0.  1.
         11    1    1    2    0    0 -0.29404885104E+02 -0.49797788192E+02 -0.33249800859E+02  0.66708441999E+02  0.00000000000E+00 0. -1.
</event>
<event>
 7    1  0.5109948E-006  0.8896944E+02  0.7561462E-02  0.1305367E+00
          2   -1    0    0  501    0  0.00000000000E+00  0.00000000000E+00  0.29179624355E+03  0.29179624355E+03  0.00000000000E+00 0. -1.
         -2   -1    0    0    0  501 -0.00000000000E+00 -0.00000000000E+00 -0.62152326582E+02  0.62152326582E+02  0.00000000000E+00 0.  1.
         23    2    1    2    0    0 -0.25855509129E+02 -0.70352621297E+02  0.88246672146E+02  0.17045177614E+03  0.12509330186E+03 0.  0.
          5    1    3    3  502    0 -0.10587611147E+02 -0.45672051760E+02 -0.25121358018E+02  0.53353433352E+02  0.41800000000E+01 0.  1.
         -5    1    3    3    0  502 -0.15267897981E+02 -0.24680569538E+02  0.11336803016E+03  0.11709834279E+03  0.41800000000E+01 0.  1.
        -11    1    1    2    0    0  0.26208503266E+02 -0.45883202540E+01  0.38848377484E+01  0.26889222572E+02  0.00000000000E+00 0.  1.
         11    1    1    2    0    0 -0.35299413788E+00  0.74940941551E+02  0.13751240708E+03  0.15660757142E+03  0.00000000000E+00 0. -1.
</event>
<event>
 7    1  0.5109948E-006  0.1315682E+03  0.7561462E-02  0.1225147E+00
          1   -1    0    0  501    0  0.00000000000E+00  0.00000000000E+00  0.24870977728E+03  0.24870977728E+03  0.00000000000E+00 0. -1.
         -1   -1    0    0    0  501 -0.00000000000E+00 -0.00000000000E+00 -0.77460685612E+02  0.77460685612E+02  0.00000000000E+00 0.  1.
         23    2    1    2    0    0 -0.30851339547E+02 -0.67280579369E+02  0.43811223135E+02  0.15180885822E+03  0.12509206469E+03 0.  0.
          5    1    3    3  502    0 -0.45771131184E+02 -0.98860242920E+02  0.41160142718E+02  0.11653314476E+03  0.41800000000E+01 0.  1.
         -5    1    3    3    0  502  0.14919791637E+02  0.31579663551E+02  0.26510804172E+01  0.35275713456E+02  0.41800000000E+01 0.  1.
        -11    1    1    2    0    0 -0.30420775955E+02  0.43785538304E+02  0.59977021325E+02  0.80248614077E+02  0.00000000000E+00 0.  1.
         11    1    1    2    0    0  0.61272115502E+02  0.23495041066E+02  0.67460847208E+02  0.94112990595E+02  0.00000000000E+00 0. -1.
</event>
<event>
 7    1  0.5109948E-006  0.1055124E+03  0.7561462E-02  0.1269113E+00
          2   -1    0    0  501    0  0.00000000000E+00  0.00000000000E+00  0.30228634811E+03  0.30228634811E+03  0.00000000000E+00 0. -1.
         -2   -1    0    0    0  501 -0.00000000000E+00 -0.00000000000E+00 -0.56919514769E+02  0.56919514769E+02  0.00000000000E+00 0.  1.
         23    2    1    2    0    0  0.44411300265E+02  0.55114178211E+02  0.10870040817E+03  0.18019685879E+03  0.12508074573E+03 0.  0.
          5    1    3    3  502    0  0.35667444920E+02 -0.34348489527E+02  0.59900862558E+02  0.77830399557E+02  0.41800000000E+01 0.  1.
         -5    1    3    3    0  502  0.87438553449E+01  0.89462667738E+02  0.48799545610E+02  0.10236645924E+03  0.41800000000E+01 0.  1.
        -11    1    1    2    0    0 -0.25433480267E+02 -0.38384893223E+02  0.66141306709E+01  0.46518906594E+02  0.00000000000E+00 0.  1.
         11    1    1    2    0    0 -0.18977819998E+02 -0.16729284989E+02  0.13005229450E+03  0.13249009749E+03  0.00000000000E+00 0. -1.
</event>
<event>
 7    1  0.5109948E-006  0.1824432E+03  0.7561462E-02  0.1165459E+00
          1   -1    0    0  501    0  0.00000000000E+00  0.00000000000E+00  0.31848954825E+03  0.31848954825E+03  0.00000000000E+00 0. -1.
         -1   -1    0    0    0  501 -0.00000000000E+00 -0.00000000000E+00 -0.13620812723E+03  0.13620812723E+03  0.00000000000E+00 0.  1.
         23    2    1    2    0    0 -0.98147532361E+02  0.11340949898E+03 -0.83873343888E+01  0.19548785657E+03  0.12510196689E+03 0.  0.
          5    1    3    3  502    0  0.23375267507E+02  0.48247590787E+02  0.14388480480E+02  0.55666272718E+02  0.41800000000E+01 0. -1.
         -5    1    3    3    0  502 -0.12152279987E+03  0.65161908195E+02 -0.22775814869E+02  0.13982158385E+03  0.41800000000E+01 0. -1.
        -11    1    1    2    0    0  0.56780883680E+02 -0.48543720388E+01  0.83928560838E+02  0.10144770576E+03  0.00000000000E+00 0. -1.
         11    1    1    2    0    0  0.41366648681E+02 -0.10855512694E+03  0.10674019457E+03  0.15776211315E+03  0.00000000000E+00 0.  1.
</event>
<event>
 7    1  0.6661520E-006  0.1822293E+03  0.7561462E-02  0.1165663E+00
         -2   -1    0    0    0  501 -0.00000000000E+00  0.00000000000E+00  0.11119016618E+03  0.11119016618E+03  0.00000000000E+00 0.  1.
          2   -1    0    0  501    0  0.00000000000E+00 -0.00000000000E+00 -0.37495053518E+03  0.37495053518E+03  0.00000000000E+00 0. -1.
         23    2    1    2    0    0  0.16158180256E+03  0.53823889208E+02 -0.10669688802E+03  0.23672169985E+03  0.12508895755E+03 0.  0.
          5    1    3    3  502    0  0.59287472289E+02 -0.14674363418E+02  0.15563835665E+02  0.63166816390E+02  0.41800000000E+01 0.  1.
         -5    1    3    3    0  502  0.10229433027E+03  0.68498252626E+02 -0.12226072369E+03  0.17355488347E+03  0.41800000000E+01 0.  1.
        -11    1    1    2    0    0 -0.99306390178E+02 -0.62266429962E+02 -0.14321544635E+03  0.18506628949E+03  0.00000000000E+00 0. -1.
         11    1    1    2    0    0 -0.62275412383E+02  0.84425407540E+01 -0.13848034624E+02  0.64352712024E+02  0.00000000000E+00 0.  1.
</event>
<event>
 7    1  0.5109948E-006  0.1045848E+03  0.7561462E-02  0.1270940E+00
          1   -1    0    0  501    0  0.00000000000E+00  0.00000000000E+00  0.91538936637E+03  0.91538936637E+03  0.00000000000E+00 0. -1.
         -1   -1    0    0    0  501 -0.00000000000E+00 -0.00000000000E+00 -0.16821274210E+02  0.16821274210E+02  0.00000000000E+00 0.  1.
         23    2    1    2    0    0  0.41875336858E+02 -0.38729336819E+02  0.54940725475E+03  0.56634524121E+03  0.12508035537E+03 0.  0.
          5    1    3    3  502    0 -0.85231651321E+01  0.26950141201E+02  0.34443065614E+02  0.44752113062E+02  0.41800000000E+01 0.  1.
         -5    1    3    3    0  502  0.50398501990E+02 -0.65679478020E+02  0.51496418914E+03  0.52159312814E+03  0.41800000000E+01 0.  1.
        -11    1    1    2    0    0 -0.52334662942E+02 -0.51566460056E+01  0.10347271731E+03  0.11606942392E+03  0.00000000000E+00 0.  1.
         11    1    1    2    0    0  0.10459326084E+02  0.43885982825E+02  0.24568812011E+03  0.24979597545E+03  0.00000000000E+00 0. -1.
</event>
<event>
 7    1  0.5109948E-006  0.1575123E+03  0.7561462E-02  0.1191534E+00
         -2   -1    0    0    0  501 -0.00000000000E+00  0.00000000000E+00  0.25973461403E+02  0.25973461403E+02  0.00000000000E+00 0.  1.
          2   -1    0    0  501    0  0.00000000000E+00 -0.00000000000E+00 -0.96831868224E+03  0.96831868224E+03  0.00000000000E+00 0. -1.
         23    2    1    2    0    0 -0.73887651869E+02 -0.88557898134E+02 -0.49910751156E+03  0.52731203001E+03  0.12509109671E+03 0.  0.
          5    1    3    3  502    0  0.29358195749E+02  0.49167936570E+01 -0.71025459258E+02  0.77124359189E+02  0.41800000000E+01 0.  1.
         -5    1    3    3    0  502 -0.10324584762E+03 -0.93474691791E+02 -0.42808205230E+03  0.45018767082E+03  0.41800000000E+01 0.  1.
        -11    1    1    2    0    0  0.93281431417E+02  0.84395137436E+02 -0.35775745147E+03  0.37922863651E+03  0.00000000000E+00 0. -1.
         11    1    1    2    0    0 -0.19393779549E+02  0.41627606978E+01 -0.85480257809E+02  0.87751477121E+02  0.00000000000E+00 0.  1.
</event>
<event>
 7    1  0.5109948E-006  0.7952611E+02  0.7561462E-02  0.1330402E+00
         -2   -1    0    0    0  501 -0.00000000000E+00  0.00000000000E+00  0.29266874991E+03  0.29266874991E+03  0.00000000000E+00 0.  1.
          2   -1    0    0  501    0  0.00000000000E+00 -0.00000000000E+00 -0.70483335890E+02  0.70483335890E+02  0.00000000000E+00 0. -1.
         23    2    1    2    0    0 -0.43633517646E+02  0.44986168786E+01  0.22861435514E+03  0.26284284843E+03  0.12205620911E+03 0.  0.
          5    1    3    3  502    0 -0.52118230707E+02  0.27787976598E+01  0.23310278714E+02  0.57313813188E+02  0.41800000000E+01 0. -1.
         -5    1    3    3    0  502  0.84847130608E+01  0.17198192187E+01  0.20530407642E+03  0.20552903525E+03  0.41800000000E+01 0.  1.
        -11    1    1    2    0    0  0.98472107225E+01 -0.44006501023E+02  0.92050936809E+01  0.46024704681E+02  0.00000000000E+00 0. -1.
         11    1    1    2    0    0  0.33786306923E+02  0.39507884144E+02 -0.15634034795E+02  0.54284532687E+02  0.00000000000E+00 0.  1.
</event>
<event>
 7    1  0.5109948E-006  0.1193690E+03  0.7561462E-02  0.1244142E+00
         -1   -1    0    0    0  501 -0.00000000000E+00  0.00000000000E+00  0.95814763869E+03  0.95814763869E+03  0.00000000000E+00 0.  1.
          1   -1    0    0  501    0  0.00000000000E+00 -0.00000000000E+00 -0.15831656441E+02  0.15831656441E+02  0.00000000000E+00 0. -1.
         23    2    1    2    0    0 -0.34518533452E+02 -0.45528671164E+02  0.51567290497E+03  0.53369513272E+03  0.12509021031E+03 0.  0.
          5    1    3    3  502    0  0.16366887559E+02  0.36873103072E+02  0.14750096584E+03  0.15297551459E+03  0.41800000000E+01 0. -1.
         -5    1    3    3    0  502 -0.50885421011E+02 -0.82401774236E+02  0.36817193913E+03  0.38071961813E+03  0.41800000000E+01 0. -1.
        -11    1    1    2    0    0  0.10312264470E+02 -0.24803187737E+02  0.54256651641E+02  0.60541929005E+02  0.00000000000E+00 0. -1.
         11    1    1    2    0    0  0.24206268982E+02  0.70331858901E+02  0.37238642564E+03  0.37974223341E+03  0.00000000000E+00 0.  1.
</event>
<event>
 6    1  0.5109948E-006  0.9496034E+02  0.7561462E-02  0.1291265E+00
         -1   -1    0    0    0  501 -0.00000000000E+00  0.00000000000E+00  0.24341076491E+03  0.24341076491E+03  0.00000000000E+00 0.  1.
          1   -1    0    0  501    0  0.00000000000E+00 -0.00000000000E+00 -0.12285582300E+03  0.12285582300E+03  0.00000000000E+00 0. -1.
          5    1    1    2  502    0 -0.27360839541E+01 -0.44149615117E+02 -0.17047226948E+02  0.47589442285E+02  0.41800000000E+01 0. -1.
         -5    1    1    2    0  502  0.32455274248E+02  0.45871568762E+02  0.19742103684E+03  0.20530485584E+03  0.41800000000E+01 0.  1.
        -11    1    1    2    0    0 -0.44406210475E+02  0.30404389126E+02 -0.14169665585E+02  0.55651754956E+02  0.00000000000E+00 0. -1.
         11    1    1    2    0    0  0.14687020181E+02 -0.32126342771E+02 -0.45649202398E+02  0.57720534831E+02  0.00000000000E+00 0.  1.
</event>
<event>
 7    1  0.5109948E-006  0.1100833E+03  0.7561462E-02  0.1260416E+00
          1   -1    0    0  501    0  0.00000000000E+00  0.00000000000E+00  0.15431702751E+03  0.15431702751E+03  0.00000000000E+00 0. -1.
         -1   -1    0    0    0  501 -0.00000000000E+00 -0.00000000000E+00 -0.13160624448E+03  0.13160624448E+03  0.00000000000E+00 0.  1.
         23    2    1    2    0    0 -0.29602493540E+02  0.42396618505E+02 -0.61885452733E+02  0.14882679107E+03  0.12508326664E+03 0.  0.
          5    1    3    3  502    0  0.23261945640E+02  0.54526454694E+02 -0.72143779814E+02  0.93468977432E+02  0.41800000000E+01 0. -1.
         -5    1    3    3    0  502 -0.52864439180E+02 -0.12129836189E+02  0.10258327081E+02  0.55357813633E+02  0.41800000000E+01 0. -1.
        -11    1    1    2    0    0 -0.19148244069E+02  0.19646566028E+02  0.12249322685E+02  0.30044778479E+02  0.00000000000E+00 0.  1.
         11    1    1    2    0    0  0.48750737609E+02 -0.62043184533E+02  0.72346913074E+02  0.10705170244E+03  0.00000000000E+00 0. -1.
</event>
<event>
 7    1  0.5109948E-006  0.1090975E+03  0.7561462E-02  0.1262250E+00
         -2   -1    0    0    0  501 -0.00000000000E+00  0.00000000000E+00  0.64022286562E+02  0.64022286562E+02  0.00000000000E+00 0.  1.
          2   -1    0    0  501    0  0.00000000000E+00 -0.00000000000E+00 -0.52604942199E+03  0.52604942199E+03  0.00000000000E+00 0. -1.
         23    2    1    2    0    0 -0.51011944105E+02 -0.72851858930E+02 -0.54098637700E+02  0.16273737235E+03  0.12508868042E+03 0.  0.
          5    1    3    3  502    0 -0.14893260107E+02 -0.61601474173E+02  0.30137791674E+02  0.70301562599E+02  0.41800000000E+01 0. -1.
         -5    1    3    3    0  502 -0.36118683998E+02 -0.11250384758E+02 -0.84236429375E+02  0.92435809754E+02  0.41800000000E+01 0. -1.
        -11    1    1    2    0    0 -0.15557782783E+02  0.38893357710E+02 -0.72954109333E+02  0.84125144562E+02  0.00000000000E+00 0.  1.
         11    1    1    2    0    0  0.66569726888E+02  0.33958501220E+02 -0.33497438839E+03  0.34320919164E+03  0.00000000000E+00 0. -1.
</event>
<event>
 7    1  0.5109948E-006  0.1536349E+03  0.7561462E-02  0.1196076E+00
         -2   -1    0    0    0  501 -0.00000000000E+00  0.00000000000E+00  0.85604781509E+02  0.85604781509E+02  0.00000000000E+00 0.  1.
          2   -1    0    0  501    0  0.00000000000E+00 -0.00000000000E+00 -0.31798024936E+03  0.31798024936E+03  0.00000000000E+00 0. -1.
         23    2    1    2    0    0 -0.56812815698E+02  0.10322230360E+03 -0.79104949548E+02  0.18917668773E+03  0.12509071169E+03 0.  0.
          5    1    3    3  502    0  0.36212444858E+02  0.35837046027E+02 -0.27672757215E+01  0.51193410176E+02  0.41800000000E+01 0.  1.
         -5    1    3    3    0  502 -0.93025260556E+02  0.67385257576E+02 -0.76337673827E+02  0.13798327756E+03  0.41800000000E+01 0.  1.
        -11    1    1    2    0    0 -0.15764678720E+02 -0.46484016009E+02 -0.21400670420E+02  0.53546965684E+02  0.00000000000E+00 0.  1.
         11    1    1    2    0    0  0.72577494418E+02 -0.56738287593E+02 -0.13186984788E+03  0.16086137745E+03  0.00000000000E+00 0. -1.
</event>
<event>
 7    1  0.5109948E-006  0.1907451E+03  0.7561462E-02  0.1157791E+00
          2   -1    0    0  501    0  0.00000000000E+00  0.00000000000E+00  0.95913526563E+03  0.95913526563E+03  0.00000000000E+00 0. -1.
         -2   -1    0    0    0  501 -0.00000000000E+00 -0.00000000000E+00 -0.41588174919E+02  0.41588174919E+02  0.00000000000E+00 0.  1.
         23    2    1    2    0    0  0.11330565884E+03 -0.11687713328E+03  0.38452259708E+03  0.43588996619E+03  0.12507597030E+03 0.  0.
          5    1    3    3  502    0  0.10570378802E+03 -0.24951172080E+02  0.25130314037E+03  0.27380027858E+03  0.41800000000E+01 0.  1.
         -5    1    3    3    0  502  0.76018708188E+01 -0.91925961198E+02  0.13321945671E+03  0.16208968761E+03  0.41800000000E+01 0.  1.
        -11    1    1    2    0    0 -0.65792703780E+02  0.11551109746E+03  0.44934520148E+03  0.46859641868E+03  0.00000000000E+00 0. -1.
         11    1    1    2    0    0 -0.47512955057E+02  0.13660358229E+01  0.83679292149E+02  0.96237055684E+02  0.00000000000E+00 0.  1.
</event>
<event>
 7    1  0.5109948E-006  0.1159720E+03  0.7561462E-02  0.1249894E+00
         -2   -1    0    0    0  501 -0.00000000000E+00  0.00000000000E+00  0.37952565479E+02  0.37952565479E+02  0.00000000000E+00 0. -1.
          2   -1    0    0  501    0  0.00000000000E+00 -0.00000000000E+00 -0.37786811167E+03  0.37786811167E+03  0.00000000000E+00 0.  1.
         23    2    1    2    0    0 -0.52061277508E+02  0.87668579927E+01 -0.16362235310E+03  0.21261872819E+03  0.12508882735E+03 0.  0.
          5    1    3    3  502    0 -0.64063990265E+02 -0.43207199402E+02 -0.67870768029E+02  0.10293187301E+03  0.41800000000E+01 0. -1.
         -5    1    3    3    0  502  0.12002712757E+02  0.51974057395E+02 -0.95751585069E+02  0.10968685518E+03  0.41800000000E+01 0. -1.
        -11    1    1    2    0    0  0.52226987780E+02 -0.42490805958E+02 -0.11769616164E+03  0.13559319049E+03  0.00000000000E+00 0.  1.
         11    1    1    2    0    0 -0.16571027263E+00  0.33723947965E+02 -0.58597031458E+02  0.67608758471E+02  0.00000000000E+00 0. -1.
</event>
<event>
 7    1  0.5109948E-006  0.1105178E+03  0.7561462E-02  0.1259614E+00
         -3   -1    0    0    0  501 -0.00000000000E+00  0.00000000000E+00  0.39990942425E+02  0.39990942425E+02  0.00000000000E+00 0.  1.
          3   -1    0    0  501    0  0.00000000000E+00 -0.00000000000E+00 -0.43555829194E+03  0.43555829194E+03  0.00000000000E+00 0. -1.
         23    2    1    2    0    0 -0.22931223153E+02 -0.40564778226E+02 -0.11246123059E+03  0.17454711670E+03  0.12509126802E+03 0.  0.
          5    1    3    3  502    0 -0.14923278335E+02  0.43635707311E+02 -0.24269491061E+02  0.52280587077E+02  0.41800000000E+01 0.  1.
         -5    1    3    3    0  502 -0.80079448182E+01 -0.84200485537E+02 -0.88191739528E+02  0.12226652962E+03  0.41800000000E+01 0.  1.
        -11    1    1    2    0    0  0.18619042637E+02 -0.21151610818E+02 -0.16777680791E+03  0.17012676644E+03  0.00000000000E+00 0. -1.
         11    1    1    2    0    0  0.43121805160E+01  0.61716389043E+02 -0.11532931101E+03  0.13087535122E+03  0.00000000000E+00 0.  1.
</event>
<event>
 7    1  0.5109948E-006  0.1270222E+03  0.7561462E-02  0.1231942E+00
         -2   -1    0    0    0  501 -0.00000000000E+00  0.00000000000E+00  0.42176786163E+02  0.42176786163E+02  0.00000000000E+00 0. -1.
          2   -1    0    0  501    0  0.00000000000E+00 -0.00000000000E+00 -0.62348228825E+03  0.62348228825E+03  0.00000000000E+00 0.  1.
         23    2    1    2    0    0 -0.10272954106E+03  0.62408682659E+02 -0.31631951196E+03  0.36076907008E+03  0.12509230992E+03 0.  0.
          5    1    3    3  502    0 -0.25090051981E+02  0.47046127363E+02 -0.25325538314E+02  0.59175198345E+02  0.41800000000E+01 0.  1.
         -5    1    3    3    0  502 -0.77639489083E+02  0.15362555296E+02 -0.29099397365E+03  0.30159387174E+03  0.41800000000E+01 0.  1.
        -11    1    1    2    0    0  0.48209132233E+02 -0.19819590712E+02 -0.30458061852E+02  0.60370772220E+02  0.00000000000E+00 0. -1.
         11    1    1    2    0    0  0.54520408831E+02 -0.42589091948E+02 -0.23452792827E+03  0.24451923211E+03  0.00000000000E+00 0.  1.
</event>
<event>
 7    1  0.5109948E-006  0.1742868E+03  0.7561462E-02  0.1173450E+00
          1   -1    0    0  501    0  0.00000000000E+00  0.00000000000E+00  0.12762300560E+03  0.12762300560E+03  0.00000000000E+00 0. -1.
         -1   -1    0    0    0  501 -0.00000000000E+00 -0.00000000000E+00 -0.31066350655E+03  0.31066350655E+03  0.00000000000E+00 0.  1.
         23    2    1    2    0    0  0.12308204451E+03  0.57116593540E+02 -0.20123335277E+03  0.27304164529E+03  0.12508150487E+03 0.  0.
          5    1    3    3  502    0  0.14841743354E+03  0.40648927584E+02 -0.17122390425E+03  0.23025022840E+03  0.41800000000E+01 0. -1.
         -5    1    3    3    0  502 -0.25335389029E+02  0.16467665957E+02 -0.30009448517E+02  0.42791416892E+02  0.41800000000E+01 0. -1.
        -11    1    1    2    0    0 -0.30153717776E+02 -0.64202137442E+02  0.48469378142E+01  0.71096089584E+02  0.00000000000E+00 0. -1.
         11    1    1    2    0    0 -0.92928326730E+02  0.70855439021E+01  0.13345914000E+02  0.94148777272E+02  0.00000000000E+00 0.  1.
</event>
<event>
 7    1  0.5109948E-006  0.9217066E+02  0.7561462E-02  0.1297679E+00
          2   -1    0    0  501    0  0.00000000000E+00  0.00000000000E+00  0.52164660744E+02  0.52164660744E+02  0.00000000000E+00 0.  1.
         -2   -1    0    0    0  501 -0.00000000000E+00 -0.00000000000E+00 -0.40858060505E+03  0.40858060505E+03  0.00000000000E+00 0. -1.
         23    2    1    2    0    0 -0.58999592848E+02  0.34229443963E+02 -0.29700018571E+03  0.32940861310E+03  0.12509323436E+03 0.  0.
          5    1    3    3  502    0 -0.65464552813E+01  0.11482545350E+02 -0.26174031503E+03  0.26210717242E+03  0.41800000000E+01 0. -1.
         -5    1    3    3    0  502 -0.52453137567E+02  0.22746898613E+02 -0.35259870687E+02  0.67301440683E+02  0.41800000000E+01 0. -1.
        -11    1    1    2    0    0  0.81972452099E+02 -0.37145049042E+02 -0.60015736729E+02  0.10817174412E+03  0.00000000000E+00 0. -1.
         11    1    1    2    0    0 -0.22972859250E+02  0.29156050785E+01  0.59997813731E+00  0.23164908566E+02  0.00000000000E+00 0.  1.
</event>
<event>
 7    1  0.5109948E-006  0.1179613E+03  0.7561462E-02  0.1246499E+00
         -1   -1    0    0    0  501 -0.00000000000E+00  0.00000000000E+00  0.75931911190E+02  0.75931911190E+02  0.00000000000E+00 0.  1.
          1   -1    0    0  501    0  0.00000000000E+00 -0.00000000000E+00 -0.25834467976E+03  0.25834467976E+03  0.00000000000E+00 0. -1.
         23    2    1    2    0    0 -0.75852668337E+02  0.20896951358E+02 -0.50157543496E+02  0.15605700710E+03  0.12509076875E+03 0.  0.
          5    1    3    3  502    0 -0.69859040092E+02 -0.42359102041E+02 -0.14512097352E+02  0.83082202534E+02  0.41800000000E+01 0.  1.
         -5    1    3    3    0  502 -0.59936282448E+01  0.63256053399E+02 -0.35645446144E+02  0.72974804570E+02  0.41800000000E+01 0.  1.
        -11    1    1    2    0    0  0.32626505771E+02 -0.32117354168E+02 -0.12481340087E+03  0.13294509526E+03  0.00000000000E+00 0.  1.
         11    1    1    2    0    0  0.43226162565E+02  0.11220402810E+02 -0.74418242069E+01  0.45274488587E+02  0.00000000000E+00 0. -1.
</event>
<event>
 7    1  0.5109948E-006  0.9979312E+02  0.7561462E-02  0.1280732E+00
          2   -1    0    0  501    0  0.00000000000E+00  0.00000000000E+00  0.93882581492E+02  0.93882581492E+02  0.00000000000E+00 0. -1.
         -2   -1    0    0    0  501 -0.00000000000E+00 -0.00000000000E+00 -0.15534462613E+03  0.15534462613E+03  0.00000000000E+00 0.  1.
         23    2    1    2    0    0 -0.25886997223E+02  0.46914995611E+02 -0.29444536821E+02  0.13923340803E+03  0.12509119763E+03 0.  0.
          5    1    3    3  502    0 -0.44345366018E+02  0.83067150981E+02 -0.12628497542E+02  0.95097920111E+02  0.41800000000E+01 0.  1.
         -5    1    3    3    0  502  0.18458368795E+02 -0.36152155370E+02 -0.16816039280E+02  0.44135487915E+02  0.41800000000E+01 0.  1.
        -11    1    1    2    0    0  0.14922676861E+02  0.13929648228E+01 -0.53822651270E+02  0.55870425320E+02  0.00000000000E+00 0.  1.
         11    1    1    2    0    0  0.10964320362E+02 -0.48307960434E+02  0.21805143451E+02  0.54123374278E+02  0.00000000000E+00 0. -1.
</event>
<event>
 7    1  0.5109948E-006  0.1451085E+03  0.7561462E-02  0.1206616E+00
         -1   -1    0    0    0  501 -0.00000000000E+00  0.00000000000E+00  0.30718098178E+02  0.30718098178E+02  0.00000000000E+00 0.  1.
          1   -1    0    0  501    0  0.00000000000E+00 -0.00000000000E+00 -0.77658702276E+03  0.77658702276E+03  0.00000000000E+00 0. -1.
         23    2    1    2    0    0 -0.22320709100E+02  0.10612524638E+03 -0.35432079086E+03  0.39114684866E+03  0.12526712418E+03 0.  0.
          5    1    3    3  502    0 -0.55116240990E+02  0.22847829045E+02 -0.65279363548E+02  0.88536382454E+02  0.41800000000E+01 0. -1.
         -5    1    3    3    0  502  0.32795531889E+02  0.83277417339E+02 -0.28904142731E+03  0.30261046620E+03  0.41800000000E+01 0. -1.
        -11    1    1    2    0    0  0.93258207645E+01  0.15715806851E+02 -0.44076575883E+02  0.47714799166E+02  0.00000000000E+00 0.  1.
         11    1    1    2    0    0  0.12994888336E+02 -0.12184105323E+03 -0.34747155784E+03  0.36844347312E+03  0.00000000000E+00 0. -1.
</event>
<event>
 7    1  0.5109948E-006  0.2334367E+03  0.7561462E-02  0.1124244E+00
         -2   -1    0    0    0  501 -0.00000000000E+00  0.00000000000E+00  0.10206973107E+04  0.10206973107E+04  0.00000000000E+00 0.  1.
          2   -1    0    0  501    0  0.00000000000E+00 -0.00000000000E+00 -0.92525271328E+02  0.92525271328E+02  0.00000000000E+00 0. -1.
         23    2    1    2    0    0 -0.20059803819E+03  0.68244817931E+02  0.82501790031E+03  0.86092804790E+03  0.12508253168E+03 0.  0.
          5    1    3    3  502    0 -0.15014272494E+03 -0.11624621440E+02  0.47161297319E+03  0.49509013175E+03  0.41800000000E+01 0. -1.
         -5    1    3    3    0  502 -0.50455313245E+02  0.79869439370E+02  0.35340492713E+03  0.36583791615E+03  0.41800000000E+01 0. -1.
        -11    1    1    2    0    0  0.10557868617E+03 -0.69908252607E+02  0.92190095174E+02  0.15663025380E+03  0.00000000000E+00 0.  1.
         11    1    1    2    0    0  0.95019352014E+02  0.16634346767E+01  0.10964043887E+02  0.95664280327E+02  0.00000000000E+00 0. -1.
</event>
<event>
 7    1  0.5109948E-006  0.1145766E+03  0.7561462E-02  0.1252322E+00
          1   -1    0    0  501    0  0.00000000000E+00  0.00000000000E+00  0.52485902418E+03  0.52485902418E+03  0.00000000000E+00 0. -1.
         -1   -1    0    0    0  501 -0.00000000000E+00 -0.00000000000E+00 -0.45774990854E+02  0.45774990854E+02  0.00000000000E+00 0.  1.
         23    2    1    2    0    0  0.43469677334E+02 -0.61074825955E+02  0.10928524318E+03  0.18232706679E+03  0.12522039648E+03 0.  0.
          5    1    3    3  502    0  0.62373138895E+02  0.10850107682E+00  0.99361778498E+02  0.11739103737E+03  0.41800000000E+01 0. -1.
         -5    1    3    3    0  502 -0.18903461561E+02 -0.61183327032E+02  0.99234646842E+01  0.64936029421E+02  0.41800000000E+01 0.  1.
        -11    1    1    2    0    0 -0.40934355605E+02 -0.40340971971E+00  0.61167920411E+02  0.73602300885E+02  0.00000000000E+00 0. -1.
         11    1    1    2    0    0 -0.25353217288E+01  0.61478235675E+02  0.30863086973E+03  0.31470464736E+03  0.00000000000E+00 0.  1.
</event>
<event>
 7    1  0.5109948E-006  0.1285086E+03  0.7561462E-02  0.1229686E+00
          1   -1    0    0  501    0  0.00000000000E+00  0.00000000000E+00  0.55883219096E+03  0.55883219096E+03  0.00000000000E+00 0. -1.
         -1   -1    0    0    0  501 -0.00000000000E+00 -0.00000000000E+00 -0.37754586548E+02  0.37754586548E+02  0.00000000000E+00 0.  1.
         23    2    1    2    0    0  0.53900748200E+01 -0.90818769256E+02  0.22656390201E+03  0.27433015368E+03  0.12509488306E+03 0.  0.
          5    1    3    3  502    0  0.16958000534E+02  0.29111274337E+02  0.44564694050E+02  0.56022535032E+02  0.41800000000E+01 0.  1.
         -5    1    3    3    0  502 -0.11567925715E+02 -0.11993004359E+03  0.18199920796E+03  0.21830761865E+03  0.41800000000E+01 0.  1.
        -11    1    1    2    0    0  0.14650322592E+02  0.68326240174E+01  0.87781695640E+00  0.16189109476E+02  0.00000000000E+00 0. -1.
         11    1    1    2    0    0 -0.20040397412E+02  0.83986145239E+02  0.29363588544E+03  0.30606751435E+03  0.00000000000E+00 0.  1.
</event>
<event>
 7    1  0.5109948E-006  0.8800977E+02  0.7561462E-02  0.1307744E+00
          1   -1    0    0  501    0  0.00000000000E+00  0.00000000000E+00  0.15349399730E+03  0.15349399730E+03  0.00000000000E+00 0. -1.
         -1   -1    0    0    0  501 -0.00000000000E+00 -0.00000000000E+00 -0.11724798332E+03  0.11724798332E+03  0.00000000000E+00 0.  1.
         23    2    1    2    0    0  0.60147292279E+02 -0.41675361584E+02 -0.97268448832E+01  0.14525458303E+03  0.12509896022E+03 0.  0.
          5    1    3    3  502    0  0.34671852683E+02  0.12743826633E+02  0.48748789990E+02  0.61306275464E+02  0.41800000000E+01 0. -1.
         -5    1    3    3    0  502  0.25475439596E+02 -0.54419188218E+02 -0.58475634874E+02  0.83948307563E+02  0.41800000000E+01 0. -1.
        -11    1    1    2    0    0 -0.92137092619E+01  0.22280748343E+02 -0.25835623095E+02  0.35338415439E+02  0.00000000000E+00 0.  1.
         11    1    1    2    0    0 -0.50933583017E+02  0.19394613242E+02  0.71808481957E+02  0.90148982150E+02  0.00000000000E+00 0. -1.
</event>
<event>
 7    1  0.5109948E-006  0.1100797E+03  0.7561462E-02  0.1260422E+00
         -1   -1    0    0    0  501 -0.00000000000E+00  0.00000000000E+00  0.28488948256E+03  0.28488948256E+03  0.00000000000E+00 0.  1.
          1   -1    0    0  501    0  0.00000000000E+00 -0.00000000000E+00 -0.65672321143E+02  0.65672321143E+02  0.00000000000E+00 0. -1.
         23    2    1    2    0    0 -0.39941985450E+02 -0.28649562664E+02  0.20900437527E+03  0.24848812033E+03  0.12508939771E+03 0.  0.
          5    1    3    3  502    0 -0.54461329742E+02 -0.65042385917E+02  0.18163029471E+03  0.20050831594E+03  0.41800000000E+01 0. -1.
         -5    1    3    3    0  502  0.14519344292E+02  0.36392823252E+02  0.27374080563E+02  0.47979804393E+02  0.41800000000E+01 0. -1.
        -11    1    1    2    0    0 -0.24473063258E+02  0.18344655183E+02 -0.12440021190E+02  0.33018348326E+02  0.00000000000E+00 0.  1.
         11    1    1    2    0    0  0.64415048707E+02  0.10304907481E+02  0.22652807331E+02  0.69055335045E+02  0.00000000000E+00 0. -1.
</event>
<event>
 6    1  0.5109948E-006  0.1078308E+03  0.7561462E-02  0.1264640E+00
          1   -1    0    0  501    0  0.00000000000E+00  0.00000000000E+00  0.38378317358E+03  0.38378317358E+03  0.00000000000E+00 0. -1.
         -1   -1    0    0    0  501 -0.00000000000E+00 -0.00000000000E+00 -0.60615979865E+02  0.60615979865E+02  0.00000000000E+00 0.  1.
          5    1    1    2  502    0  0.21633620816E+02 -0.34181740134E+02  0.12979219332E+03  0.13601430349E+03  0.41800000000E+01 0. -1.
         -5    1    1    2    0  502 -0.11999047876E+02  0.72693267934E+02 -0.16289818224E+02  0.75571945394E+02  0.41800000000E+01 0.  1.
        -11    1    1    2    0    0 -0.38778181182E+02 -0.55317859771E+02  0.14125128280E+03  0.15657502303E+03  0.00000000000E+00 0. -1.
         11    1    1    2    0    0  0.29143608243E+02  0.16806331972E+02  0.68413535815E+02  0.76237881519E+02  0.00000000000E+00 0.  1.
</event>
<event>
 7    1  0.5109948E-006  0.1074809E+03  0.7561462E-02  0.1265307E+00
         -2   -1    0    0    0  501 -0.00000000000E+00  0.00000000000E+00  0.15472155105E+03  0.15472155105E+03  0.00000000000E+00 0.  1.
          2   -1    0    0  501    0  0.00000000000E+00 -0.00000000000E+00 -0.28872562138E+03  0.28872562138E+03  0.00000000000E+00 0. -1.
         23    2    1    2    0    0  0.85979528781E+01  0.75835187056E+02  0.10665856857E+03  0.17475161116E+03  0.11548668738E+03 0.  0.
          5    1    3    3  502    0 -0.65046523046E+01 -0.10069742249E+02 -0.18319899490E+02  0.22289040533E+02  0.41800000000E+01 0. -1.
         -5    1    3    3    0  502  0.15102605183E+02  0.85904929305E+02  0.12497846806E+03  0.15246257062E+03  0.41800000000E+01 0.  1.
        -11    1    1    2    0    0  0.38477355838E+02 -0.26295853373E+02 -0.13538685141E+03  0.14318372237E+03  0.00000000000E+00 0.  1.
         11    1    1    2    0    0 -0.47075308716E+02 -0.49539333684E+02 -0.10527578749E+03  0.12551183890E+03  0.00000000000E+00 0. -1.
</event>
<event>
 7    1  0.5109948E-006  0.1150983E+03  0.7561462E-02  0.1251410E+00
         -1   -1    0    0    0  501 -0.00000000000E+00  0.00000000000E+00  0.30762324310E+02  0.30762324310E+02  0.00000000000E+00 0.  1.
          1   -1    0    0  501    0  0.00000000000E+00 -0.00000000000E+00 -0.52274137019E+03  0.52274137019E+03  0.00000000000E+00 0. -1.
         23    2    1    2    0    0  0.37618357920E+02 -0.49813611533E+02 -0.22178577667E+03  0.26217102264E+03  0.12509267617E+03 0.  0.
          5    1    3    3  502    0 -0.19686325707E+02  0.22816363234E+02 -0.12323704333E+03  0.12693690992E+03  0.41800000000E+01 0. -1.
         -5    1    3    3    0  502  0.57304683627E+02 -0.72629974766E+02 -0.98548733339E+02  0.13523411272E+03  0.41800000000E+01 0. -1.
        -11    1    1    2    0    0 -0.63612215136E+02  0.18057090697E+02 -0.19126267399E+03  0.20237090429E+03  0.00000000000E+00 0. -1.
         11    1    1    2    0    0  0.25993857216E+02  0.31756520835E+02 -0.78930595212E+02  0.88961767570E+02  0.00000000000E+00 0.  1.
</event>
<event>
 7    1  0.5109948E-006  0.8936450E+02  0.7561462E-02  0.1304398E+00
          2   -1    0    0  501    0  0.00000000000E+00  0.00000000000E+00  0.16601287721E+03  0.16601287721E+03  0.00000000000E+00 0. -1.
         -2   -1    0    0    0  501 -0.00000000000E+00 -0.00000000000E+00 -0.79337658399E+02  0.79337658399E+02  0.00000000000E+00 0.  1.
         23    2    1    2    0    0 -0.27907707665E+02 -0.26704337776E+02  0.59320784525E+02  0.14214760887E+03  0.12326810385E+03 0.  0.
          5    1    3    3  502    0  0.13431785545E+01  0.21941239553E+02  0.78858114184E+02  0.81971316291E+02  0.41800000000E+01 0. -1.
         -5    1    3    3    0  502 -0.29250886220E+02 -0.48645577329E+02 -0.19537329659E+02  0.60176292579E+02  0.41800000000E+01 0.  1.
        -11    1    1    2    0    0 -0.11343035302E+02 -0.29087479574E+02  0.67328420599E+01  0.31938645558E+02  0.00000000000E+00 0.  1.
         11    1    1    2    0    0  0.39250742967E+02  0.55791817350E+02  0.20621592231E+02  0.71264281185E+02  0.00000000000E+00 0. -1.
</event>
<event>
 7    1  0.5109948E-006  0.1111192E+03  0.7561462E-02  0.1258511E+00
         -1   -1    0    0    0  501 -0.00000000000E+00  0.00000000000E+00  0.88041637931E+02  0.88041637931E+02  0.00000000000E+00 0.  1.
          1   -1    0    0  501    0  0.00000000000E+00 -0.00000000000E+00 -0.19386883131E+03  0.19386883131E+03  0.00000000000E+00 0. -1.
         23    2    1    2    0    0  0.30590222888E+02  0.63393021902E+02 -0.41674218343E+02  0.14947556633E+03  0.12510702416E+03 0.  0.
          5    1    3    3  502    0  0.52418503052E+02  0.16792351137E+02 -0.71128369845E+02  0.90035548067E+02  0.41800000000E+01 0. -1.
         -5    1    3    3    0  502 -0.21828280163E+02  0.46600670764E+02  0.29454151502E+02  0.59440018265E+02  0.41800000000E+01 0. -1.
        -11    1    1    2    0    0 -0.57962365399E+02 -0.66086669033E+02 -0.53715541080E+02  0.10301671214E+03  0.00000000000E+00 0. -1.
         11    1    1    2    0    0  0.27372142511E+02  0.26936471314E+01 -0.10437433954E+02  0.29418190767E+02  0.00000000000E+00 0.  1.
</event>
<event>
 7    1  0.5109948E-006  0.1578468E+03  0.7561462E-02  0.1191149E+00
          2   -1    0    0  501    0  0.00000000000E+00  0.00000000000E+00  0.30279197613E+02  0.30279197613E+02  0.00000000000E+00 0. -1.
         -2   -1    0    0    0  501 -0.00000000000E+00 -0.00000000000E+00 -0.10087905599E+04  0.10087905599E+04  0.00000000000E+00 0.  1.
         23    2    1    2    0    0 -0.68061008006E+02  0.10372999483E+03 -0.68920754126E+03  0.71137205759E+03  0.12510378388E+03 0.  0.
          5    1    3    3  502    0  0.36916024105E+02  0.24680417271E+02 -0.18573067447E+03  0.19101118206E+03  0.41800000000E+01 0.  1.
         -5    1    3    3    0  502 -0.10497703211E+03  0.79049577554E+02 -0.50347686679E+03  0.52036087552E+03  0.41800000000E+01 0.  1.
        -11    1    1    2    0    0  0.41078126390E+02 -0.10279184581E+02 -0.33400592698E+02  0.53932121189E+02  0.00000000000E+00 0. -1.
         11    1    1    2    0    0  0.26982881616E+02 -0.93450810245E+02 -0.25590322835E+03  0.27376557876E+03  0.00000000000E+00 0.  1.
</event>
<event>
 7    1  0.5109948E-006  0.2130959E+03  0.7561462E-02  0.1139138E+00
          4   -1    0    0  501    0  0.00000000000E+00  0.00000000000E+00  0.22859681673E+02  0.22859681673E+02  0.00000000000E+00 0. -1.
         -4   -1    0    0    0  501 -0.00000000000E+00 -0.00000000000E+00 -0.25559438376E+04  0.25559438376E+04  0.00000000000E+00 0.  1.
         23    2    1    2    0    0  0.95050732830E+02 -0.16659382577E+03 -0.18200228410E+04  0.18343713340E+04  0.12508758901E+03 0.  0.
          5    1    3    3  502    0  0.11066983485E+03 -0.12119222312E+03 -0.16332524706E+04  0.16414830101E+04  0.41800000000E+01 0.  1.
         -5    1    3    3    0  502 -0.15619102021E+02 -0.45401602647E+02 -0.18677037035E+03  0.19288832394E+03  0.41800000000E+01 0.  1.
        -11    1    1    2    0    0 -0.50444331437E+02  0.10558146111E+02 -0.16965229258E+03  0.17730765748E+03  0.00000000000E+00 0.  1.
         11    1    1    2    0    0 -0.44606401393E+02  0.15603567965E+03 -0.54340902239E+03  0.56712452776E+03  0.00000000000E+00 0. -1.
</event>
<event>
 7    1  0.5109948E-006  0.1696049E+03  0.7561462E-02  0.1178261E+00
         -2   -1    0    0    0  501 -0.00000000000E+00  0.00000000000E+00  0.25913689552E+02  0.25913689552E+02  0.00000000000E+00 0.  1.
          2   -1    0    0  501    0  0.00000000000E+00 -0.00000000000E+00 -0.13954596426E+04  0.13954596426E+04  0.00000000000E+00 0. -1.
         23    2    1    2    0    0 -0.73730688093E+02 -0.13552626115E+03 -0.71710355048E+03  0.74410202642E+03  0.12508693694E+03 0.  0.
          5    1    3    3  502    0 -0.13682077757E+02 -0.11810553999E+03 -0.59587611570E+03  0.60763635135E+03  0.41800000000E+01 0. -1.
         -5    1    3    3    0  502 -0.60048610336E+02 -0.17420721165E+02 -0.12122743478E+03  0.13646567507E+03  0.41800000000E+01 0. -1.
        -11    1    1    2    0    0  0.12121869806E+02  0.47578507407E+01 -0.50997554323E+01  0.13985148434E+02  0.00000000000E+00 0.  1.
         11    1    1    2    0    0  0.61608818287E+02  0.13076841041E+03 -0.64734264711E+03  0.66328615726E+03  0.00000000000E+00 0. -1.
</event>
<event>
 7    1  0.5109948E-006  0.1824285E+03  0.7561462E-02  0.1165473E+00
         -2   -1    0    0    0  501 -0.00000000000E+00  0.00000000000E+00  0.13420638036E+03  0.13420638036E+03  0.00000000000E+00 0.  1.
          2   -1    0    0  501    0  0.00000000000E+00 -0.00000000000E+00 -0.29253612100E+03  0.29253612100E+03  0.00000000000E+00 0. -1.
         23    2    1    2    0    0  0.13075528925E+03 -0.82604724612E+02 -0.20012016289E+02  0.19991704500E+03  0.12508340374E+03 0.  0.
          5    1    3    3  502    0  0.13857849635E+03 -0.10090106309E+03 -0.34554715296E+02  0.17491862374E+03  0.41800000000E+01 0. -1.
         -5    1    3    3    0  502 -0.78232070959E+01  0.18296338482E+02  0.14542699007E+02  0.24998421261E+02  0.41800000000E+01 0. -1.
        -11    1    1    2    0    0 -0.11054436261E+03  0.26865329906E+02 -0.60057321262E+02  0.12864168800E+03  0.00000000000E+00 0.  1.
         11    1    1    2    0    0 -0.20210926644E+02  0.55739394706E+02 -0.78260403081E+02  0.98183768355E+02  0.00000000000E+00 0. -1.
</event>
<event>
 7    1  0.5109948E-006  0.1209250E+03  0.7561462E-02  0.1241579E+00
          2   -1    0    0  501    0  0.00000000000E+00  0.00000000000E+00  0.15076702694E+03  0.15076702694E+03  0.00000000000E+00 0. -1.
         -2   -1    0    0    0  501 -0.00000000000E+00 -0.00000000000E+00 -0.15015110637E+03  0.15015110637E+03  0.00000000000E+00 0.  1.
         23    2    1    2    0    0 -0.10144902395E+03 -0.72514255977E+01 -0.37860965992E+02  0.16560535133E+03  0.12508873654E+03 0.  0.
          5    1    3    3  502    0 -0.80662631109E+02  0.18232772030E+02  0.31608731693E+02  0.88631136474E+02  0.41800000000E+01 0.  1.
         -5    1    3    3    0  502 -0.20786392837E+02 -0.25484197628E+02 -0.69469697685E+02  0.76974214854E+02  0.41800000000E+01 0.  1.
        -11    1    1    2    0    0  0.69166971183E+01  0.28228937861E+02  0.23402070148E+02  0.37314481358E+02  0.00000000000E+00 0.  1.
         11    1    1    2    0    0  0.94532326828E+02 -0.20977512263E+02  0.15074816413E+02  0.97998300629E+02  0.00000000000E+00 0. -1.
</event>
<event>
 7    1  0.5109948E-006  0.3461346E+03  0.7561462E-02  0.1064213E+00
          2   -1    0    0  501    0  0.00000000000E+00  0.00000000000E+00  0.85988128485E+03  0.85988128485E+03  0.00000000000E+00 0. -1.
         -2   -1    0    0    0  501 -0.00000000000E+00 -0.00000000000E+00 -0.14570670449E+03  0.14570670449E+03  0.00000000000E+00 0.  1.
         23    2    1    2    0    0 -0.11365498712E+03  0.31551141723E+03  0.32173920443E+03  0.48127741202E+03  0.12508765387E+03 0.  0.
          5    1    3    3  502    0  0.16611501116E+02  0.47737663900E+02  0.92372735779E+02  0.10538036458E+03  0.41800000000E+01 0. -1.
         -5    1    3    3    0  502 -0.13026648823E+03  0.26777375333E+03  0.22936646866E+03  0.37589704744E+03  0.41800000000E+01 0. -1.
        -11    1    1    2    0    0  0.12355183682E+03 -0.26655882898E+03  0.30415208258E+03  0.42287959873E+03  0.00000000000E+00 0.  1.
         11    1    1    2    0    0 -0.98968497024E+01 -0.48952588255E+02  0.88283293350E+02  0.10143097858E+03  0.00000000000E+00 0. -1.
</event>
<event>
 6    1  0.5109948E-006  0.1332235E+03  0.7561462E-02  0.1222750E+00
          3   -1    0    0  501    0  0.00000000000E+00  0.00000000000E+00  0.20763037326E+03  0.20763037326E+03  0.00000000000E+00 0. -1.
         -3   -1    0    0    0  501 -0.00000000000E+00 -0.00000000000E+00 -0.15414534123E+03  0.15414534123E+03  0.00000000000E+00 0.  1.
          5    1    1    2  502    0  0.94010247017E+02  0.30224071046E+01 -0.96218858157E+01  0.94642033873E+02  0.41800000000E+01 0. -1.
         -5    1    1    2    0  502 -0.10232996405E+03  0.58173895405E+01 -0.53257537149E+02  0.11558157823E+03  0.41800000000E+01 0.  1.
        -11    1    1    2    0    0 -0.27642112517E+02 -0.17511668894E+02  0.36532948150E+01  0.32925544716E+02  0.00000000000E+00 0.  1.
         11    1    1    2    0    0  0.35961829551E+02  0.86718722493E+01  0.11271116019E+03  0.11862655767E+03  0.00000000000E+00 0. -1.
</event>
<event>
 7    1  0.5109948E-006  0.9517977E+02  0.7561462E-02  0.1290772E+00
          2   -1    0    0  501    0  0.00000000000E+00  0.00000000000E+00  0.33598588691E+03  0.33598588691E+03  0.00000000000E+00 0. -1.
         -2   -1    0    0    0  501 -0.00000000000E+00 -0.00000000000E+00 -0.48678668391E+02  0.48678668391E+02  0.00000000000E+00 0.  1.
         23    2    1    2    0    0  0.21525699535E+02  0.62997989343E+02  0.14411952396E+03  0.20211591801E+03  0.12509318416E+03 0.  0.
          5    1    3    3  502    0  0.28613948352E+02  0.74796635747E+02  0.16104328613E+03  0.17990471691E+03  0.41800000000E+01 0. -1.
         -5    1    3    3    0  502 -0.70882488168E+01 -0.11798646404E+02 -0.16923762169E+02  0.22211201098E+02  0.41800000000E+01 0. -1.
        -11    1    1    2    0    0 -0.10785308455E+02 -0.77215040093E+02  0.14500749622E+03  0.16463796420E+03  0.00000000000E+00 0. -1.
         11    1    1    2    0    0 -0.10740391080E+02  0.14217050750E+02 -0.18198016636E+01  0.17910673094E+02  0.00000000000E+00 0.  1.
</event>
<event>
 7    1  0.5109948E-006  0.1165801E+03  0.7561462E-02  0.1248848E+00
         -2   -1    0    0    0  501 -0.00000000000E+00  0.00000000000E+00  0.15183630264E+03  0.15183630264E+03  0.00000000000E+00 0.  1.
          2   -1    0    0  501    0  0.00000000000E+00 -0.00000000000E+00 -0.11940153998E+03  0.11940153998E+03  0.00000000000E+00 0. -1.
         23    2    1    2    0    0 -0.62106993986E+02 -0.46432582236E+02  0.33199417117E+02  0.15079602701E+03  0.12499590822E+03 0.  0.
          5    1    3    3  502    0  0.36583608724E+02 -0.28299231672E+02  0.66278291591E+01  0.46910632695E+02  0.41800000000E+01 0.  1.
         -5    1    3    3    0  502 -0.98690602710E+02 -0.18133350564E+02  0.26571587958E+02  0.10388539432E+03  0.41800000000E+01 0.  1.
        -11    1    1    2    0    0  0.64546016043E+02  0.32725742693E+02 -0.37248612045E+02  0.81391777970E+02  0.00000000000E+00 0. -1.
         11    1    1    2    0    0 -0.24390220570E+01  0.13706839543E+02  0.36483957581E+02  0.39050037639E+02  0.00000000000E+00 0.  1.
</event>
<event>
 7    1  0.5109948E-006  0.9447668E+02  0.7561462E-02  0.1292359E+00
         -2   -1    0    0    0  501 -0.00000000000E+00  0.00000000000E+00  0.27194895703E+02  0.27194895703E+02  0.00000000000E+00 0. -1.
          2   -1    0    0  501    0  0.00000000000E+00 -0.00000000000E+00 -0.60341365439E+03  0.60341365439E+03  0.00000000000E+00 0.  1.
         23    2    1    2    0    0 -0.33371165644E+02  0.41476720645E+02 -0.21482300220E+03  0.25422596769E+03  0.12509183556E+03 0.  0.
          5    1    3    3  502    0  0.95557786915E+01  0.50364843698E+02 -0.21154347335E+02  0.55613929894E+02  0.41800000000E+01 0.  1.
         -5    1    3    3    0  502 -0.42926944335E+02 -0.88881230526E+01 -0.19366865487E+03  0.19861203780E+03  0.41800000000E+01 0.  1.
        -11    1    1    2    0    0 -0.17262759911E+02 -0.39160676889E+02 -0.82724411318E+02  0.93139088046E+02  0.00000000000E+00 0. -1.
         11    1    1    2    0    0  0.50633925555E+02 -0.23160437560E+01 -0.27867134517E+03  0.28324349435E+03  0.00000000000E+00 0.  1.
</event>
<event>
 7    1  0.5109948E-006  0.1250662E+03  0.7561462E-02  0.1234966E+00
         -1   -1    0    0    0  501 -0.00000000000E+00  0.00000000000E+00  0.63989581054E+02  0.63989581054E+02  0.00000000000E+00 0.  1.
          1   -1    0    0  501    0  0.00000000000E+00 -0.00000000000E+00 -0.27105634091E+03  0.27105634091E+03  0.00000000000E+00 0. -1.
         23    2    1    2    0    0 -0.40547386510E+02  0.58626629718E+02 -0.13663177569E+03  0.19848795082E+03  0.12509217492E+03 0.  0.
          5    1    3    3  502    0 -0.58656463745E+02  0.83488316521E+02 -0.13232905817E+03  0.16715062599E+03  0.41800000000E+01 0. -1.
         -5    1    3    3    0  502  0.18109077235E+02 -0.24861686803E+02 -0.43027175221E+01  0.31337324823E+02  0.41800000000E+01 0. -1.
        -11    1    1    2    0    0  0.70659066657E+02 -0.35960249172E+02 -0.46589898392E+02  0.91959022687E+02  0.00000000000E+00 0. -1.
         11    1    1    2    0    0 -0.30111680147E+02 -0.22666380546E+02 -0.23845085781E+02  0.44598948465E+02  0.00000000000E+00 0.  1.
</event>
<event>
 7    1  0.5109948E-006  0.1539394E+03  0.7561462E-02  0.1195714E+00
         -2   -1    0    0    0  501 -0.00000000000E+00  0.00000000000E+00  0.59836832054E+02  0.59836832054E+02  0.00000000000E+00 0.  1.
          2   -1    0    0  501    0  0.00000000000E+00 -0.00000000000E+00 -0.47910531271E+03  0.47910531271E+03  0.00000000000E+00 0. -1.
         23    2    1    2    0    0 -0.10777081784E+03 -0.35175843464E+02 -0.12333609889E+03  0.20907415532E+03  0.12509324518E+03 0.  0.
          5    1    3    3  502    0  0.15813838250E+02 -0.39472374221E+02 -0.17201381084E+02  0.46059805884E+02  0.41800000000E+01 0.  1.
         -5    1    3    3    0  502 -0.12358465609E+03  0.42965307568E+01 -0.10613471781E+03  0.16301434944E+03  0.41800000000E+01 0.  1.
        -11    1    1    2    0    0  0.59925390194E+02  0.62283332926E+02 -0.14007894301E+03  0.16459761913E+03  0.00000000000E+00 0.  1.
         11    1    1    2    0    0  0.47845427646E+02 -0.27107489462E+02 -0.15585343875E+03  0.16527037031E+03  0.00000000000E+00 0. -1.
</event>
<event>
 7    1  0.5109948E-006  0.9667905E+02  0.7561462E-02  0.1287439E+00
          2   -1    0    0  501    0  0.00000000000E+00  0.00000000000E+00  0.43625263194E+03  0.43625263194E+03  0.00000000000E+00 0. -1.
         -2   -1    0    0    0  501 -0.00000000000E+00 -0.00000000000E+00 -0.34823207040E+02  0.34823207040E+02  0.00000000000E+00 0.  1.
         23    2    1    2    0    0 -0.55208339738E+02 -0.18022972919E+02  0.22629442930E+03  0.26500705696E+03  0.12508710236E+03 0.  0.
          5    1    3    3  502    0 -0.46817580209E-01  0.28393855197E+02  0.13236390925E+01  0.28730430301E+02  0.41800000000E+01 0. -1.
         -5    1    3    3    0  502 -0.55161522158E+02 -0.46416828116E+02  0.22497079020E+03  0.23627662666E+03  0.41800000000E+01 0. -1.
        -11    1    1    2    0    0 -0.46954018031E+01  0.30831419650E+02  0.11886874303E+03  0.12289182766E+03  0.00000000000E+00 0. -1.
         11    1    1    2    0    0  0.59903741541E+02 -0.12808446731E+02  0.56266252566E+02  0.83176954357E+02  0.00000000000E+00 0.  1.
</event>
<event>
 7    1  0.5109948E-006  0.1130291E+03  0.7561462E-02  0.1255061E+00
          2   -1    0    0  501    0  0.00000000000E+00  0.00000000000E+00  0.66107807083E+03  0.66107807083E+03  0.00000000000E+00 0. -1.
         -2   -1    0    0    0  501 -0.00000000000E+00 -0.00000000000E+00 -0.23561272878E+02  0.23561272878E+02  0.00000000000E+00 0.  1.
         23    2    1    2    0    0  0.45558564332E+02  0.29799684949E+02  0.26009340214E+03  0.29371036812E+03  0.12511434170E+03 0.  0.
          5    1    3    3  502    0  0.55834601769E+02  0.67164762059E+02  0.22449497300E+03  0.24092337645E+03  0.41800000000E+01 0. -1.
         -5    1    3    3    0  502 -0.10276037437E+02 -0.37365077109E+02  0.35598429142E+02  0.52786991675E+02  0.41800000000E+01 0. -1.
        -11    1    1    2    0    0 -0.10472212754E+02  0.29185522994E+02  0.82749453601E+02  0.88368173364E+02  0.00000000000E+00 0.  1.
         11    1    1    2    0    0 -0.35086351577E+02 -0.58985207943E+02  0.29467394221E+03  0.30256080222E+03  0.00000000000E+00 0. -1.
</event>
<event>
 7    1  0.5109948E-006  0.2057277E+03  0.7561462E-02  0.1144995E+00
          2   -1    0    0  501    0  0.00000000000E+00  0.00000000000E+00  0.63194143609E+03  0.63194143609E+03  0.00000000000E+00 0. -1.
         -2   -1    0    0    0  501 -0.00000000000E+00 -0.00000000000E+00 -0.84698224243E+02  0.84698224243E+02  0.00000000000E+00 0.  1.
         23    2    1    2    0    0  0.16678282393E+03 -0.11098567370E+03  0.22432964737E+03  0.32573736111E+03  0.12508680030E+03 0.  0.
          5    1    3    3  502    0  0.38512742052E+02 -0.34991598370E+02  0.15053576479E+03  0.15933026121E+03  0.41800000000E+01 0.  1.
         -5    1    3    3    0  502  0.12827008188E+03 -0.75994075333E+02  0.73793882584E+02  0.16640709990E+03  0.41800000000E+01 0.  1.
        -11    1    1    2    0    0 -0.12588179112E+03  0.47424751623E+02  0.25928213865E+03  0.29210025646E+03  0.00000000000E+00 0.  1.
         11    1    1    2    0    0 -0.40901032813E+02  0.63560922080E+02  0.63631425822E+02  0.98802042757E+02  0.00000000000E+00 0. -1.
</event>
<event>
 7    1  0.5109948E-006  0.1084982E+03  0.7561462E-02  0.1263377E+00
          3   -1    0    0  501    0  0.00000000000E+00  0.00000000000E+00  0.11138628889E+03  0.11138628889E+03  0.00000000000E+00 0. -1.
         -3   -1    0    0    0  501 -0.00000000000E+00 -0.00000000000E+00 -0.16567074877E+03  0.16567074877E+03  0.00000000000E+00 0.  1.
         23    2    1    2    0    0 -0.13131540588E+02 -0.71724218021E+02 -0.78628101789E+02  0.16473341004E+03  0.12505165806E+03 0.  0.
          5    1    3    3  502    0  0.10377730238E+01  0.28090816261E+02  0.10308195345E+02  0.30230815774E+02  0.41800000000E+01 0. -1.
         -5    1    3    3    0  502 -0.14169313612E+02 -0.99815034282E+02 -0.88936297135E+02  0.13450259427E+03  0.41800000000E+01 0. -1.
        -11    1    1    2    0    0  0.29520790943E+02  0.26862721670E+02 -0.22168193075E+02  0.45656452968E+02  0.00000000000E+00 0.  1.
         11    1    1    2    0    0 -0.16389250355E+02  0.44861496351E+02  0.46511834984E+02  0.66667174649E+02  0.00000000000E+00 0. -1.
</event>
<event>
 7    1  0.5109948E-006  0.8474033E+02  0.7561462E-02  0.1316113E+00
         -1   -1    0    0    0  501 -0.00000000000E+00  0.00000000000E+00  0.13975419715E+02  0.13975419715E+02  0.00000000000E+00 0.  1.
          1   -1    0    0  501    0  0.00000000000E+00 -0.00000000000E+00 -0.97456660898E+03  0.97456660898E+03  0.00000000000E+00 0. -1.
         23    2    1    2    0    0  0.86454811549E+01 -0.73964254093E+01 -0.50479044252E+03  0.52018376836E+03  0.12509320746E+03 0.  0.
          5    1    3    3  502    0 -0.12941212758E+02  0.23815168885E+02 -0.46209435371E+03  0.46290744365E+03  0.41800000000E+01 0. -1.
         -5    1    3    3    0  502  0.21586693913E+02 -0.31211594295E+02 -0.42696088806E+02  0.57276324706E+02  0.41800000000E+01 0. -1.
        -11    1    1    2    0    0  0.87580111616E+01 -0.46460216030E+02 -0.14707470883E+03  0.15448697165E+03  0.00000000000E+00 0.  1.
         11    1    1    2    0    0 -0.17403492316E+02  0.53856641439E+02 -0.30872603792E+03  0.31387128868E+03  0.00000000000E+00 0. -1.
</event>
<event>
 7    1  0.5109948E-006  0.7457214E+02  0.7561462E-02  0.1345201E+00
         -3   -1    0    0    0  501 -0.00000000000E+00  0.00000000000E+00  0.23214903060E+03  0.23214903060E+03  0.00000000000E+00 0.  1.
          3   -1    0    0  501    0  0.00000000000E+00 -0.00000000000E+00 -0.57371665129E+02  0.57371665129E+02  0.00000000000E+00 0. -1.
         23    2    1    2    0    0 -0.23518642116E+02 -0.35525935899E+01  0.11717155217E+03  0.17303882885E+03  0.12509003240E+03 0.  0.
          5    1    3    3  502    0  0.77799491859E+01 -0.18712574445E+02 -0.21601819489E+02  0.29913192021E+02  0.41800000000E+01 0. -1.
         -5    1    3    3    0  502 -0.31298591302E+02  0.15159980855E+02  0.13877337166E+03  0.14312563683E+03  0.41800000000E+01 0. -1.
        -11    1    1    2    0    0  0.56080483087E+01 -0.43094422468E+02  0.49485704378E+02  0.65859049427E+02  0.00000000000E+00 0. -1.
         11    1    1    2    0    0  0.17910593807E+02  0.46647016058E+02  0.81201089246E+01  0.50622817450E+02  0.00000000000E+00 0.  1.
</event>
<event>
 7    1  0.5109948E-006  0.8288248E+02  0.7561462E-02  0.1321065E+00
          4   -1    0    0  501    0  0.00000000000E+00  0.00000000000E+00  0.39571666811E+02  0.39571666811E+02  0.00000000000E+00 0. -1.
         -4   -1    0    0    0  501 -0.00000000000E+00 -0.00000000000E+00 -0.42497205976E+03  0.42497205976E+03  0.00000000000E+00 0.  1.
         23    2    1    2    0    0  0.48464848024E+02 -0.18636211299E+02 -0.30156086006E+03  0.33057807644E+03  0.12508701946E+03 0.  0.
          5    1    3    3  502    0  0.53475643203E+02 -0.43762098791E+02 -0.73211698581E+02  0.10075808114E+03  0.41800000000E+01 0.  1.
         -5    1    3    3    0  502 -0.50107951790E+01  0.25125887492E+02 -0.22834916148E+03  0.22981999530E+03  0.41800000000E+01 0.  1.
        -11    1    1    2    0    0 -0.40917568810E+02 -0.90302111252E+01 -0.94498098297E+02  0.10337157604E+03  0.00000000000E+00 0.  1.
         11    1    1    2    0    0 -0.75472792134E+01  0.27666422424E+02  0.10658565407E+02  0.30594074096E+02  0.00000000000E+00 0. -1.
</event>
<event>
 7    1  0.5109948E-006  0.6904064E+02  0.7561462E-02  0.1363386E+00
          2   -1    0    0  501    0  0.00000000000E+00  0.00000000000E+00  0.27129312435E+03  0.27129312435E+03  0.00000000000E+00 0. -1.
         -2   -1    0    0    0  501 -0.00000000000E+00 -0.00000000000E+00 -0.49901182708E+02  0.49901182708E+02  0.00000000000E+00 0.  1.
         23    2    1    2    0    0  0.20042697723E+02  0.24860636749E+02  0.86869559046E+02  0.15561310279E+03  0.12509738798E+03 0.  0.
          5    1    3    3  502    0  0.25567223225E+02  0.24721112268E+02  0.11821055541E+03  0.12351527884E+03  0.41800000000E+01 0.  1.
         -5    1    3    3    0  502 -0.55245255023E+01  0.13952448100E+00 -0.31340996368E+02  0.32097823952E+02  0.41800000000E+01 0.  1.
        -11    1    1    2    0    0  0.35373505213E+02 -0.17418176898E+02  0.68749258327E+02  0.79253632586E+02  0.00000000000E+00 0.  1.
         11    1    1    2    0    0 -0.55416202936E+02 -0.74424598507E+01  0.65773124267E+02  0.86327571681E+02  0.00000000000E+00 0. -1.
</event>
<event>
 7    1  0.5109948E-006  0.1004910E+03  0.7561462E-02  0.1279267E+00
          2   -1    0    0  501    0  0.00000000000E+00  0.00000000000E+00  0.87873753032E+02  0.87873753032E+02  0.00000000000E+00 0. -1.
         -2   -1    0    0    0  501 -0.00000000000E+00 -0.00000000000E+00 -0.19623407022E+03  0.19623407022E+03  0.00000000000E+00 0.  1.
         23    2    1    2    0    0  0.16056649078E+02  0.66680521585E+02 -0.73512378622E+02  0.16048552979E+03  0.12508967792E+03 0.  0.
          5    1    3    3  502    0 -0.18544648080E+02 -0.12292380351E+02 -0.70571700876E+02  0.74113723099E+02  0.41800000000E+01 0.  1.
         -5    1    3    3    0  502  0.34601297158E+02  0.78972901936E+02 -0.29406777459E+01  0.86371806690E+02  0.41800000000E+01 0.  1.
        -11    1    1    2    0    0 -0.22436267436E+02 -0.76827404721E+02 -0.57120852941E+02  0.98329182105E+02  0.00000000000E+00 0.  1.
         11    1    1    2    0    0  0.63796183586E+01  0.10146883136E+02  0.22272914371E+02  0.25293111362E+02  0.00000000000E+00 0. -1.
</event>
<event>
 7    1  0.5109948E-006  0.1686501E+03  0.7561462E-02  0.1179263E+00
         -1   -1    0    0    0  501 -0.00000000000E+00  0.00000000000E+00  0.49887154694E+03  0.49887154694E+03  0.00000000000E+00 0.  1.
          1   -1    0    0  501    0  0.00000000000E+00 -0.00000000000E+00 -0.87804704601E+02  0.87804704601E+02  0.00000000000E+00 0. -1.
         23    2    1    2    0    0  0.41262756793E+02  0.12465734654E+03  0.31221075554E+03  0.36106076326E+03  0.12508896733E+03 0.  0.
          5    1    3    3  502    0  0.74098612990E+02  0.12686249892E+03  0.23724983441E+03  0.27908718066E+03  0.41800000000E+01 0.  1.
         -5    1    3    3    0  502 -0.32835856196E+02 -0.22051523712E+01  0.74960921122E+02  0.81973582602E+02  0.41800000000E+01 0.  1.
        -11    1    1    2    0    0 -0.20465161349E+02 -0.13312866052E+03  0.11232531934E+02  0.13516002684E+03  0.00000000000E+00 0. -1.
         11    1    1    2    0    0 -0.20797595444E+02  0.84713139795E+01  0.87623554868E+02  0.90455461441E+02  0.00000000000E+00 0.  1.
</event>
<event>
 7    1  0.5109948E-006  0.1530498E+03  0.7561462E-02  0.1196775E+00
          2   -1    0    0  501    0  0.00000000000E+00  0.00000000000E+00  0.15263733423E+03  0.15263733423E+03  0.00000000000E+00 0. -1.
         -2   -1    0    0    0  501 -0.00000000000E+00 -0.00000000000E+00 -0.18215020021E+03  0.18215020021E+03  0.00000000000E+00 0.  1.
         23    2    1    2    0    0 -0.38156323928E+02  0.11559580653E+03 -0.48478654039E+02  0.18115429993E+03  0.12509358474E+03 0.  0.
          5    1    3    3  502    0  0.29972209607E+02 -0.32817350480E+01  0.10115926171E+02  0.32076587973E+02  0.41800000000E+01 0. -1.
         -5    1    3    3    0  502 -0.68128533535E+02  0.11887754157E+03 -0.58594580210E+02  0.14907771196E+03  0.41800000000E+01 0. -1.
        -11    1    1    2    0    0  0.32464057353E+02 -0.11668717536E+02 -0.22942757780E+02  0.41429990626E+02  0.00000000000E+00 0.  1.
         11    1    1    2    0    0  0.56922665753E+01 -0.10392708899E+03  0.41908545835E+02  0.11220324389E+03  0.00000000000E+00 0. -1.
</event>
<event>
 7    1  0.5109948E-006  0.9827614E+02  0.7561462E-02  0.1283963E+00
          2   -1    0    0  501    0  0.00000000000E+00  0.00000000000E+00  0.91754135504E+02  0.91754135504E+02  0.00000000000E+00 0. -1.
         -2   -1    0    0    0  501 -0.00000000000E+00 -0.00000000000E+00 -0.14911918561E+03  0.14911918561E+03  0.00000000000E+00 0.  1.
         23    2    1    2    0    0  0.39573173915E+02  0.16345029005E+02 -0.30114301970E+02  0.13559706453E+03  0.12508595709E+03 0.  0.
          5    1    3    3  502    0  0.70127702362E+02  0.32202867768E+01  0.21955187371E+02  0.73673384190E+02  0.41800000000E+01 0. -1.
         -5    1    3    3    0  502 -0.30554528447E+02  0.13124742228E+02 -0.52069489341E+02  0.61923680345E+02  0.41800000000E+01 0. -1.
        -11    1    1    2    0    0 -0.35791612598E+02 -0.48531803551E+02 -0.37828575757E+02  0.71185508582E+02  0.00000000000E+00 0.  1.
         11    1    1    2    0    0 -0.37815613161E+01  0.32186774546E+02  0.10577827623E+02  0.34090747995E+02  0.00000000000E+00 0. -1.
</event>
<event>
 7    1  0.5109948E-006  0.1205711E+03  0.7561462E-02  0.1242158E+00
         -4   -1    0    0    0  501 -0.00000000000E+00  0.00000000000E+00  0.11633177793E+03  0.11633177793E+03  0.00000000000E+00 0.  1.
          4   -1    0    0  501    0  0.00000000000E+00 -0.00000000000E+00 -0.15127167617E+03  0.15127167617E+03  0.00000000000E+00 0. -1.
         23    2    1    2    0    0 -0.74221585132E+02  0.33767655914E+02 -0.33599175676E+02  0.15305370870E+03  0.12508970723E+03 0.  0.
          5    1    3    3  502    0 -0.73107223422E+02 -0.32542636893E+02 -0.37873236984E+01  0.80221602784E+02  0.41800000000E+01 0. -1.
         -5    1    3    3    0  502 -0.11143617099E+01  0.66310292807E+02 -0.29811851978E+02  0.72832105919E+02  0.41800000000E+01 0. -1.
        -11    1    1    2    0    0  0.41511967490E+02 -0.43798846867E+02  0.30673766937E+02  0.67693887537E+02  0.00000000000E+00 0.  1.
         11    1    1    2    0    0  0.32709617642E+02  0.10031190953E+02 -0.32014489503E+02  0.46855857866E+02  0.00000000000E+00 0. -1.
</event>
<event>
 7    1  0.5109948E-006  0.1804216E+03  0.7561462E-02  0.1167396E+00
          1   -1    0    0  501    0  0.00000000000E+00  0.00000000000E+00  0.12473104556E+04  0.12473104556E+04  0.00000000000E+00 0. -1.
         -1   -1    0    0    0  501 -0.00000000000E+00 -0.00000000000E+00 -0.28242794056E+02  0.28242794056E+02  0.00000000000E+00 0.  1.
         23    2    1    2    0    0  0.14470482687E+03  0.35075588548E+02  0.58295628804E+03  0.61453701937E+03  0.12509168871E+03 0.  0.
          5    1    3    3  502    0  0.82885245325E+02  0.71946245517E+02  0.45084657448E+03  0.46403268447E+03  0.41800000000E+01 0. -1.
         -5    1    3    3    0  502  0.61819581546E+02 -0.36870656969E+02  0.13210971356E+03  0.15050433490E+03  0.41800000000E+01 0. -1.
        -11    1    1    2    0    0  0.15345067123E+02 -0.41574036884E+01  0.40724364038E+02  0.43717604197E+02  0.00000000000E+00 0.  1.
         11    1    1    2    0    0 -0.16004989399E+03 -0.30918184860E+02  0.59538700942E+03  0.61729862604E+03  0.00000000000E+00 0. -1.
</event>
<event>
 7    1  0.5109948E-006  0.9791142E+02  0.7561462E-02  0.1284750E+00
          2   -1    0    0  501    0  0.00000000000E+00  0.00000000000E+00  0.34435020325E+03  0.34435020325E+03  0.00000000000E+00 0. -1.
         -2   -1    0    0    0  501 -0.00000000000E+00 -0.00000000000E+00 -0.41878611069E+02  0.41878611069E+02  0.00000000000E+00 0.  1.
         23    2    1    2    0    0 -0.36318926810E+01 -0.47113374289E+02  0.17131936824E+03  0.21732611878E+03  0.12508978891E+03 0.  0.
          5    1    3    3  502    0  0.36779306557E+02  0.17724777322E+02  0.15751592656E+02  0.43959870258E+02  0.41800000000E+01 0.  1.
         -5    1    3    3    0  502 -0.40411199238E+02 -0.64838151611E+02  0.15556777558E+03  0.17336624853E+03  0.41800000000E+01 0.  1.
        -11    1    1    2    0    0  0.29539951322E+02  0.67452575625E+01  0.11372137320E+01  0.30321617351E+02  0.00000000000E+00 0.  1.
         11    1    1    2    0    0 -0.25908058641E+02  0.40368116727E+02  0.13001501021E+03  0.13858107818E+03  0.00000000000E+00 0. -1.
</event>
<event>
 7    1  0.5109948E-006  0.1617545E+03  0.7561462E-02  0.1186730E+00
         -4   -1    0    0    0  501 -0.00000000000E+00  0.00000000000E+00  0.26581735619E+03  0.26581735619E+03  0.00000000000E+00 0. -1.
          4   -1    0    0  501    0  0.00000000000E+00 -0.00000000000E+00 -0.13934532686E+03  0.13934532686E+03  0.00000000000E+00 0.  1.
         23    2    1    2    0    0 -0.27330409726E+02 -0.14693543431E+03  0.12025323664E+03  0.22900728171E+03  0.12508605437E+03 0.  0.
          5    1    3    3  502    0 -0.87205820026E+01 -0.51024097117E+02 -0.21986753593E+02  0.56395006611E+02  0.41800000000E+01 0.  1.
         -5    1    3    3    0  502 -0.18609827723E+02 -0.95911337196E+02  0.14223999024E+03  0.17261227509E+03  0.41800000000E+01 0.  1.
        -11    1    1    2    0    0  0.47863579300E+02  0.33291576009E+02  0.15413209249E+02  0.60306038470E+02  0.00000000000E+00 0.  1.
         11    1    1    2    0    0 -0.20533169574E+02  0.11364385830E+03 -0.91944165655E+01  0.11584936288E+03  0.00000000000E+00 0. -1.
</event>
<event>
 7    1  0.5109948E-006  0.9912281E+02  0.7561462E-02  0.1282151E+00
          2   -1    0    0  501    0  0.00000000000E+00  0.00000000000E+00  0.39544831796E+02  0.39544831796E+02  0.00000000000E+00 0. -1.
         -2   -1    0    0    0  501 -0.00000000000E+00 -0.00000000000E+00 -0.55169043941E+03  0.55169043941E+03  0.00000000000E+00 0.  1.
         23    2    1    2    0    0  0.33578367528E+02 -0.71722500926E+01 -0.46317922670E+03  0.48100134304E+03  0.12509335723E+03 0.  0.
          5    1    3    3  502    0  0.46696606299E+02 -0.59359364074E+02 -0.27983632192E+03  0.28987919313E+03  0.41800000000E+01 0. -1.
         -5    1    3    3    0  502 -0.13118238771E+02  0.52187113981E+02 -0.18334290477E+03  0.19112214991E+03  0.41800000000E+01 0. -1.
        -11    1    1    2    0    0 -0.13843001391E+02 -0.26330901024E+02 -0.62373035691E+02  0.69103839384E+02  0.00000000000E+00 0.  1.
         11    1    1    2    0    0 -0.19735366137E+02  0.33503151117E+02  0.13406654772E+02  0.41130088785E+02  0.00000000000E+00 0. -1.
</event>
<event>
 7    1  0.5109948E-006  0.7634561E+02  0.7561462E-02  0.1339754E+00
         -1   -1    0    0    0  501 -0.00000000000E+00  0.00000000000E+00  0.14819469919E+04  0.14819469919E+04  0.00000000000E+00 0.  1.
          1   -1    0    0  501    0  0.00000000000E+00 -0.00000000000E+00 -0.86554636168E+01  0.86554636168E+01  0.00000000000E+00 0. -1.
         23    2    1    2    0    0 -0.43352994326E+01  0.23890857261E+02  0.98291820854E+03  0.99114359067E+03  0.12509134566E+03 0.  0.
          5    1    3    3  502    0 -0.25610060397E+02  0.25526638657E+02  0.95530127258E+03  0.95599449698E+03  0.41800000000E+01 0.  1.
         -5    1    3    3    0  502  0.21274760965E+02 -0.16357813957E+01  0.27616935966E+02  0.35149093687E+02  0.41800000000E+01 0.  1.
        -11    1    1    2    0    0  0.44029508450E+02  0.65650030759E+01  0.25025411918E+03  0.25418265293E+03  0.00000000000E+00 0.  1.
         11    1    1    2    0    0 -0.39694209017E+02 -0.30455860337E+02  0.24011920053E+03  0.24527621190E+03  0.00000000000E+00 0. -1.
</event>
<event>
 7    1  0.5109948E-006  0.1548342E+03  0.7561462E-02  0.1194655E+00
         -1   -1    0    0    0  501 -0.00000000000E+00  0.00000000000E+00  0.77028435602E+02  0.77028435602E+02  0.00000000000E+00 0.  1.
          1   -1    0    0  501    0  0.00000000000E+00 -0.00000000000E+00 -0.37480206574E+03  0.37480206574E+03  0.00000000000E+00 0. -1.
         23    2    1    2    0    0  0.33761214194E+02  0.12500236434E+03 -0.14899717495E+03  0.23369381079E+03  0.12508888194E+03 0.  0.
          5    1    3    3  502    0  0.40204937283E+02 -0.12051564446E+02 -0.27278911806E+02  0.50232346320E+02  0.41800000000E+01 0.  1.
         -5    1    3    3    0  502 -0.64437230892E+01  0.13705392879E+03 -0.12171826314E+03  0.18346146447E+03  0.41800000000E+01 0.  1.
        -11    1    1    2    0    0 -0.14151967638E+02 -0.78279770916E+02 -0.23416945681E+02  0.82923784692E+02  0.00000000000E+00 0.  1.
         11    1    1    2    0    0 -0.19609246555E+02 -0.46722593423E+02 -0.12535950951E+03  0.13521290586E+03  0.00000000000E+00 0. -1.
</event>
<event>
 6    1  0.5109948E-006  0.2059768E+03  0.7561462E-02  0.1144792E+00
         -2   -1    0    0    0  501 -0.00000000000E+00  0.00000000000E+00  0.15868722975E+03  0.15868722975E+03  0.00000000000E+00 0.  1.
          2   -1    0    0  501    0  0.00000000000E+00 -0.00000000000E+00 -0.29252439542E+03  0.29252439542E+03  0.00000000000E+00 0. -1.
          5    1    1    2  502    0 -0.44812339931E+02  0.16432606080E+03 -0.84759094143E+02  0.19029654886E+03  0.41800000000E+01 0. -1.
         -5    1    1    2    0  502  0.73425056404E+02 -0.12338645937E+03  0.28172145868E+01  0.14366929513E+03  0.41800000000E+01 0.  1.
        -11    1    1    2    0    0 -0.58309627880E+02 -0.20190225909E+02 -0.11117496560E+02  0.62699734095E+02  0.00000000000E+00 0. -1.
         11    1    1    2    0    0  0.29696911407E+02 -0.20749375514E+02 -0.40777789556E+02  0.54546047084E+02  0.00000000000E+00 0.  1.
</event>
<event>
 7    1  0.5109948E-006  0.1575173E+03  0.7561462E-02  0.1191528E+00
          1   -1    0    0  501    0  0.00000000000E+00  0.00000000000E+00  0.24738890295E+03  0.24738890295E+03  0.00000000000E+00 0. -1.
         -1   -1    0    0    0  501 -0.00000000000E+00 -0.00000000000E+00 -0.14344176205E+03  0.14344176205E+03  0.00000000000E+00 0.  1.
         23    2    1    2    0    0 -0.14202443157E+03 -0.46493454293E+02  0.14813071896E+02  0.19544534797E+03  0.12508747534E+03 0.  0.
          5    1    3    3  502    0 -0.41405560146E+02  0.15173275858E+02 -0.44940667627E+02  0.63101384439E+02  0.41800000000E+01 0. -1.
         -5    1    3    3    0  502 -0.10061887143E+03 -0.61666730151E+02  0.59753739523E+02  0.13234396353E+03  0.41800000000E+01 0. -1.
        -11    1    1    2    0    0  0.89627944254E+02  0.13255703204E+02  0.97124582473E+02  0.13282344138E+03  0.00000000000E+00 0. -1.
         11    1    1    2    0    0  0.52396487321E+02  0.33237751089E+02 -0.79905134668E+01  0.62561875663E+02  0.00000000000E+00 0.  1.
</event>
<event>
 7    1  0.5109948E-006  0.6765183E+02  0.7561462E-02  0.1368265E+00
         -4   -1    0    0    0  501 -0.00000000000E+00  0.00000000000E+00  0.15671711247E+03  0.15671711247E+03  0.00000000000E+00 0. -1.
          4   -1    0    0  501    0  0.00000000000E+00 -0.00000000000E+00 -0.75359039059E+02  0.75359039059E+02  0.00000000000E+00 0.  1.
         23    2    1    2    0    0  0.38457100364E+01 -0.11673767762E+02  0.62945717701E+02  0.14056882556E+03  0.12508543082E+03 0.  0.
          5    1    3    3  502    0  0.31166618982E+02 -0.14964239752E+01 -0.29745157918E+02  0.43311017571E+02  0.41800000000E+01 0. -1.
         -5    1    3    3    0  502 -0.27320908946E+02 -0.10177343787E+02  0.92690875619E+02  0.97257807991E+02  0.41800000000E+01 0. -1.
        -11    1    1    2    0    0  0.27849697616E+02 -0.16150329761E+02  0.33737976894E+02  0.46633570457E+02  0.00000000000E+00 0. -1.
         11    1    1    2    0    0 -0.31695407652E+02  0.27824097523E+02 -0.15325621181E+02  0.44873755512E+02  0.00000000000E+00 0.  1.
</event>
<event>
 7    1  0.5109948E-006  0.6500037E+02  0.7561462E-02  0.1377970E+00
         -2   -1    0    0    0  501 -0.00000000000E+00  0.00000000000E+00  0.57369254936E+02  0.57369254936E+02  0.00000000000E+00 0.  1.
          2   -1    0    0  501    0  0.00000000000E+00 -0.00000000000E+00 -0.29665062822E+03  0.29665062822E+03  0.00000000000E+00 0. -1.
         23    2    1    2    0    0 -0.55720419540E+02  0.21086518812E+02 -0.76887217519E+02  0.15846063762E+03  0.12509485612E+03 0.  0.
          5    1    3    3  502    0 -0.23315049254E+02  0.77330910949E+01  0.33964888202E+02  0.42124556380E+02  0.41800000000E+01 0.  1.
         -5    1    3    3    0  502 -0.32405370286E+02  0.13353427717E+02 -0.11085210572E+03  0.11633608124E+03  0.41800000000E+01 0.  1.
        -11    1    1    2    0    0  0.29077033577E+02 -0.29915468508E+02 -0.16221178600E+03  0.16749051512E+03  0.00000000000E+00 0. -1.
         11    1    1    2    0    0  0.26643385963E+02  0.88289496968E+01 -0.18236976150E+00  0.28068730414E+02  0.00000000000E+00 0.  1.
</event>
<event>
 6    1  0.5109948E-006  0.2239466E+03  0.7561462E-02  0.1130974E+00
          1   -1    0    0  501    0  0.00000000000E+00  0.00000000000E+00  0.68786475936E+03  0.68786475936E+03  0.00000000000E+00 0. -1.
         -1   -1    0    0    0  501 -0.00000000000E+00 -0.00000000000E+00 -0.15123509049E+03  0.15123509049E+03  0.00000000000E+00 0.  1.
          5    1    1    2  502    0 -0.19464658039E+03 -0.65210064160E+02  0.26957744459E+03  0.33886444894E+03  0.41800000000E+01 0. -1.
         -5    1    1    2    0  502  0.10487653975E+03  0.37232761379E+02 -0.74741564472E+02  0.13412360333E+03  0.41800000000E+01 0.  1.
        -11    1    1    2    0    0  0.24744790441E+01 -0.27604163766E+02  0.73088779095E+02  0.78167016915E+02  0.00000000000E+00 0.  1.
         11    1    1    2    0    0  0.87295561595E+02  0.55581466547E+02  0.26870500966E+03  0.28794478067E+03  0.00000000000E+00 0. -1.
</event>
<event>
 7    1  0.5109948E-006  0.1131456E+03  0.7561462E-02  0.1254853E+00
          2   -1    0    0  501    0  0.00000000000E+00  0.00000000000E+00  0.13240030479E+03  0.13240030479E+03  0.00000000000E+00 0. -1.
         -2   -1    0    0    0  501 -0.00000000000E+00 -0.00000000000E+00 -0.14426357879E+03  0.14426357879E+03  0.00000000000E+00 0.  1.
         23    2    1    2    0    0  0.35487257167E+02  0.43101775958E+02 -0.73602609124E+02  0.15550497818E+03  0.12508935069E+03 0.  0.
          5    1    3    3  502    0 -0.41799356847E+02  0.31558211348E+01 -0.49767226335E+02  0.65202719704E+02  0.41800000000E+01 0. -1.
         -5    1    3    3    0  502  0.77286614013E+02  0.39945954824E+02 -0.23835382790E+02  0.90302258472E+02  0.41800000000E+01 0. -1.
        -11    1    1    2    0    0 -0.37697044611E+02 -0.64954491910E+02  0.64532102756E+02  0.99017904834E+02  0.00000000000E+00 0. -1.
         11    1    1    2    0    0  0.22097874441E+01  0.21852715951E+02 -0.27927676301E+01  0.22141000565E+02  0.00000000000E+00 0.  1.
</event>
<event>
 6    1  0.5109948E-006  0.1220927E+03  0.7561462E-02  0.1239684E+00
         -2   -1    0    0    0  501 -0.00000000000E+00  0.00000000000E+00  0.48436497598E+02  0.48436497598E+02  0.00000000000E+00 0.  1.
          2   -1    0    0  501    0  0.00000000000E+00 -0.00000000000E+00 -0.34662707888E+03  0.34662707888E+03  0.00000000000E+00 0. -1.
          5    1    1    2  502    0  0.65584590574E+02  0.23826304712E+02 -0.85786343992E+02  0.11066074522E+03  0.41800000000E+01 0. -1.
         -5    1    1    2    0  502 -0.42864539193E+02 -0.71575908549E+02 -0.10540876041E+03  0.13449519908E+03  0.41800000000E+01 0.  1.
        -11    1    1    2    0    0 -0.40661445305E+02  0.57425384033E+02 -0.42351607709E+02  0.82126040579E+02  0.00000000000E+00 0. -1.
         11    1    1    2    0    0  0.17941393924E+02 -0.96757801964E+01 -0.64643869176E+02  0.67781591604E+02  0.00000000000E+00 0.  1.
</event>
<event>
 7    1  0.5109948E-006  0.1250046E+03  0.7561462E-02  0.1235062E+00
         -1   -1    0    0    0  501 -0.00000000000E+00  0.00000000000E+00  0.20757828750E+03  0.20757828750E+03  0.00000000000E+00 0.  1.
          1   -1    0    0  501    0  0.00000000000E+00 -0.00000000000E+00 -0.99497167169E+02  0.99497167169E+02  0.00000000000E+00 0. -1.
         23    2    1    2    0    0  0.85076305268E+02 -0.24147961526E+02  0.95532679904E+02  0.18053495762E+03  0.12508107862E+03 0.  0.
          5    1    3    3  502    0  0.34009506899E+02  0.50976183258E+02  0.29397578895E+02  0.68094844621E+02  0.41800000000E+01 0.  1.
         -5    1    3    3    0  502  0.51066798369E+02 -0.75124144784E+02  0.66135101009E+02  0.11244011300E+03  0.41800000000E+01 0.  1.
        -11    1    1    2    0    0 -0.69521626808E+01 -0.10173955739E+02  0.35995917951E+02  0.38046656233E+02  0.00000000000E+00 0.  1.
         11    1    1    2    0    0 -0.78124142587E+02  0.34321917265E+02 -0.23447477528E+02  0.88493840815E+02  0.00000000000E+00 0. -1.
</event>
<event>
 6    1  0.5109948E-006  0.2821951E+03  0.7561462E-02  0.1094496E+00
         -1   -1    0    0    0  501 -0.00000000000E+00  0.00000000000E+00  0.49057919161E+03  0.49057919161E+03  0.00000000000E+00 0.  1.
          1   -1    0    0  501    0  0.00000000000E+00 -0.00000000000E+00 -0.18896680651E+03  0.18896680651E+03  0.00000000000E+00 0. -1.
          5    1    1    2  502    0 -0.62455104811E+02 -0.18159040456E+02 -0.16496683749E+02  0.67230973828E+02  0.41800000000E+01 0. -1.
         -5    1    1    2    0  502 -0.16518124911E+03 -0.14132949539E+03  0.20516783950E+03  0.29894846728E+03  0.41800000000E+01 0.  1.
        -11    1    1    2    0    0  0.20596399519E+03  0.12462713350E+03  0.63233828526E+02  0.24890079708E+03  0.00000000000E+00 0. -1.
         11    1    1    2    0    0  0.21672358733E+02  0.34861402345E+02  0.49707400823E+02  0.64465759928E+02  0.00000000000E+00 0.  1.
</event>
<event>
 7    1  0.5109948E-006  0.1019234E+03  0.7561462E-02  0.1276303E+00
         -1   -1    0    0    0  501 -0.00000000000E+00  0.00000000000E+00  0.26273216461E+03  0.26273216461E+03  0.00000000000E+00 0.  1.
          1   -1    0    0  501    0  0.00000000000E+00 -0.00000000000E+00 -0.47672599261E+02  0.47672599261E+02  0.00000000000E+00 0. -1.
         23    2    1    2    0    0 -0.32690220824E+02 -0.55798552284E+01  0.11625937032E+03  0.17396264253E+03  0.12508786707E+03 0.  0.
          5    1    3    3  502    0 -0.70112626153E+02  0.10185522813E+02  0.11243586108E+03  0.13296172561E+03  0.41800000000E+01 0. -1.
         -5    1    3    3    0  502  0.37422405329E+02 -0.15765378042E+02  0.38235092343E+01  0.41000916920E+02  0.41800000000E+01 0. -1.
        -11    1    1    2    0    0  0.20878683427E+02 -0.39917024903E+02  0.62547845835E+02  0.77081264373E+02  0.00000000000E+00 0.  1.
         11    1    1    2    0    0  0.11811537396E+02  0.45496880131E+02  0.36252349204E+02  0.59360856969E+02  0.00000000000E+00 0. -1.
</event>
<event>
 7    1  0.5109948E-006  0.1277820E+03  0.7561462E-02  0.1230784E+00
         -2   -1    0    0    0  501 -0.00000000000E+00  0.00000000000E+00  0.14114689397E+03  0.14114689397E+03  0.00000000000E+00 0.  1.
          2   -1    0    0  501    0  0.00000000000E+00 -0.00000000000E+00 -0.13541401474E+03  0.13541401474E+03  0.00000000000E+00 0. -1.
         23    2    1    2    0    0  0.28317938059E+01  0.77638525001E+02  0.35456815578E+02  0.15146134951E+03  0.12509034736E+03 0.  0.
          5    1    3    3  502    0  0.18035153081E+02  0.10451943730E+03  0.26032355938E+01  0.10617828759E+03  0.41800000000E+01 0.  1.
         -5    1    3    3    0  502 -0.15203359275E+02 -0.26880912297E+02  0.32853579984E+02  0.45283061921E+02  0.41800000000E+01 0.  1.
        -11    1    1    2    0    0  0.33551621221E+02 -0.11714516406E+01  0.42841918373E+01  0.33844318360E+02  0.00000000000E+00 0.  1.
         11    1    1    2    0    0 -0.36383415027E+02 -0.76467073360E+02 -0.34008128186E+02  0.91255240836E+02  0.00000000000E+00 0. -1.
</event>
<event>
 7    1  0.5109948E-006  0.1413774E+03  0.7561462E-02  0.1211487E+00
          3   -1    0    0  501    0  0.00000000000E+00  0.00000000000E+00  0.11346386738E+02  0.11346386738E+02  0.00000000000E+00 0. -1.
         -3   -1    0    0    0  501 -0.00000000000E+00 -0.00000000000E+00 -0.38112685712E+04  0.38112685712E+04  0.00000000000E+00 0.  1.
         23    2    1    2    0    0  0.91565489008E+02  0.28021945543E+02 -0.33438785036E+04  0.33475871634E+04  0.12508757703E+03 0.  0.
          5    1    3    3  502    0  0.11501629301E+03 -0.14522879675E+01 -0.21202262123E+04  0.21233481864E+04  0.41800000000E+01 0. -1.
         -5    1    3    3    0  502 -0.23450804004E+02  0.29474233511E+02 -0.12236522913E+04  0.12242389771E+04  0.41800000000E+01 0. -1.
        -11    1    1    2    0    0 -0.54674168146E+02 -0.59828367158E+02 -0.33233603420E+03  0.34207592404E+03  0.00000000000E+00 0.  1.
         11    1    1    2    0    0 -0.36891320862E+02  0.31806421614E+02 -0.12370764669E+03  0.13295187046E+03  0.00000000000E+00 0. -1.
</event>
<event>
 7    1  0.5109948E-006  0.1083812E+03  0.7561462E-02  0.1263597E+00
         -1   -1    0    0    0  501 -0.00000000000E+00  0.00000000000E+00  0.54135167777E+02  0.54135167777E+02  0.00000000000E+00 0.  1.
          1   -1    0    0  501    0  0.00000000000E+00 -0.00000000000E+00 -0.22946563041E+03  0.22946563041E+03  0.00000000000E+00 0. -1.
         23    2    1    2    0    0 -0.35318559617E+01 -0.23347736781E+02 -0.86936091000E+02  0.15415252716E+03  0.12509007511E+03 0.  0.
          5    1    3    3  502    0  0.58094867457E+02 -0.14686353815E+02 -0.21623747835E+02  0.63841690796E+02  0.41800000000E+01 0. -1.
         -5    1    3    3    0  502 -0.61626723419E+02 -0.86613829652E+01 -0.65312343165E+02  0.90310836359E+02  0.41800000000E+01 0. -1.
        -11    1    1    2    0    0 -0.30663045290E+02  0.44553345021E+02 -0.55279202393E+02  0.77337010003E+02  0.00000000000E+00 0. -1.
         11    1    1    2    0    0  0.34194901251E+02 -0.21205608240E+02 -0.33115169243E+02  0.52111261032E+02  0.00000000000E+00 0.  1.
</event>
<event>
 7    1  0.5109948E-006  0.5782665E+02  0.7561462E-02  0.1407185E+00
          2   -1    0    0  501    0  0.00000000000E+00  0.00000000000E+00  0.24789230711E+02  0.24789230711E+02  0.00000000000E+00 0.  1.
         -2   -1    0    0    0  501 -0.00000000000E+00 -0.00000000000E+00 -0.50969216954E+03  0.50969216954E+03  0.00000000000E+00 0. -1.
         23    2    1    2    0    0  0.12405150559E+02 -0.23446693602E+02 -0.33085999362E+03  0.35471066973E+03  0.12509072162E+03 0.  0.
          5    1    3    3  502    0  0.29849329422E+02  0.67980405888E+01 -0.10809140002E+02  0.32733862136E+02  0.41800000000E+01 0. -1.
         -5    1    3    3    0  502 -0.17444178862E+02 -0.30244734190E+02 -0.32005085362E+03  0.32197680759E+03  0.41800000000E+01 0. -1.
        -11    1    1    2    0    0 -0.18717938099E-01  0.33584965968E+02 -0.15939372434E+03  0.16289355312E+03  0.00000000000E+00 0. -1.
         11    1    1    2    0    0 -0.12386432621E+02 -0.10138272367E+02  0.53507791371E+01  0.16877177401E+02  0.00000000000E+00 0.  1.
</event>
<event>
 7    1  0.5109948E-006  0.1835185E+03  0.7561462E-02  0.1164441E+00
          2   -1    0    0  501    0  0.00000000000E+00  0.00000000000E+00  0.34773965584E+03  0.34773965584E+03  0.00000000000E+00 0.  1.
         -2   -1    0    0    0  501 -0.00000000000E+00 -0.00000000000E+00 -0.27326857215E+03  0.27326857215E+03  0.00000000000E+00 0. -1.
         23    2    1    2    0    0  0.17525516289E+03  0.40319652535E+02 -0.18909910430E+03  0.28937979763E+03  0.12506857930E+03 0.  0.
          5    1    3    3  502    0  0.75205688960E+02  0.20730070836E+02 -0.16787281012E+03  0.18516042846E+03  0.41800000000E+01 0. -1.
         -5    1    3    3    0  502  0.10004947393E+03  0.19589581699E+02 -0.21226294172E+02  0.10421936917E+03  0.41800000000E+01 0. -1.
        -11    1    1    2    0    0 -0.97744064461E+02 -0.48175539240E+02  0.21149749575E+03  0.23792010303E+03  0.00000000000E+00 0.  1.
         11    1    1    2    0    0 -0.77511098430E+02  0.78558867053E+01  0.52072692238E+02  0.93708327339E+02  0.00000000000E+00 0. -1.
</event>
<event>
 7    1  0.5109948E-006  0.1120173E+03  0.7561462E-02  0.1256879E+00
         -1   -1    0    0    0  501 -0.00000000000E+00  0.00000000000E+00  0.10907228598E+03  0.10907228598E+03  0.00000000000E+00 0.  1.
          1   -1    0    0  501    0  0.00000000000E+00 -0.00000000000E+00 -0.33583805596E+03  0.33583805596E+03  0.00000000000E+00 0. -1.
         23    2    1    2    0    0  0.62418498505E+01 -0.90406671616E+02  0.30664897122E+02  0.15748077725E+03  0.12509009683E+03 0.  0.
          5    1    3    3  502    0  0.30819536706E+02 -0.93066402494E+02  0.62966265164E+02  0.11659083182E+03  0.41800000000E+01 0.  1.
         -5    1    3    3    0  502 -0.24577686855E+02  0.26597308777E+01 -0.32301368042E+02  0.40889945425E+02  0.41800000000E+01 0.  1.
        -11    1    1    2    0    0 -0.24542052124E+02  0.37158030528E+02 -0.20733894571E+03  0.21206713551E+03  0.00000000000E+00 0. -1.
         11    1    1    2    0    0  0.18300202273E+02  0.53248641088E+02 -0.50091721396E+02  0.75362429190E+02  0.00000000000E+00 0.  1.
</event>
<event>
 7    1  0.5109948E-006  0.7140433E+02  0.7561462E-02  0.1355382E+00
         -2   -1    0    0    0  501 -0.00000000000E+00  0.00000000000E+00  0.75915075498E+02  0.75915075498E+02  0.00000000000E+00 0.  1.
          2   -1    0    0  501    0  0.00000000000E+00 -0.00000000000E+00 -0.21379242275E+03  0.21379242275E+03  0.00000000000E+00 0. -1.
         23    2    1    2    0    0 -0.66152001190E+02  0.25470646311E+01 -0.85040603162E+02  0.16510197315E+03  0.12507670667E+03 0.  0.
          5    1    3    3  502    0 -0.33180094859E+01  0.57498634162E+01  0.31572910883E+02  0.32532925136E+02  0.41800000000E+01 0. -1.
         -5    1    3    3    0  502 -0.62833991704E+02 -0.32027987851E+01 -0.11661351405E+03  0.13256904801E+03  0.41800000000E+01 0. -1.
        -11    1    1    2    0    0  0.17539965157E+02 -0.13433734837E+02 -0.68826928813E+02  0.72285971940E+02  0.00000000000E+00 0. -1.
         11    1    1    2    0    0  0.48612036033E+02  0.10886670206E+02  0.15990184721E+02  0.52319553160E+02  0.00000000000E+00 0.  1.
</event>
<event>
 7    1  0.5109948E-006  0.4888066E+02  0.7561462E-02  0.1451474E+00
         -1   -1    0    0    0  501 -0.00000000000E+00  0.00000000000E+00  0.12736685280E+03  0.12736685280E+03  0.00000000000E+00 0.  1.
          1   -1    0    0  501    0  0.00000000000E+00 -0.00000000000E+00 -0.74006650843E+02  0.74006650843E+02  0.00000000000E+00 0. -1.
         23    2    1    2    0    0 -0.28207174636E+02 -0.78374822706E+01  0.32299683586E+02  0.13246933645E+03  0.12509110564E+03 0.  0.
          5    1    3    3  502    0  0.12735537148E+02  0.10335860482E+02  0.71083180329E+02  0.73070615463E+02  0.41800000000E+01 0.  1.
         -5    1    3    3    0  502 -0.40942711784E+02 -0.18173342753E+02 -0.38783496743E+02  0.59398720985E+02  0.41800000000E+01 0.  1.
        -11    1    1    2    0    0  0.70435906076E+01  0.12339744913E+02  0.38548300931E+02  0.41083487897E+02  0.00000000000E+00 0.  1.
         11    1    1    2    0    0  0.21163584029E+02 -0.45022626424E+01 -0.17487782558E+02  0.27820679299E+02  0.00000000000E+00 0. -1.
</event>
<event>
 7    1  0.5109948E-006  0.1933134E+03  0.7561462E-02  0.1155506E+00
          1   -1    0    0  501    0  0.00000000000E+00  0.00000000000E+00  0.13544870082E+04  0.13544870082E+04  0.00000000000E+00 0. -1.
         -1   -1    0    0    0  501 -0.00000000000E+00 -0.00000000000E+00 -0.29469730709E+02  0.29469730709E+02  0.00000000000E+00 0.  1.
         23    2    1    2    0    0 -0.87706127603E+02  0.14298437467E+03  0.61744648905E+03  0.65193812551E+03  0.12508499687E+03 0.  0.
          5    1    3    3  502    0 -0.29237666863E+01  0.10848547461E+03  0.23837680269E+03  0.26195155864E+03  0.41800000000E+01 0. -1.
         -5    1    3    3    0  502 -0.84782360916E+02  0.34498900059E+02  0.37906968635E+03  0.38998656687E+03  0.41800000000E+01 0. -1.
        -11    1    1    2    0    0 -0.84544056106E+01 -0.56292827406E+02  0.17959399630E+03  0.18839947690E+03  0.00000000000E+00 0.  1.
         11    1    1    2    0    0  0.96160533213E+02 -0.86691547260E+02  0.52797679215E+03  0.54361913650E+03  0.00000000000E+00 0. -1.
</event>
<event>
 6    1  0.5109948E-006  0.7085901E+02  0.7561462E-02  0.1357196E+00
          2   -1    0    0  501    0  0.00000000000E+00  0.00000000000E+00  0.65525196681E+03  0.65525196681E+03  0.00000000000E+00 0. -1.
         -2   -1    0    0    0  501 -0.00000000000E+00 -0.00000000000E+00 -0.29144152301E+02  0.29144152301E+02  0.00000000000E+00 0.  1.
          5    1    1    2  502    0  0.17077449848E+02  0.22452005441E+02  0.39826998500E+03  0.39928960065E+03  0.41800000000E+01 0. -1.
         -5    1    1    2    0  502  0.20519968477E+01 -0.23605068112E+02 -0.12220456731E+02  0.26985586789E+02  0.41800000000E+01 0.  1.
        -11    1    1    2    0    0  0.23006252657E+02  0.30199222867E+02  0.14802197608E+03  0.15281291217E+03  0.00000000000E+00 0.  1.
         11    1    1    2    0    0 -0.42135699353E+02 -0.29046160197E+02  0.92036310164E+02  0.10530801950E+03  0.00000000000E+00 0. -1.
</event>
<event>
 7    1  0.5109948E-006  0.1121404E+03  0.7561462E-02  0.1256657E+00
          3   -1    0    0  501    0  0.00000000000E+00  0.00000000000E+00  0.97583463921E+03  0.97583463921E+03  0.00000000000E+00 0. -1.
         -3   -1    0    0    0  501 -0.00000000000E+00 -0.00000000000E+00 -0.13667380290E+02  0.13667380290E+02  0.00000000000E+00 0.  1.
         23    2    1    2    0    0 -0.42060165874E+02 -0.57809343464E+01  0.50301043151E+03  0.52006638635E+03  0.12508826986E+03 0.  0.
          5    1    3    3  502    0 -0.47883877678E+02  0.53493974068E+02  0.29657610863E+03  0.30517098750E+03  0.41800000000E+01 0.  1.
         -5    1    3    3    0  502  0.58237118039E+01 -0.59274908415E+02  0.20643432287E+03  0.21489539885E+03  0.41800000000E+01 0.  1.
        -11    1    1    2    0    0  0.63592882751E+02 -0.12020959843E+02  0.38048928728E+03  0.38595421483E+03  0.00000000000E+00 0. -1.
         11    1    1    2    0    0 -0.21532716877E+02  0.17801894190E+02  0.78667540137E+02  0.83481418316E+02  0.00000000000E+00 0.  1.
</event>
<event>
 7    1  0.5109948E-006  0.1346055E+03  0.7561462E-02  0.1220778E+00
         -2   -1    0    0    0  501 -0.00000000000E+00  0.00000000000E+00  0.12764814656E+03  0.12764814656E+03  0.00000000000E+00 0.  1.
          2   -1    0    0  501    0  0.00000000000E+00 -0.00000000000E+00 -0.15239837872E+03  0.15239837872E+03  0.00000000000E+00 0. -1.
         23    2    1    2    0    0  0.53100277458E+02  0.69736247878E+02 -0.50830600036E+01  0.15289669275E+03  0.12517498720E+03 0.  0.
          5    1    3    3  502    0  0.27642288074E+02  0.10287175966E+03 -0.19745315987E+02  0.10841607320E+03  0.41800000000E+01 0.  1.
         -5    1    3    3    0  502  0.25457989384E+02 -0.33135511783E+02  0.14662255983E+02  0.44480619545E+02  0.41800000000E+01 0.  1.
        -11    1    1    2    0    0 -0.93029711392E+01  0.19279483062E+02 -0.17936604667E+02  0.27927862899E+02  0.00000000000E+00 0. -1.
         11    1    1    2    0    0 -0.43797306319E+02 -0.89015730940E+02 -0.17305674898E+01  0.99221969640E+02  0.00000000000E+00 0.  1.
</event>
<event>
 7    1  0.5109948E-006  0.1182006E+03  0.7561462E-02  0.1246095E+00
          2   -1    0    0  501    0  0.00000000000E+00  0.00000000000E+00  0.11241105974E+03  0.11241105974E+03  0.00000000000E+00 0. -1.
         -2   -1    0    0    0  501 -0.00000000000E+00 -0.00000000000E+00 -0.14436255900E+03  0.14436255900E+03  0.00000000000E+00 0.  1.
         23    2    1    2    0    0 -0.69357932450E+01 -0.66469118841E+02 -0.27081641038E+02  0.14438510008E+03  0.12508953936E+03 0.  0.
          5    1    3    3  502    0 -0.41603095491E+02 -0.81296154790E+02 -0.45611691909E+02  0.10216545980E+03  0.41800000000E+01 0. -1.
         -5    1    3    3    0  502  0.34667302246E+02  0.14827035949E+02  0.18530050871E+02  0.42219640280E+02  0.41800000000E+01 0. -1.
        -11    1    1    2    0    0  0.42313492618E+02  0.15626470312E+02 -0.18855711288E+02  0.48889222536E+02  0.00000000000E+00 0.  1.
         11    1    1    2    0    0 -0.35377699373E+02  0.50842648529E+02  0.13985853062E+02  0.63499296124E+02  0.00000000000E+00 0. -1.
</event>
<event>
 7    1  0.5109948E-006  0.1277251E+03  0.7561462E-02  0.1230871E+00
         -2   -1    0    0    0  501 -0.00000000000E+00  0.00000000000E+00  0.12248518313E+03  0.12248518313E+03  0.00000000000E+00 0.  1.
          2   -1    0    0  501    0  0.00000000000E+00 -0.00000000000E+00 -0.18419540361E+03  0.18419540361E+03  0.00000000000E+00 0. -1.
         23    2    1    2    0    0 -0.86510687126E+02 -0.16284678217E+02  0.21826426114E+02  0.15451135071E+03  0.12509226551E+03 0.  0.
          5    1    3    3  502    0  0.30127887383E+02 -0.95211853060E+01 -0.98993597332E+01  0.33373826435E+02  0.41800000000E+01 0. -1.
         -5    1    3    3    0  502 -0.11663857451E+03 -0.67634929107E+01  0.31725785847E+02  0.12113752427E+03  0.41800000000E+01 0. -1.
        -11    1    1    2    0    0  0.37784210653E+02  0.37762091469E+02 -0.37572326030E+00  0.53420626117E+02  0.00000000000E+00 0.  1.
         11    1    1    2    0    0  0.48726476473E+02 -0.21477413252E+02 -0.83160923340E+02  0.98748609915E+02  0.00000000000E+00 0. -1.
</event>
<event>
 7    1  0.5109948E-006  0.9931837E+02  0.7561462E-02  0.1281736E+00
          2   -1    0    0  501    0  0.00000000000E+00  0.00000000000E+00  0.77576470392E+02  0.77576470392E+02  0.00000000000E+00 0. -1.
         -2   -1    0    0    0  501 -0.00000000000E+00 -0.00000000000E+00 -0.18146132990E+03  0.18146132990E+03  0.00000000000E+00 0.  1.
         23    2    1    2    0    0  0.31018302593E+02 -0.86515904464E+01 -0.97534863393E+02  0.16185771236E+03  0.12509150395E+03 0.  0.
          5    1    3    3  502    0  0.78789623243E+02 -0.93961416310E+01 -0.47613891827E+02  0.92631783439E+02  0.41800000000E+01 0. -1.
         -5    1    3    3    0  502 -0.47771320649E+02  0.74455118466E+00 -0.49920971566E+02  0.69225928922E+02  0.41800000000E+01 0. -1.
        -11    1    1    2    0    0 -0.32466224654E+02 -0.22839333277E+02 -0.36231658810E+02  0.53744060025E+02  0.00000000000E+00 0.  1.
         11    1    1    2    0    0  0.14479220607E+01  0.31490923724E+02  0.29881662692E+02  0.43436027909E+02  0.00000000000E+00 0. -1.
</event>
<event>
 7    1  0.5109948E-006  0.1062139E+03  0.7561462E-02  0.1267746E+00
          2   -1    0    0  501    0  0.00000000000E+00  0.00000000000E+00  0.18501718768E+03  0.18501718768E+03  0.00000000000E+00 0. -1.
         -2   -1    0    0    0  501 -0.00000000000E+00 -0.00000000000E+00 -0.80915001133E+02  0.80915001133E+02  0.00000000000E+00 0.  1.
         23    2    1    2    0    0 -0.40234210486E+02 -0.38328564377E+02  0.38516554527E+02  0.14219224601E+03  0.12508892562E+03 0.  0.
          5    1    3    3  502    0 -0.15322490612E+02 -0.77626516586E+02 -0.35685804780E+01  0.79314954217E+02  0.41800000000E+01 0. -1.
         -5    1    3    3    0  502 -0.24911719874E+02  0.39297952209E+02  0.42085135005E+02  0.62877291794E+02  0.41800000000E+01 0. -1.
        -11    1    1    2    0    0  0.62806413682E+01 -0.18909957259E+02 -0.10608354436E+02  0.22573659946E+02  0.00000000000E+00 0.  1.
         11    1    1    2    0    0  0.33953569117E+02  0.57238521636E+02  0.76193986451E+02  0.10116628285E+03  0.00000000000E+00 0. -1.
</event>
<event>
 7    1  0.5109948E-006  0.1274208E+03  0.7561462E-02  0.1231334E+00
         -1   -1    0    0    0  501 -0.00000000000E+00  0.00000000000E+00  0.84654212025E+03  0.84654212025E+03  0.00000000000E+00 0.  1.
          1   -1    0    0  501    0  0.00000000000E+00 -0.00000000000E+00 -0.21951638206E+02  0.21951638206E+02  0.00000000000E+00 0. -1.
         23    2    1    2    0    0  0.80593934331E+02 -0.99194444383E+01  0.44446342627E+03  0.46881631244E+03  0.12508884799E+03 0.  0.
          5    1    3    3  502    0 -0.25382662581E+02 -0.61406890285E+01  0.25932761909E+02  0.37040088575E+02  0.41800000000E+01 0. -1.
         -5    1    3    3    0  502  0.10597659691E+03 -0.37787554098E+01  0.41853066436E+03  0.43177622387E+03  0.41800000000E+01 0. -1.
        -11    1    1    2    0    0  0.65671664203E+01 -0.26869916696E+02  0.64618920466E+02  0.70290290796E+02  0.00000000000E+00 0. -1.
         11    1    1    2    0    0 -0.87161100752E+02  0.36789361134E+02  0.31550813530E+03  0.32938715521E+03  0.00000000000E+00 0.  1.
</event>
<event>
 7    1  0.5109948E-006  0.7925378E+02  0.7561462E-02  0.1331183E+00
          1   -1    0    0  501    0  0.00000000000E+00  0.00000000000E+00  0.70255383113E+02  0.70255383113E+02  0.00000000000E+00 0.  1.
         -1   -1    0    0    0  501 -0.00000000000E+00 -0.00000000000E+00 -0.19067055161E+03  0.19067055161E+03  0.00000000000E+00 0. -1.
         23    2    1    2    0    0  0.65207687978E+01 -0.24761777009E+02 -0.10534761297E+03  0.16553291977E+03  0.12508941579E+03 0.  0.
          5    1    3    3  502    0  0.18312839672E+02 -0.61355334709E+02 -0.10921199535E+03  0.12666716039E+03  0.41800000000E+01 0. -1.
         -5    1    3    3    0  502 -0.11792070874E+02  0.36593557700E+02  0.38643823785E+01  0.38865759375E+02  0.41800000000E+01 0. -1.
        -11    1    1    2    0    0 -0.18007675344E+02 -0.89096518158E+01  0.31150623105E+02  0.37067770187E+02  0.00000000000E+00 0.  1.
         11    1    1    2    0    0  0.11486906546E+02  0.33671428825E+02 -0.46218178636E+02  0.58325244771E+02  0.00000000000E+00 0. -1.
</event>
<event>
 7    1  0.5109948E-006  0.8501313E+02  0.7561462E-02  0.1315398E+00
          2   -1    0    0  501    0  0.00000000000E+00  0.00000000000E+00  0.74498158838E+02  0.74498158838E+02  0.00000000000E+00 0. -1.
         -2   -1    0    0    0  501 -0.00000000000E+00 -0.00000000000E+00 -0.17201678358E+03  0.17201678358E+03  0.00000000000E+00 0.  1.
         23    2    1    2    0    0 -0.12412272171E+02  0.10572325909E+02 -0.86533791902E+02  0.15297553405E+03  0.12509028060E+03 0.  0.
          5    1    3    3  502    0 -0.45774391291E+02  0.52784440629E+02 -0.34594574212E+02  0.78075278005E+02  0.41800000000E+01 0. -1.
         -5    1    3    3    0  502  0.33362119120E+02 -0.42212114720E+02 -0.51939217690E+02  0.74900256045E+02  0.41800000000E+01 0. -1.
        -11    1    1    2    0    0  0.22708635983E+02 -0.21344931124E+02 -0.45955249849E+02  0.55526329084E+02  0.00000000000E+00 0.  1.
         11    1    1    2    0    0 -0.10296363812E+02  0.10772605215E+02  0.34970417009E+02  0.38013079284E+02  0.00000000000E+00 0. -1.
</event>
<event>
 7    1  0.5109948E-006  0.1669648E+03  0.7561462E-02  0.1181051E+00
          1   -1    0    0  501    0  0.00000000000E+00  0.00000000000E+00  0.25185498739E+03  0.25185498739E+03  0.00000000000E+00 0. -1.
         -1   -1    0    0    0  501 -0.00000000000E+00 -0.00000000000E+00 -0.36882885036E+03  0.36882885036E+03  0.00000000000E+00 0.  1.
         23    2    1    2    0    0  0.81697182631E+01  0.67147248903E+02 -0.27293379916E+03  0.30858875661E+03  0.12711673631E+03 0.  0.
          5    1    3    3  502    0 -0.27067781333E+02 -0.28088904564E+02 -0.10744845056E+03  0.11438659569E+03  0.41800000000E+01 0. -1.
         -5    1    3    3    0  502  0.35237499596E+02  0.95236153467E+02 -0.16548534859E+03  0.19420216092E+03  0.41800000000E+01 0.  1.
        -11    1    1    2    0    0  0.83869249703E+02 -0.54841134598E+02 -0.29693170758E+02  0.10451452282E+03  0.00000000000E+00 0.  1.
         11    1    1    2    0    0 -0.92038967966E+02 -0.12306114305E+02  0.18565310695E+03  0.20758055833E+03  0.00000000000E+00 0. -1.
</event>
<event>
 7    1  0.5109948E-006  0.1047960E+03  0.7561462E-02  0.1270522E+00
         -2   -1    0    0    0  501 -0.00000000000E+00  0.00000000000E+00  0.24034002157E+03  0.24034002157E+03  0.00000000000E+00 0.  1.
          2   -1    0    0  501    0  0.00000000000E+00 -0.00000000000E+00 -0.60011587255E+02  0.60011587255E+02  0.00000000000E+00 0. -1.
         23    2    1    2    0    0  0.16544100765E+02  0.47347215462E+02  0.11789552554E+03  0.17905845798E+03  0.12508841013E+03 0.  0.
          5    1    3    3  502    0 -0.37367530088E+02  0.51552558523E+01 -0.50391932597E+01  0.38285438962E+02  0.41800000000E+01 0.  1.
         -5    1    3    3    0  502  0.53911630853E+02  0.42191959610E+02  0.12293471880E+03  0.14077301902E+03  0.41800000000E+01 0.  1.
        -11    1    1    2    0    0  0.31299742984E+01 -0.71687536459E+02  0.35764858923E+02  0.80174963401E+02  0.00000000000E+00 0.  1.
         11    1    1    2    0    0 -0.19674075064E+02  0.24340320997E+02  0.26668049856E+02  0.41118187447E+02  0.00000000000E+00 0. -1.
</event>
<event>
 6    1  0.5109948E-006  0.1821691E+03  0.7561462E-02  0.1165720E+00
         -2   -1    0    0    0  501 -0.00000000000E+00  0.00000000000E+00  0.18820231328E+03  0.18820231328E+03  0.00000000000E+00 0.  1.
          2   -1    0    0  501    0  0.00000000000E+00 -0.00000000000E+00 -0.37704242112E+03  0.37704242112E+03  0.00000000000E+00 0. -1.
          5    1    1    2  502    0  0.34014016566E+02 -0.16601504922E+03 -0.12695359737E+03  0.21178441438E+03  0.41800000000E+01 0. -1.
         -5    1    1    2    0  502  0.32897978155E+02  0.52530857379E+02  0.10525060811E+03  0.12221673720E+03  0.41800000000E+01 0.  1.
        -11    1    1    2    0    0 -0.20312666261E+02  0.21453356574E+02  0.55797407119E+01  0.30066333753E+02  0.00000000000E+00 0.  1.
         11    1    1    2    0    0 -0.46599328460E+02  0.92030835267E+02 -0.17271685931E+03  0.20117724907E+03  0.00000000000E+00 0. -1.
</event>
<event>
 7    1  0.5109948E-006  0.1079573E+03  0.7561462E-02  0.1264400E+00
          1   -1    0    0  501    0  0.00000000000E+00  0.00000000000E+00  0.26107987783E+03  0.26107987783E+03  0.00000000000E+00 0. -1.
         -1   -1    0    0    0  501 -0.00000000000E+00 -0.00000000000E+00 -0.50343615662E+02  0.50343615662E+02  0.00000000000E+00 0.  1.
         23    2    1    2    0    0  0.27041792246E+02 -0.43306737055E+01  0.85892640339E+02  0.15419447521E+03  0.12509347409E+03 0.  0.
          5    1    3    3  502    0 -0.14848106238E+02  0.51630145042E+02  0.57006155220E+02  0.78443051119E+02  0.41800000000E+01 0. -1.
         -5    1    3    3    0  502  0.41889898484E+02 -0.55960818747E+02  0.28886485120E+02  0.75751424095E+02  0.41800000000E+01 0. -1.
        -11    1    1    2    0    0  0.32196045037E+02 -0.28909449726E+01  0.24816840399E+02  0.40753140323E+02  0.00000000000E+00 0.  1.
         11    1    1    2    0    0 -0.59237837282E+02  0.72216186781E+01  0.10002678143E+03  0.11647587796E+03  0.00000000000E+00 0. -1.
</event>
<event>
 7    1  0.5109948E-006  0.1811899E+03  0.7561462E-02  0.1166656E+00
         -1   -1    0    0    0  501 -0.00000000000E+00  0.00000000000E+00  0.37869390491E+03  0.37869390491E+03  0.00000000000E+00 0.  1.
          1   -1    0    0  501    0  0.00000000000E+00 -0.00000000000E+00 -0.12512219725E+03  0.12512219725E+03  0.00000000000E+00 0. -1.
         23    2    1    2    0    0  0.18069637320E+03 -0.90866352703E+01  0.19132401907E+03  0.29157277146E+03  0.12520405168E+03 0.  0.
          5    1    3    3  502    0  0.37158928440E+02 -0.42563466291E+01  0.13002741194E+03  0.13536433321E+03  0.41800000000E+01 0.  1.
         -5    1    3    3    0  502  0.14353744476E+03 -0.48302886412E+01  0.61296607131E+02  0.15620843826E+03  0.41800000000E+01 0.  1.
        -11    1    1    2    0    0 -0.65196204138E+02  0.67139426916E+01 -0.22140238802E+02  0.69179565153E+02  0.00000000000E+00 0.  1.
         11    1    1    2    0    0 -0.11550016906E+03  0.23726925787E+01  0.84387927396E+02  0.14306376555E+03  0.00000000000E+00 0. -1.
</event>
<event>
 7    1  0.5109948E-006  0.1340379E+03  0.7561462E-02  0.1221584E+00
         -2   -1    0    0    0  501 -0.00000000000E+00  0.00000000000E+00  0.55446447971E+02  0.55446447971E+02  0.00000000000E+00 0.  1.
          2   -1    0    0  501    0  0.00000000000E+00 -0.00000000000E+00 -0.41103383995E+03  0.41103383995E+03  0.00000000000E+00 0. -1.
         23    2    1    2    0    0 -0.10354670746E+03 -0.16942227660E+02 -0.21679137404E+03  0.27139586942E+03  0.12509299890E+03 0.  0.
          5    1    3    3  502    0 -0.13015887630E+01 -0.36224133769E+02 -0.69580353338E+01  0.37145237330E+02  0.41800000000E+01 0. -1.
         -5    1    3    3    0  502 -0.10224511870E+03  0.19281906108E+02 -0.20983333870E+03  0.23425063209E+03  0.41800000000E+01 0. -1.
        -11    1    1    2    0    0  0.19640198913E+02 -0.26489294470E+02 -0.83499171351E+01  0.34016778963E+02  0.00000000000E+00 0.  1.
         11    1    1    2    0    0  0.83906508549E+02  0.43431522130E+02 -0.13044610080E+03  0.16106763954E+03  0.00000000000E+00 0. -1.
</event>
<event>
 7    1  0.5109948E-006  0.1193399E+03  0.7561462E-02  0.1244190E+00
         -4   -1    0    0    0  501 -0.00000000000E+00  0.00000000000E+00  0.44724808806E+02  0.44724808806E+02  0.00000000000E+00 0.  1.
          4   -1    0    0  501    0  0.00000000000E+00 -0.00000000000E+00 -0.50907387654E+03  0.50907387654E+03  0.00000000000E+00 0. -1.
         23    2    1    2    0    0 -0.72559772177E+02 -0.18662642021E+02 -0.12679218155E+03  0.19322811314E+03  0.12509049389E+03 0.  0.
          5    1    3    3  502    0  0.58713686453E+01 -0.41883702740E+02 -0.97300352388E+02  0.10617696784E+03  0.41800000000E+01 0. -1.
         -5    1    3    3    0  502 -0.78431140822E+02  0.23221060719E+02 -0.29491829160E+02  0.87051145304E+02  0.41800000000E+01 0. -1.
        -11    1    1    2    0    0  0.24702752726E+02 -0.34702310936E+02 -0.20978002066E+03  0.21406105074E+03  0.00000000000E+00 0. -1.
         11    1    1    2    0    0  0.47857019451E+02  0.53364952956E+02 -0.12777686553E+03  0.14650952146E+03  0.00000000000E+00 0.  1.
</event>
<event>
 7    1  0.5109948E-006  0.1197449E+03  0.7561462E-02  0.1243518E+00
         -1   -1    0    0    0  501 -0.00000000000E+00  0.00000000000E+00  0.10290121130E+03  0.10290121130E+03  0.00000000000E+00 0.  1.
          1   -1    0    0  501    0  0.00000000000E+00 -0.00000000000E+00 -0.14963511370E+03  0.14963511370E+03  0.00000000000E+00 0. -1.
         23    2    1    2    0    0 -0.50731401295E+02 -0.20683427545E+02 -0.49720401931E+00  0.13655582111E+03  0.12508303568E+03 0.  0.
          5    1    3    3  502    0  0.15288461565E+02  0.40626216597E+02  0.12655712751E+02  0.45407774634E+02  0.41800000000E+01 0. -1.
         -5    1    3    3    0  502 -0.66019862860E+02 -0.61309644142E+02 -0.13152916770E+02  0.91148046476E+02  0.41800000000E+01 0. -1.
        -11    1    1    2    0    0 -0.10507450117E+02  0.40092347281E+02 -0.11809063158E+02  0.43095902255E+02  0.00000000000E+00 0.  1.
         11    1    1    2    0    0  0.61238851413E+02 -0.19408919737E+02 -0.34427635221E+02  0.72884601629E+02  0.00000000000E+00 0. -1.
</event>
<event>
 7    1  0.5109948E-006  0.4017924E+03  0.7561462E-02  0.1043161E+00
          2   -1    0    0  501    0  0.00000000000E+00  0.00000000000E+00  0.69307040052E+03  0.69307040052E+03  0.00000000000E+00 0. -1.
         -2   -1    0    0    0  501 -0.00000000000E+00 -0.00000000000E+00 -0.28782916504E+03  0.28782916504E+03  0.00000000000E+00 0.  1.
         23    2    1    2    0    0  0.38054324291E+03 -0.10853732916E+03  0.11031209779E+02  0.41516120092E+03  0.12507447230E+03 0.  0.
          5    1    3    3  502    0  0.30326705643E+03 -0.10267524138E+03 -0.39378352015E+02  0.32261624217E+03  0.41800000000E+01 0. -1.
         -5    1    3    3    0  502  0.77276186476E+02 -0.58620877798E+01  0.50409561794E+02  0.92544958748E+02  0.41800000000E+01 0. -1.
        -11    1    1    2    0    0 -0.24538794054E+03  0.11384486737E+03  0.26081406239E+03  0.37576571202E+03  0.00000000000E+00 0. -1.
         11    1    1    2    0    0 -0.13515530236E+03 -0.53075382107E+01  0.13339596331E+03  0.18997265263E+03  0.00000000000E+00 0.  1.
</event>
<event>
 7    1  0.5109948E-006  0.2228484E+03  0.7561462E-02  0.1131777E+00
          2   -1    0    0  501    0  0.00000000000E+00  0.00000000000E+00  0.15500033574E+04  0.15500033574E+04  0.00000000000E+00 0.  1.
         -2   -1    0    0    0  501 -0.00000000000E+00 -0.00000000000E+00 -0.35995148330E+02  0.35995148330E+02  0.00000000000E+00 0. -1.
         23    2    1    2    0    0 -0.20828200421E+02  0.20817953408E+03  0.80911948486E+03  0.84504070438E+03  0.12508764504E+03 0.  0.
          5    1    3    3  502    0  0.16016300249E+02  0.11680540339E+02  0.12722608263E+02  0.23922668273E+02  0.41800000000E+01 0.  1.
         -5    1    3    3    0  502 -0.36844500670E+02  0.19649899374E+03  0.79639687660E+03  0.82111803611E+03  0.41800000000E+01 0.  1.
        -11    1    1    2    0    0  0.52944251293E+02 -0.10819032302E+03  0.43461525748E+03  0.45099740773E+03  0.00000000000E+00 0.  1.
         11    1    1    2    0    0 -0.32116050871E+02 -0.99989211059E+02  0.27027346674E+03  0.28996039363E+03  0.00000000000E+00 0. -1.
</event>
<event>
 7    1  0.5109948E-006  0.1794963E+03  0.7561462E-02  0.1168291E+00
         -2   -1    0    0    0  501 -0.00000000000E+00  0.00000000000E+00  0.15641529936E+03  0.15641529936E+03  0.00000000000E+00 0. -1.
          2   -1    0    0  501    0  0.00000000000E+00 -0.00000000000E+00 -0.21171624190E+03  0.21171624190E+03  0.00000000000E+00 0.  1.
         23    2    1    2    0    0 -0.41096743093E+02 -0.13792581896E+03 -0.13427632516E+02  0.19115998483E+03  0.12509742067E+03 0.  0.
          5    1    3    3  502    0  0.25184691935E+02 -0.11800140199E+03 -0.15927402254E+02  0.12177747789E+03  0.41800000000E+01 0.  1.
         -5    1    3    3    0  502 -0.66281435029E+02 -0.19924416973E+02  0.24997697380E+01  0.69382506945E+02  0.41800000000E+01 0.  1.
        -11    1    1    2    0    0  0.65763227824E+02  0.67220796012E+02 -0.39643752752E+02  0.10205422423E+03  0.00000000000E+00 0.  1.
         11    1    1    2    0    0 -0.24666484730E+02  0.70705022946E+02 -0.22295572655E+01  0.74917332203E+02  0.00000000000E+00 0. -1.
</event>
<event>
 7    1  0.5109948E-006  0.1243783E+03  0.7561462E-02  0.1236044E+00
          1   -1    0    0  501    0  0.00000000000E+00  0.00000000000E+00  0.76774548200E+03  0.76774548200E+03  0.00000000000E+00 0. -1.
         -1   -1    0    0    0  501 -0.00000000000E+00 -0.00000000000E+00 -0.30420594070E+02  0.30420594070E+02  0.00000000000E+00 0.  1.
         23    2    1    2    0    0 -0.92110879314E+02  0.21150953597E+02  0.26642393311E+03  0.30912820250E+03  0.12508699580E+03 0.  0.
          5    1    3    3  502    0 -0.28194539414E+02 -0.24967497535E+02  0.20671543403E+03  0.21015958473E+03  0.41800000000E+01 0.  1.
         -5    1    3    3    0  502 -0.63916339899E+02  0.46118451132E+02  0.59708499082E+02  0.98968617772E+02  0.41800000000E+01 0.  1.
        -11    1    1    2    0    0  0.62916762978E+02 -0.57556082978E+02  0.30744497181E+03  0.31905114393E+03  0.00000000000E+00 0.  1.
         11    1    1    2    0    0  0.29194116335E+02  0.36405129381E+02  0.16345598301E+03  0.16998672965E+03  0.00000000000E+00 0. -1.
</event>
<event>
 7    1  0.5109948E-006  0.8862321E+02  0.7561462E-02  0.1306220E+00
         -1   -1    0    0    0  501 -0.00000000000E+00  0.00000000000E+00  0.15079982289E+03  0.15079982289E+03  0.00000000000E+00 0.  1.
          1   -1    0    0  501    0  0.00000000000E+00 -0.00000000000E+00 -0.10634737346E+03  0.10634737346E+03  0.00000000000E+00 0. -1.
         23    2    1    2    0    0 -0.30960708568E+02  0.50895899744E+02  0.41509555554E+02  0.14462857237E+03  0.12508166396E+03 0.  0.
          5    1    3    3  502    0 -0.35562408610E+02  0.33615498905E+02  0.84580402227E+02  0.97805948253E+02  0.41800000000E+01 0.  1.
         -5    1    3    3    0  502  0.46017000418E+01  0.17280400839E+02 -0.43070846672E+02  0.46822624120E+02  0.41800000000E+01 0.  1.
        -11    1    1    2    0    0  0.40399927880E+01 -0.74110353308E+02 -0.95659738677E+01  0.74834309412E+02  0.00000000000E+00 0. -1.
         11    1    1    2    0    0  0.26920715780E+02  0.23214453564E+02  0.12508867746E+02  0.37684314571E+02  0.00000000000E+00 0.  1.
</event>
<event>
 7    1  0.5109948E-006  0.1751404E+03  0.7561462E-02  0.1172591E+00
          2   -1    0    0  501    0  0.00000000000E+00  0.00000000000E+00  0.10871397644E+04  0.10871397644E+04  0.00000000000E+00 0. -1.
         -2   -1    0    0    0  501 -0.00000000000E+00 -0.00000000000E+00 -0.33996647104E+02  0.33996647104E+02  0.00000000000E+00 0.  1.
         23    2    1    2    0    0 -0.12312621801E+03  0.96404978412E+02  0.47446487590E+03  0.51499382237E+03  0.12509089971E+03 0.  0.
          5    1    3    3  502    0 -0.70743445030E+01 -0.23420824002E+02  0.23631646327E+02  0.34271102334E+02  0.41800000000E+01 0.  1.
         -5    1    3    3    0  502 -0.11605187350E+03  0.11982580241E+03  0.45083322957E+03  0.48072272003E+03  0.41800000000E+01 0.  1.
        -11    1    1    2    0    0  0.10975003981E+03 -0.73555853866E+02  0.55536772969E+03  0.57086675333E+03  0.00000000000E+00 0. -1.
         11    1    1    2    0    0  0.13376178198E+02 -0.22849124546E+02  0.23310511692E+02  0.35275835795E+02  0.00000000000E+00 0.  1.
</event>
<event>
 6    1  0.5109948E-006  0.7514473E+02  0.7561462E-02  0.1343423E+00
         -1   -1    0    0    0  501 -0.00000000000E+00  0.00000000000E+00  0.44142302943E+02  0.44142302943E+02  0.00000000000E+00 0.  1.
          1   -1    0    0  501    0  0.00000000000E+00 -0.00000000000E+00 -0.31095330616E+03  0.31095330616E+03  0.00000000000E+00 0. -1.
          5    1    1    2  502    0 -0.11596715899E+02  0.81270096648E+01 -0.16335541732E+03  0.16402133054E+03  0.41800000000E+01 0. -1.
         -5    1    1    2    0  502  0.35329635928E+02 -0.24474172194E+02  0.87106920388E+01  0.44051297769E+02  0.41800000000E+01 0.  1.
        -11    1    1    2    0    0 -0.12866488020E+02 -0.36338137910E+02 -0.64537086797E+02  0.75173415200E+02  0.00000000000E+00 0.  1.
         11    1    1    2    0    0 -0.10866432008E+02  0.52685300438E+02 -0.47629191140E+02  0.71849565590E+02  0.00000000000E+00 0. -1.
</event>
<event>
 7    1  0.5109948E-006  0.1194710E+03  0.7561462E-02  0.1243972E+00
         -1   -1    0    0    0  501 -0.00000000000E+00  0.00000000000E+00  0.27977399910E+03  0.27977399910E+03  0.00000000000E+00 0. -1.
          1   -1    0    0  501    0  0.00000000000E+00 -0.00000000000E+00 -0.51282212286E+02  0.51282212286E+02  0.00000000000E+00 0.  1.
         23    2    1    2    0    0  0.34796919589E+02  0.41239469967E+02  0.12218140148E+03  0.18299416754E+03  0.12508817287E+03 0.  0.
          5    1    3    3  502    0  0.25391282720E+02 -0.43492445434E+02  0.51761955411E+02  0.72340047525E+02  0.41800000000E+01 0. -1.
         -5    1    3    3    0  502  0.94056368694E+01  0.84731915401E+02  0.70419446065E+02  0.11065412002E+03  0.41800000000E+01 0. -1.
        -11    1    1    2    0    0  0.19579303195E+02 -0.44460594255E+02  0.50710965739E+02  0.70226032219E+02  0.00000000000E+00 0. -1.
         11    1    1    2    0    0 -0.54376222784E+02  0.32211242879E+01  0.55599419597E+02  0.77836011623E+02  0.00000000000E+00 0.  1.
</event>
<event>
 7    1  0.5109948E-006  0.2279518E+03  0.7561462E-02  0.1128090E+00
         -1   -1    0    0    0  501 -0.00000000000E+00  0.00000000000E+00  0.13791085695E+03  0.13791085695E+03  0.00000000000E+00 0.  1.
          1   -1    0    0  501    0  0.00000000000E+00 -0.00000000000E+00 -0.10926109714E+04  0.10926109714E+04  0.00000000000E+00 0. -1.
         23    2    1    2    0    0  0.21771796269E+03  0.47072217087E+02 -0.10188765212E+02  0.25567339789E+03  0.12509264788E+03 0.  0.
          5    1    3    3  502    0  0.10154928974E+03  0.31418037279E+01  0.54722481812E+02  0.11547359695E+03  0.41800000000E+01 0. -1.
         -5    1    3    3    0  502  0.11616867295E+03  0.43930413359E+02 -0.64911247024E+02  0.14019980094E+03  0.41800000000E+01 0. -1.
        -11    1    1    2    0    0 -0.13675904713E+03 -0.92036835019E+00 -0.40820232901E+03  0.43050322352E+03  0.00000000000E+00 0.  1.
         11    1    1    2    0    0 -0.80958915566E+02 -0.46151848737E+02 -0.53630902023E+03  0.54434520695E+03  0.00000000000E+00 0. -1.
</event>
<event>
 7    1  0.5109948E-006  0.1271869E+03  0.7561462E-02  0.1231691E+00
         -2   -1    0    0    0  501 -0.00000000000E+00  0.00000000000E+00  0.59371720015E+02  0.59371720015E+02  0.00000000000E+00 0.  1.
          2   -1    0    0  501    0  0.00000000000E+00 -0.00000000000E+00 -0.43164634582E+03  0.43164634582E+03  0.00000000000E+00 0. -1.
         23    2    1    2    0    0  0.97400039692E+01 -0.11369571115E+03 -0.15762575181E+03  0.23133384653E+03  0.12509152052E+03 0.  0.
          5    1    3    3  502    0 -0.15012955593E+01 -0.51780807609E+02  0.93858445183E+01  0.52811669187E+02  0.41800000000E+01 0. -1.
         -5    1    3    3    0  502  0.11241299528E+02 -0.61914903540E+02 -0.16701159633E+03  0.17852217735E+03  0.41800000000E+01 0. -1.
        -11    1    1    2    0    0  0.10544561054E+02  0.11810836300E+03 -0.20492781936E+03  0.23676187262E+03  0.00000000000E+00 0. -1.
         11    1    1    2    0    0 -0.20284565023E+02 -0.44126518484E+01 -0.97210546383E+01  0.22922346690E+02  0.00000000000E+00 0.  1.
</event>
<event>
 7    1  0.5109948E-006  0.1014351E+03  0.7561462E-02  0.1277307E+00
          2   -1    0    0  501    0  0.00000000000E+00  0.00000000000E+00  0.19010010020E+03  0.19010010020E+03  0.00000000000E+00 0.  1.
         -2   -1    0    0    0  501 -0.00000000000E+00 -0.00000000000E+00 -0.71209350279E+02  0.71209350279E+02  0.00000000000E+00 0. -1.
         23    2    1    2    0    0  0.36414064208E+02  0.15908898436E+02  0.56500205643E+02  0.14289282088E+03  0.12508800062E+03 0.  0.
          5    1    3    3  502    0 -0.44753069954E+02  0.69769877179E+01  0.38611915916E+01  0.45649718821E+02  0.41800000000E+01 0.  1.
         -5    1    3    3    0  502  0.81167134162E+02  0.89319107179E+01  0.52639014052E+02  0.97243102056E+02  0.41800000000E+01 0.  1.
        -11    1    1    2    0    0 -0.39464853846E+02  0.16711495268E+02 -0.53297192591E+01  0.43187436490E+02  0.00000000000E+00 0. -1.
         11    1    1    2    0    0  0.30507896381E+01 -0.32620393703E+02  0.67720263541E+02  0.75229193116E+02  0.00000000000E+00 0.  1.
</event>
<event>
 7    1  0.5109948E-006  0.2085936E+03  0.7561462E-02  0.1142685E+00
         -1   -1    0    0    0  501 -0.00000000000E+00  0.00000000000E+00  0.61711227459E+03  0.61711227459E+03  0.00000000000E+00 0.  1.
          1   -1    0    0  501    0  0.00000000000E+00 -0.00000000000E+00 -0.83651281261E+02  0.83651281261E+02  0.00000000000E+00 0. -1.
         23    2    1    2    0    0  0.17287460319E+03 -0.85826571097E+02  0.35224333017E+03  0.42042667714E+03  0.12422318006E+03 0.  0.
          5    1    3    3  502    0  0.39060784140E+02 -0.72721213110E+02  0.72185763667E+02  0.10973776273E+03  0.41800000000E+01 0. -1.
         -5    1    3    3    0  502  0.13381381905E+03 -0.13105357987E+02  0.28005756651E+03  0.31068891441E+03  0.41800000000E+01 0.  1.
        -11    1    1    2    0    0 -0.58929279923E+02  0.27383566559E+01  0.12248408261E+02  0.60250992808E+02  0.00000000000E+00 0. -1.
         11    1    1    2    0    0 -0.11394532327E+03  0.83088214441E+02  0.16896925489E+03  0.22008588590E+03  0.00000000000E+00 0.  1.
</event>
<event>
 7    1  0.5109948E-006  0.1373842E+03  0.7561462E-02  0.1216893E+00
          1   -1    0    0  501    0  0.00000000000E+00  0.00000000000E+00  0.21513105208E+03  0.21513105208E+03  0.00000000000E+00 0. -1.
         -1   -1    0    0    0  501 -0.00000000000E+00 -0.00000000000E+00 -0.10736734482E+03  0.10736734482E+03  0.00000000000E+00 0.  1.
         23    2    1    2    0    0  0.68670232755E+02 -0.78502313739E+02  0.35047579145E+02  0.16659405494E+03  0.12508809780E+03 0.  0.
          5    1    3    3  502    0 -0.32811857165E+01 -0.78619798917E+02  0.49540748192E+02  0.93078445909E+02  0.41800000000E+01 0.  1.
         -5    1    3    3    0  502  0.71951418471E+02  0.11748517876E+00 -0.14493169046E+02  0.73515609035E+02  0.41800000000E+01 0.  1.
        -11    1    1    2    0    0 -0.37600763030E+02  0.84286396824E+02  0.19991272075E+02  0.94433389376E+02  0.00000000000E+00 0.  1.
         11    1    1    2    0    0 -0.31069469725E+02 -0.57840830852E+01  0.52724856040E+02  0.61470952576E+02  0.00000000000E+00 0. -1.
</event>
<event>
 7    1  0.5109948E-006  0.6555020E+02  0.7561462E-02  0.1375914E+00
         -1   -1    0    0    0  501 -0.00000000000E+00  0.00000000000E+00  0.14825357041E+03  0.14825357041E+03  0.00000000000E+00 0.  1.
          1   -1    0    0  501    0  0.00000000000E+00 -0.00000000000E+00 -0.10467805674E+03  0.10467805674E+03  0.00000000000E+00 0. -1.
         23    2    1    2    0    0  0.40255738565E+02  0.37720648145E+02  0.54405388544E+02  0.14714140025E+03  0.12508906260E+03 0.  0.
          5    1    3    3  502    0  0.18979956033E+02  0.37170620385E+02 -0.35318012222E+02  0.54833640570E+02  0.41800000000E+01 0.  1.
         -5    1    3    3    0  502  0.21275782532E+02  0.55002775918E+00  0.89723400766E+02  0.92307759684E+02  0.41800000000E+01 0.  1.
        -11    1    1    2    0    0 -0.13426212842E+02 -0.38346774449E+02  0.34374508337E+02  0.53219781335E+02  0.00000000000E+00 0.  1.
         11    1    1    2    0    0 -0.26829525723E+02  0.62612630418E+00 -0.45204383215E+02  0.52570445561E+02  0.00000000000E+00 0. -1.
</event>
<event>
 7    1  0.5109948E-006  0.1217125E+03  0.7561462E-02  0.1240298E+00
         -1   -1    0    0    0  501 -0.00000000000E+00  0.00000000000E+00  0.52701800600E+03  0.52701800600E+03  0.00000000000E+00 0.  1.
          1   -1    0    0  501    0  0.00000000000E+00 -0.00000000000E+00 -0.55782538290E+02  0.55782538290E+02  0.00000000000E+00 0. -1.
         23    2    1    2    0    0  0.43713401609E+02 -0.97886365919E+02  0.38506360363E+03  0.41882450848E+03  0.12508951973E+03 0.  0.
          5    1    3    3  502    0  0.16762143427E+02 -0.67543074644E+02  0.36809236863E+03  0.37463649131E+03  0.41800000000E+01 0.  1.
         -5    1    3    3    0  502  0.26951258182E+02 -0.30343291275E+02  0.16971235006E+02  0.44188017161E+02  0.41800000000E+01 0.  1.
        -11    1    1    2    0    0 -0.65739460080E+02  0.59580071874E+02  0.79804333667E+02  0.11933228083E+03  0.00000000000E+00 0.  1.
         11    1    1    2    0    0  0.22026058471E+02  0.38306294045E+02  0.63675304085E+01  0.44643754980E+02  0.00000000000E+00 0. -1.
</event>
<event>
 7    1  0.5109948E-006  0.9834204E+02  0.7561462E-02  0.1283822E+00
         -2   -1    0    0    0  501 -0.00000000000E+00  0.00000000000E+00  0.83594901172E+02  0.83594901172E+02  0.00000000000E+00 0.  1.
          2   -1    0    0  501    0  0.00000000000E+00 -0.00000000000E+00 -0.17209105979E+03  0.17209105979E+03  0.00000000000E+00 0. -1.
         23    2    1    2    0    0  0.17408630509E+02  0.36819353927E+02 -0.16838033711E+02  0.13263281636E+03  0.12509683991E+03 0.  0.
          5    1    3    3  502    0  0.39777195249E+02  0.57927552051E+02 -0.50659601699E+02  0.86727701415E+02  0.41800000000E+01 0. -1.
         -5    1    3    3    0  502 -0.22368564740E+02 -0.21108198124E+02  0.33821567988E+02  0.45905114941E+02  0.41800000000E+01 0. -1.
        -11    1    1    2    0    0 -0.38575737248E+02  0.13333528843E+02 -0.49807995874E+02  0.64394929526E+02  0.00000000000E+00 0.  1.
         11    1    1    2    0    0  0.21167106739E+02 -0.50152882770E+02 -0.21850129036E+02  0.58658215083E+02  0.00000000000E+00 0. -1.
</event>
<event>
 7    1  0.5109948E-006  0.2483125E+03  0.7561462E-02  0.1114376E+00
          2   -1    0    0  501    0  0.00000000000E+00  0.00000000000E+00  0.12364303587E+04  0.12364303587E+04  0.00000000000E+00 0. -1.
         -2   -1    0    0    0  501 -0.00000000000E+00 -0.00000000000E+00 -0.52052608831E+02  0.52052608831E+02  0.00000000000E+00 0.  1.
         23    2    1    2    0    0 -0.17294048062E+03 -0.14679196308E+03  0.68788228197E+03  0.73505333380E+03  0.12516021502E+03 0.  0.
          5    1    3    3  502    0 -0.51907580679E+02 -0.11706195553E+03  0.26811146603E+03  0.29715169355E+03  0.41800000000E+01 0.  1.
         -5    1    3    3    0  502 -0.12103289994E+03 -0.29730007544E+02  0.41977081594E+03  0.43790164025E+03  0.41800000000E+01 0.  1.
        -11    1    1    2    0    0  0.14859108107E+03  0.71942089907E+02  0.31625897019E+03  0.35675581271E+03  0.00000000000E+00 0.  1.
         11    1    1    2    0    0  0.24349399551E+02  0.74849873169E+02  0.18023649773E+03  0.19667382105E+03  0.00000000000E+00 0. -1.
</event>
<event>
 7    1  0.5109948E-006  0.9576648E+02  0.7561462E-02  0.1289459E+00
         -2   -1    0    0    0  501 -0.00000000000E+00  0.00000000000E+00  0.11711522757E+03  0.11711522757E+03  0.00000000000E+00 0.  1.
          2   -1    0    0  501    0  0.00000000000E+00 -0.00000000000E+00 -0.17209640926E+03  0.17209640926E+03  0.00000000000E+00 0. -1.
         23    2    1    2    0    0  0.87091486497E+02 -0.23263798556E+02 -0.20679297686E+02  0.15561227880E+03  0.12514558170E+03 0.  0.
          5    1    3    3  502    0  0.80278929427E+02 -0.21107508889E+02  0.41490788978E+02  0.92893441166E+02  0.41800000000E+01 0.  1.
         -5    1    3    3    0  502  0.68125570692E+01 -0.21562896661E+01 -0.62170086664E+02  0.62718837639E+02  0.41800000000E+01 0.  1.
        -11    1    1    2    0    0  0.15981757510E+01  0.10402497939E+02 -0.42334145736E+02  0.43622769562E+02  0.00000000000E+00 0. -1.
         11    1    1    2    0    0 -0.88689662248E+02  0.12861300617E+02  0.80322617343E+01  0.89976588465E+02  0.00000000000E+00 0.  1.
</event>
<event>
 7    1  0.5109948E-006  0.1246800E+03  0.7561462E-02  0.1235570E+00
          2   -1    0    0  501    0  0.00000000000E+00  0.00000000000E+00  0.27167548459E+03  0.27167548459E+03  0.00000000000E+00 0. -1.
         -2   -1    0    0    0  501 -0.00000000000E+00 -0.00000000000E+00 -0.67677959429E+02  0.67677959429E+02  0.00000000000E+00 0.  1.
         23    2    1    2    0    0  0.66143885464E+02 -0.41782902593E+02  0.94545421399E+02  0.17523845015E+03  0.12509537629E+03 0.  0.
          5    1    3    3  502    0  0.40916987930E+02  0.29982613805E+02 -0.35635219654E+01  0.51022819607E+02  0.41800000000E+01 0. -1.
         -5    1    3    3    0  502  0.25226897533E+02 -0.71765516398E+02  0.98108943364E+02  0.12421563054E+03  0.41800000000E+01 0. -1.
        -11    1    1    2    0    0 -0.11589152602E+02 -0.29974002175E+02  0.29680349220E+02  0.43745541422E+02  0.00000000000E+00 0.  1.
         11    1    1    2    0    0 -0.54554732862E+02  0.71756904769E+02  0.79771754538E+02  0.12036945244E+03  0.00000000000E+00 0. -1.
</event>
<event>
 7    1  0.5109948E-006  0.1207604E+03  0.7561462E-02  0.1241848E+00
          1   -1    0    0  501    0  0.00000000000E+00  0.00000000000E+00  0.28132350863E+03  0.28132350863E+03  0.00000000000E+00 0. -1.
         -1   -1    0    0    0  501 -0.00000000000E+00 -0.00000000000E+00 -0.58856110449E+02  0.58856110449E+02  0.00000000000E+00 0.  1.
         23    2    1    2    0    0  0.19223640947E+02  0.62843712475E+02  0.92805718926E+02  0.16910766164E+03  0.12516237130E+03 0.  0.
          5    1    3    3  502    0 -0.21905615456E+02  0.89291687629E+02  0.65312330373E+02  0.11285404010E+03  0.41800000000E+01 0. -1.
         -5    1    3    3    0  502  0.41129256403E+02 -0.26447975153E+02  0.27493388553E+02  0.56253621538E+02  0.41800000000E+01 0. -1.
        -11    1    1    2    0    0  0.27192649428E+02 -0.40782113557E+02  0.10090673245E+03  0.11218194874E+03  0.00000000000E+00 0. -1.
         11    1    1    2    0    0 -0.46416290375E+02 -0.22061598918E+02  0.28754946798E+02  0.58890008698E+02  0.00000000000E+00 0.  1.
</event>
<event>
 7    1  0.5109948E-006  0.1469051E+03  0.7561462E-02  0.1204328E+00
         -2   -1    0    0    0  501 -0.00000000000E+00  0.00000000000E+00  0.19470928378E+03  0.19470928378E+03  0.00000000000E+00 0.  1.
          2   -1    0    0  501    0  0.00000000000E+00 -0.00000000000E+00 -0.12794313953E+03  0.12794313953E+03  0.00000000000E+00 0. -1.
         23    2    1    2    0    0  0.88458251887E+02  0.63751808593E+02  0.70288602048E+02  0.18021630568E+03  0.12509306068E+03 0.  0.
          5    1    3    3  502    0  0.65166935008E+02 -0.17817905622E+02 -0.33988098269E+01  0.67773383325E+02  0.41800000000E+01 0. -1.
         -5    1    3    3    0  502  0.23291316879E+02  0.81569714215E+02  0.73687411875E+02  0.11244292236E+03  0.41800000000E+01 0. -1.
        -11    1    1    2    0    0  0.17666847620E+02 -0.56117647561E+00 -0.66438630217E+01  0.18883149624E+02  0.00000000000E+00 0.  1.
         11    1    1    2    0    0 -0.10612509951E+03 -0.63190632118E+02  0.31214052288E+01  0.12355296801E+03  0.00000000000E+00 0. -1.
</event>
<event>
 7    1  0.5109948E-006  0.9874551E+02  0.7561462E-02  0.1282956E+00
          2   -1    0    0  501    0  0.00000000000E+00  0.00000000000E+00  0.38549835952E+03  0.38549835952E+03  0.00000000000E+00 0. -1.
         -2   -1    0    0    0  501 -0.00000000000E+00 -0.00000000000E+00 -0.34540611812E+02  0.34540611812E+02  0.00000000000E+00 0.  1.
         23    2    1    2    0    0  0.33797600504E+02  0.84484841103E+01  0.15606516920E+03  0.20302145894E+03  0.12509085126E+03 0.  0.
          5    1    3    3  502    0 -0.36856628939E+02  0.19810710768E+02  0.14748097421E+02  0.44562923326E+02  0.41800000000E+01 0. -1.
         -5    1    3    3    0  502  0.70654229442E+02 -0.11362226658E+02  0.14131707178E+03  0.15845853562E+03  0.41800000000E+01 0. -1.
        -11    1    1    2    0    0 -0.96197953875E+00 -0.38936259652E+02  0.14417016592E+03  0.14933852304E+03  0.00000000000E+00 0. -1.
         11    1    1    2    0    0 -0.32835620965E+02  0.30487775542E+02  0.50722412581E+02  0.67678989352E+02  0.00000000000E+00 0.  1.
</event>
<event>
 7    1  0.5109948E-006  0.1264544E+03  0.7561462E-02  0.1232814E+00
          1   -1    0    0  501    0  0.00000000000E+00  0.00000000000E+00  0.50673618706E+03  0.50673618706E+03  0.00000000000E+00 0. -1.
         -1   -1    0    0    0  501 -0.00000000000E+00 -0.00000000000E+00 -0.43492244713E+02  0.43492244713E+02  0.00000000000E+00 0.  1.
         23    2    1    2    0    0  0.37866318884E+02 -0.85718493751E+02  0.18394879703E+03  0.24138403610E+03  0.12509026611E+03 0.  0.
          5    1    3    3  502    0  0.80641115055E+02 -0.31060558515E+02  0.95179891951E+02  0.12862516070E+03  0.41800000000E+01 0.  1.
         -5    1    3    3    0  502 -0.42774796171E+02 -0.54657935236E+02  0.88768905082E+02  0.11275887540E+03  0.41800000000E+01 0.  1.
        -11    1    1    2    0    0 -0.31824754893E+02  0.41842609078E+02  0.41546144089E+02  0.67005231490E+02  0.00000000000E+00 0.  1.
         11    1    1    2    0    0 -0.60415639908E+01  0.43875884673E+02  0.23774900122E+03  0.24183916418E+03  0.00000000000E+00 0. -1.
</event>
<event>
 7    1  0.5109948E-006  0.1252215E+03  0.7561462E-02  0.1234724E+00
          1   -1    0    0  501    0  0.00000000000E+00  0.00000000000E+00  0.36915545564E+03  0.36915545564E+03  0.00000000000E+00 0. -1.
         -1   -1    0    0    0  501 -0.00000000000E+00 -0.00000000000E+00 -0.47653545693E+02  0.47653545693E+02  0.00000000000E+00 0.  1.
         23    2    1    2    0    0 -0.28859178611E+01  0.65727729627E+02  0.13467181522E+03  0.19522455552E+03  0.12509063233E+03 0.  0.
          5    1    3    3  502    0  0.47046026601E+02  0.76664906497E+02  0.86542095278E+02  0.12489132541E+03  0.41800000000E+01 0.  1.
         -5    1    3    3    0  502 -0.49931944462E+02 -0.10937176870E+02  0.48129719942E+02  0.70333230108E+02  0.41800000000E+01 0.  1.
        -11    1    1    2    0    0  0.25523032402E+02  0.11964001343E+02  0.15650918266E+02  0.32241491183E+02  0.00000000000E+00 0.  1.
         11    1    1    2    0    0 -0.22637114540E+02 -0.77691730970E+02  0.17117917646E+03  0.18934295463E+03  0.00000000000E+00 0. -1.
</event>
<event>
 7    1  0.5109948E-006  0.1031473E+03  0.7561462E-02  0.1273813E+00
         -1   -1    0    0    0  501 -0.00000000000E+00  0.00000000000E+00  0.58757501423E+03  0.58757501423E+03  0.00000000000E+00 0.  1.
          1   -1    0    0  501    0  0.00000000000E+00 -0.00000000000E+00 -0.25505222060E+02  0.25505222060E+02  0.00000000000E+00 0. -1.
         23    2    1    2    0    0 -0.37914558092E+02  0.41126192871E+02  0.31909468260E+03  0.34727182639E+03  0.12508967779E+03 0.  0.
          5    1    3    3  502    0 -0.18047779848E+02 -0.36006411905E+02  0.19917773237E+03  0.20325212306E+03  0.41800000000E+01 0. -1.
         -5    1    3    3    0  502 -0.19866778244E+02  0.77132604776E+02  0.11991695023E+03  0.14401970334E+03  0.41800000000E+01 0. -1.
        -11    1    1    2    0    0  0.42412209866E+02  0.22134832096E+01  0.40455320545E+02  0.58654309424E+02  0.00000000000E+00 0. -1.
         11    1    1    2    0    0 -0.44976517739E+01 -0.43339676080E+02  0.20251978903E+03  0.20715410048E+03  0.00000000000E+00 0.  1.
</event>
<event>
 7    1  0.5109948E-006  0.1082487E+03  0.7561462E-02  0.1263848E+00
         -3   -1    0    0    0  501 -0.00000000000E+00  0.00000000000E+00  0.92468080224E+02  0.92468080224E+02  0.00000000000E+00 0.  1.
          3   -1    0    0  501    0  0.00000000000E+00 -0.00000000000E+00 -0.15907656810E+03  0.15907656810E+03  0.00000000000E+00 0. -1.
         23    2    1    2    0    0  0.54182040347E+02  0.56642991738E+00 -0.21729088911E+02  0.13804046700E+03  0.12508798058E+03 0.  0.
          5    1    3    3  502    0 -0.12077311956E+01 -0.42803262970E+02  0.28404587752E+02  0.51554543358E+02  0.41800000000E+01 0.  1.
         -5    1    3    3    0  502  0.55389771542E+02  0.43369692887E+02 -0.50133676663E+02  0.86485923643E+02  0.41800000000E+01 0.  1.
        -11    1    1    2    0    0 -0.40600576079E+02 -0.42587300763E+02 -0.34249516713E+02  0.68081674181E+02  0.00000000000E+00 0.  1.
         11    1    1    2    0    0 -0.13581464268E+02  0.42020870846E+02 -0.10629882251E+02  0.45422507141E+02  0.00000000000E+00 0. -1.
</event>
<event>
 7    1  0.5109948E-006  0.1141440E+03  0.7561462E-02  0.1253083E+00
         -2   -1    0    0    0  501 -0.00000000000E+00  0.00000000000E+00  0.16149055286E+03  0.16149055286E+03  0.00000000000E+00 0.  1.
          2   -1    0    0  501    0  0.00000000000E+00 -0.00000000000E+00 -0.94003315659E+02  0.94003315659E+02  0.00000000000E+00 0. -1.
         23    2    1    2    0    0 -0.34259948486E+02 -0.37755105007E+02  0.62152600984E+02  0.14869388035E+03  0.12509089583E+03 0.  0.
          5    1    3    3  502    0 -0.21355042048E+02 -0.77678097895E+02  0.94801541888E+01  0.81223583010E+02  0.41800000000E+01 0. -1.
         -5    1    3    3    0  502 -0.12904906438E+02  0.39922992889E+02  0.52672446795E+02  0.67470297337E+02  0.41800000000E+01 0. -1.
        -11    1    1    2    0    0 -0.31823247336E+02  0.17602873544E+02 -0.57808472039E+01  0.36823883858E+02  0.00000000000E+00 0. -1.
         11    1    1    2    0    0  0.66083195821E+02  0.20152231463E+02  0.11115483418E+02  0.69976104311E+02  0.00000000000E+00 0.  1.
</event>
<event>
 7    1  0.5109948E-006  0.1671458E+03  0.7561462E-02  0.1180857E+00
          2   -1    0    0  501    0  0.00000000000E+00  0.00000000000E+00  0.12059246072E+03  0.12059246072E+03  0.00000000000E+00 0. -1.
         -2   -1    0    0    0  501 -0.00000000000E+00 -0.00000000000E+00 -0.27875012110E+03  0.27875012110E+03  0.00000000000E+00 0.  1.
         23    2    1    2    0    0 -0.10285813396E+03 -0.95858900518E+02 -0.13052448005E+03  0.22983598996E+03  0.12656704886E+03 0.  0.
          5    1    3    3  502    0 -0.63212641211E+02  0.18529237220E+01 -0.10272807978E+03  0.12070543530E+03  0.41800000000E+01 0. -1.
         -5    1    3    3    0  502 -0.39645492751E+02 -0.97711824240E+02 -0.27796400267E+02  0.10913055466E+03  0.41800000000E+01 0.  1.
        -11    1    1    2    0    0 -0.13639380910E+02 -0.12809333876E+01  0.45718681763E+01  0.14442142520E+02  0.00000000000E+00 0.  1.
         11    1    1    2    0    0  0.11649751487E+03  0.97139833905E+02 -0.32205048502E+02  0.15506444935E+03  0.00000000000E+00 0. -1.
</event>
<event>
 6    1  0.5109948E-006  0.1076175E+03  0.7561462E-02  0.1265047E+00
         -1   -1    0    0    0  501 -0.00000000000E+00  0.00000000000E+00  0.15601517531E+04  0.15601517531E+04  0.00000000000E+00 0.  1.
          1   -1    0    0  501    0  0.00000000000E+00 -0.00000000000E+00 -0.46570535146E+02  0.46570535146E+02  0.00000000000E+00 0. -1.
          5    1    1    2  502    0  0.32673672321E+02  0.55011237607E+02  0.17749409405E+03  0.18872051014E+03  0.41800000000E+01 0. -1.
         -5    1    1    2    0  502 -0.46036849122E+02 -0.37979386031E+02  0.13209144500E+04  0.13222686119E+04  0.41800000000E+01 0.  1.
        -11    1    1    2    0    0 -0.92575383385E+01 -0.50252201378E+02  0.20763891613E+02  0.55155461691E+02  0.00000000000E+00 0.  1.
         11    1    1    2    0    0  0.22620715139E+02  0.33220349802E+02 -0.55912176914E+01  0.40577704588E+02  0.00000000000E+00 0. -1.
</event>
<event>
 7    1  0.5109948E-006  0.9951876E+02  0.7561462E-02  0.1281311E+00
         -1   -1    0    0    0  501 -0.00000000000E+00  0.00000000000E+00  0.74731480499E+02  0.74731480499E+02  0.00000000000E+00 0.  1.
          1   -1    0    0  501    0  0.00000000000E+00 -0.00000000000E+00 -0.20314841087E+03  0.20314841087E+03  0.00000000000E+00 0. -1.
         23    2    1    2    0    0 -0.11168885122E+02 -0.54350891640E+02 -0.56602267473E+02  0.14808962786E+03  0.12509179741E+03 0.  0.
          5    1    3    3  502    0  0.30571859555E+02  0.42425229237E+01  0.24477880974E+02  0.39614096663E+02  0.41800000000E+01 0. -1.
         -5    1    3    3    0  502 -0.41740744677E+02 -0.58593414564E+02 -0.81080148447E+02  0.10847553120E+03  0.41800000000E+01 0. -1.
        -11    1    1    2    0    0  0.13807855211E+02 -0.18414088960E+02  0.54190199308E+01  0.23645323317E+02  0.00000000000E+00 0.  1.
         11    1    1    2    0    0 -0.26389700887E+01  0.72764980600E+02 -0.77233682829E+02  0.10614494019E+03  0.00000000000E+00 0. -1.
</event>
<event>
 7    1  0.5109948E-006  0.9601437E+02  0.7561462E-02  0.1288908E+00
         -1   -1    0    0    0  501 -0.00000000000E+00  0.00000000000E+00  0.33730039828E+03  0.33730039828E+03  0.00000000000E+00 0.  1.
          1   -1    0    0  501    0  0.00000000000E+00 -0.00000000000E+00 -0.38488062127E+02  0.38488062127E+02  0.00000000000E+00 0. -1.
         23    2    1    2    0    0  0.88510564788E+01  0.37429955544E+02  0.15566375214E+03  0.20336424019E+03  0.12508584125E+03 0.  0.
          5    1    3    3  502    0  0.44266168016E+02  0.63423218980E+02  0.13261676104E+03  0.15357954306E+03  0.41800000000E+01 0. -1.
         -5    1    3    3    0  502 -0.35415111538E+02 -0.25993263436E+02  0.23046991100E+02  0.49784697127E+02  0.41800000000E+01 0. -1.
        -11    1    1    2    0    0 -0.31965960993E+02 -0.34681443314E+02  0.27797461043E+02  0.54747821993E+02  0.00000000000E+00 0. -1.
         11    1    1    2    0    0  0.23114904514E+02 -0.27485122298E+01  0.11535112296E+03  0.11767639822E+03  0.00000000000E+00 0.  1.
</event>
<event>
 7    1  0.5109948E-006  0.1477937E+03  0.7561462E-02  0.1203211E+00
         -3   -1    0    0    0  501 -0.00000000000E+00  0.00000000000E+00  0.28759895923E+03  0.28759895923E+03  0.00000000000E+00 0.  1.
          3   -1    0    0  501    0  0.00000000000E+00 -0.00000000000E+00 -0.10577208697E+03  0.10577208697E+03  0.00000000000E+00 0. -1.
         23    2    1    2    0    0  0.89652800981E+02  0.96540930354E+02  0.12865955180E+03  0.22261813760E+03  0.12509108265E+03 0.  0.
          5    1    3    3  502    0  0.10018226937E+03  0.73910964930E+02  0.40633204176E+02  0.13102613294E+03  0.41800000000E+01 0. -1.
         -5    1    3    3    0  502 -0.10529468386E+02  0.22629965424E+02  0.88026347628E+02  0.91592004652E+02  0.41800000000E+01 0. -1.
        -11    1    1    2    0    0 -0.10816963348E+02  0.89359655475E+01  0.35144989312E+02  0.37842151764E+02  0.00000000000E+00 0.  1.
         11    1    1    2    0    0 -0.78835837632E+02 -0.10547689590E+03  0.18022331136E+02  0.13291075684E+03  0.00000000000E+00 0. -1.
</event>
<event>
 7    1  0.5109948E-006  0.7236599E+02  0.7561462E-02  0.1352227E+00
          2   -1    0    0  501    0  0.00000000000E+00  0.00000000000E+00  0.26890195893E+03  0.26890195893E+03  0.00000000000E+00 0. -1.
         -2   -1    0    0    0  501 -0.00000000000E+00 -0.00000000000E+00 -0.52270225937E+02  0.52270225937E+02  0.00000000000E+00 0.  1.
         23    2    1    2    0    0  0.13722742953E+02  0.25763271665E+01  0.60197460850E+02  0.13952055199E+03  0.12508916420E+03 0.  0.
          5    1    3    3  502    0  0.27755709012E+02  0.31833314106E+02 -0.24303800957E+02  0.48906915776E+02  0.41800000000E+01 0.  1.
         -5    1    3    3    0  502 -0.14032966059E+02 -0.29256986940E+02  0.84501261808E+02  0.90613636216E+02  0.41800000000E+01 0.  1.
        -11    1    1    2    0    0 -0.14778618687E+02 -0.34552954665E+02  0.14138600245E+03  0.14629530387E+03  0.00000000000E+00 0. -1.
         11    1    1    2    0    0  0.10558757333E+01  0.31976627498E+02  0.15048269692E+02  0.35356329001E+02  0.00000000000E+00 0.  1.
</event>
<event>
 7    1  0.5109948E-006  0.1286710E+03  0.7561462E-02  0.1229441E+00
          4   -1    0    0  501    0  0.00000000000E+00  0.00000000000E+00  0.68265259692E+02  0.68265259692E+02  0.00000000000E+00 0. -1.
         -4   -1    0    0    0  501 -0.00000000000E+00 -0.00000000000E+00 -0.34708689061E+03  0.34708689061E+03  0.00000000000E+00 0.  1.
         23    2    1    2    0    0 -0.14595492441E+01 -0.10673269683E+03 -0.17421768365E+03  0.23956954334E+03  0.12509103062E+03 0.  0.
          5    1    3    3  502    0 -0.20689762332E+02 -0.22484645213E+02  0.12892175560E+02  0.33426129395E+02  0.41800000000E+01 0.  1.
         -5    1    3    3    0  502  0.19230213088E+02 -0.84248051622E+02 -0.18710985921E+03  0.20614341394E+03  0.41800000000E+01 0.  1.
        -11    1    1    2    0    0  0.45740251534E+02  0.61967321571E+02 -0.45689496157E+02  0.89552496404E+02  0.00000000000E+00 0.  1.
         11    1    1    2    0    0 -0.44280702289E+02  0.44765375263E+02 -0.58914451105E+02  0.86230110557E+02  0.00000000000E+00 0. -1.
</event>
<event>
 7    1  0.5109948E-006  0.1044665E+03  0.7561462E-02  0.1271174E+00
          3   -1    0    0  501    0  0.00000000000E+00  0.00000000000E+00  0.58468183774E+02  0.58468183774E+02  0.00000000000E+00 0. -1.
         -3   -1    0    0    0  501 -0.00000000000E+00 -0.00000000000E+00 -0.24435928395E+03  0.24435928395E+03  0.00000000000E+00 0.  1.
         23    2    1    2    0    0  0.33779736488E+01 -0.24785023105E+02 -0.16118424929E+03  0.20555478500E+03  0.12508676725E+03 0.  0.
          5    1    3    3  502    0  0.73248075262E+01  0.49945044029E+02 -0.83097170528E+02  0.97317893412E+02  0.41800000000E+01 0. -1.
         -5    1    3    3    0  502 -0.39468338774E+01 -0.74730067134E+02 -0.78087078761E+02  0.10823689159E+03  0.41800000000E+01 0. -1.
        -11    1    1    2    0    0  0.27397390464E+01 -0.29034704538E+02 -0.31212626370E+02  0.42717072495E+02  0.00000000000E+00 0.  1.
         11    1    1    2    0    0 -0.61177126952E+01  0.53819727643E+02  0.65057754872E+01  0.54555610224E+02  0.00000000000E+00 0. -1.
</event>
<event>
 7    1  0.5109948E-006  0.1138539E+03  0.7561462E-02  0.1253595E+00
          2   -1    0    0  501    0  0.00000000000E+00  0.00000000000E+00  0.50911005793E+03  0.50911005793E+03  0.00000000000E+00 0. -1.
         -2   -1    0    0    0  501 -0.00000000000E+00 -0.00000000000E+00 -0.38716092951E+02  0.38716092951E+02  0.00000000000E+00 0.  1.
         23    2    1    2    0    0 -0.86998064391E+02 -0.17380735397E+02  0.23673587836E+03  0.28206626159E+03  0.12508695636E+03 0.  0.
          5    1    3    3  502    0 -0.65610414444E+02 -0.61346687972E+02  0.20438617289E+03  0.22329201212E+03  0.41800000000E+01 0.  1.
         -5    1    3    3    0  502 -0.21387649947E+02  0.43965952575E+02  0.32349705474E+02  0.58774249466E+02  0.41800000000E+01 0.  1.
        -11    1    1    2    0    0  0.33537946409E+02  0.66483597545E+01  0.10104276998E+02  0.35652362480E+02  0.00000000000E+00 0.  1.
         11    1    1    2    0    0  0.53460117982E+02  0.10732375643E+02  0.22355380962E+03  0.23010752681E+03  0.00000000000E+00 0. -1.
</event>
<event>
 6    1  0.5109948E-006  0.2803675E+03  0.7561462E-02  0.1095488E+00
          2   -1    0    0  501    0  0.00000000000E+00  0.00000000000E+00  0.17509514636E+04  0.17509514636E+04  0.00000000000E+00 0. -1.
         -2   -1    0    0    0  501 -0.00000000000E+00 -0.00000000000E+00 -0.15745532115E+03  0.15745532115E+03  0.00000000000E+00 0.  1.
          5    1    1    2  502    0 -0.12165281124E+03  0.46695117412E+02  0.90954165926E+02  0.15896532066E+03  0.41800000000E+01 0. -1.
         -5    1    1    2    0  502 -0.92072084186E+02  0.11815430088E+03 -0.59728955109E+02  0.16131561605E+03  0.41800000000E+01 0.  1.
        -11    1    1    2    0    0  0.41176858475E+02  0.98851218330E+00  0.14280010297E+03  0.14862160085E+03  0.00000000000E+00 0.  1.
         11    1    1    2    0    0  0.17254803695E+03 -0.16583793047E+03  0.14194708287E+04  0.14395042472E+04  0.00000000000E+00 0. -1.
</event>
<event>
 7    1  0.5109948E-006  0.2134406E+03  0.7561462E-02  0.1138870E+00
         -1   -1    0    0    0  501 -0.00000000000E+00  0.00000000000E+00  0.55554956792E+03  0.55554956792E+03  0.00000000000E+00 0.  1.
          1   -1    0    0  501    0  0.00000000000E+00 -0.00000000000E+00 -0.10130275493E+03  0.10130275493E+03  0.00000000000E+00 0. -1.
         23    2    1    2    0    0 -0.77755985900E+02  0.17694226056E+03  0.34736101464E+03  0.41672748042E+03  0.12509021357E+03 0.  0.
          5    1    3    3  502    0 -0.21687994705E+02 -0.15224916685E+02  0.67348307444E+02  0.72494373009E+02  0.41800000000E+01 0. -1.
         -5    1    3    3    0  502 -0.56067991195E+02  0.19216717725E+03  0.28001270720E+03  0.34423310742E+03  0.41800000000E+01 0. -1.
        -11    1    1    2    0    0  0.52670561835E+02 -0.58309942216E+02  0.13851986297E+00  0.78576438154E+02  0.00000000000E+00 0. -1.
         11    1    1    2    0    0  0.25085424065E+02 -0.11863231835E+03  0.10674727849E+03  0.16154840427E+03  0.00000000000E+00 0.  1.
</event>
<event>
 6    1  0.5109948E-006  0.7265166E+02  0.7561462E-02  0.1351301E+00
          1   -1    0    0  501    0  0.00000000000E+00  0.00000000000E+00  0.25775231382E+03  0.25775231382E+03  0.00000000000E+00 0. -1.
         -1   -1    0    0    0  501 -0.00000000000E+00 -0.00000000000E+00 -0.85095662614E+02  0.85095662614E+02  0.00000000000E+00 0.  1.
          5    1    1    2  502    0  0.22736384454E+02 -0.14827308642E+02  0.84442943752E+02  0.88796820940E+02  0.41800000000E+01 0. -1.
         -5    1    1    2    0  502 -0.20306645321E+02  0.26811929441E+02 -0.65507203109E+02  0.73755714787E+02  0.41800000000E+01 0.  1.
        -11    1    1    2    0    0  0.30198366602E+02  0.21595588433E+02  0.11051929268E+03  0.11658827060E+03  0.00000000000E+00 0.  1.
         11    1    1    2    0    0 -0.32628105735E+02 -0.33580209233E+02  0.43201617876E+02  0.63707170108E+02  0.00000000000E+00 0. -1.
</event>
<event>
 7    1  0.5109948E-006  0.7356599E+02  0.7561462E-02  0.1348370E+00
         -2   -1    0    0    0  501 -0.00000000000E+00  0.00000000000E+00  0.59774815161E+02  0.59774815161E+02  0.00000000000E+00 0.  1.
          2   -1    0    0  501    0  0.00000000000E+00 -0.00000000000E+00 -0.18517733130E+03  0.18517733130E+03  0.00000000000E+00 0. -1.
         23    2    1    2    0    0 -0.23402280669E+02  0.94788914936E+00 -0.77597174528E+01  0.12485457926E+03  0.12239235071E+03 0.  0.
          5    1    3    3  502    0  0.48448564406E+02 -0.11914426148E+02 -0.12450263736E+02  0.51591650589E+02  0.41800000000E+01 0. -1.
         -5    1    3    3    0  502 -0.71850845075E+02  0.12862315297E+02  0.46905462831E+01  0.73262928669E+02  0.41800000000E+01 0.  1.
        -11    1    1    2    0    0  0.12469676267E+02  0.20009332212E+01 -0.54174314453E+02  0.55626908115E+02  0.00000000000E+00 0. -1.
         11    1    1    2    0    0  0.10932604402E+02 -0.29488223706E+01 -0.63468484235E+02  0.64470659090E+02  0.00000000000E+00 0.  1.
</event>
<event>
 7    1  0.5109948E-006  0.1128748E+03  0.7561462E-02  0.1255337E+00
         -1   -1    0    0    0  501 -0.00000000000E+00  0.00000000000E+00  0.33386640153E+03  0.33386640153E+03  0.00000000000E+00 0.  1.
          1   -1    0    0  501    0  0.00000000000E+00 -0.00000000000E+00 -0.55304436152E+02  0.55304436152E+02  0.00000000000E+00 0. -1.
         23    2    1    2    0    0  0.55807245608E+02 -0.74173790532E+01  0.23671759708E+03  0.27357899670E+03  0.12506310603E+03 0.  0.
          5    1    3    3  502    0  0.61958444557E+02  0.42404022298E+02  0.83865372071E+02  0.11264023700E+03  0.41800000000E+01 0. -1.
         -5    1    3    3    0  502 -0.61511989484E+01 -0.49821401351E+02  0.15285222501E+03  0.16093875970E+03  0.41800000000E+01 0. -1.
        -11    1    1    2    0    0  0.78431322223E+01 -0.26793996058E+02  0.32314302576E+02  0.42704181280E+02  0.00000000000E+00 0.  1.
         11    1    1    2    0    0 -0.63650377831E+02  0.34211375112E+02  0.95300657206E+01  0.72887659708E+02  0.00000000000E+00 0. -1.
</event>
<event>
 7    1  0.5109948E-006  0.1028035E+03  0.7561462E-02  0.1274509E+00
         -1   -1    0    0    0  501 -0.00000000000E+00  0.00000000000E+00  0.26229621392E+03  0.26229621392E+03  0.00000000000E+00 0.  1.
          1   -1    0    0  501    0  0.00000000000E+00 -0.00000000000E+00 -0.58137001116E+02  0.58137001116E+02  0.00000000000E+00 0. -1.
         23    2    1    2    0    0 -0.92975479360E+01 -0.19308646510E+02  0.17713188400E+03  0.21790789983E+03  0.12509548453E+03 0.  0.
          5    1    3    3  502    0 -0.60750996487E+02 -0.11364116081E+02  0.47224952586E+02  0.77894128503E+02  0.41800000000E+01 0.  1.
         -5    1    3    3    0  502  0.51453448551E+02 -0.79445304293E+01  0.12990693142E+03  0.14001377133E+03  0.41800000000E+01 0.  1.
        -11    1    1    2    0    0 -0.99333198074E+00 -0.35575714972E+02  0.30083693255E+02  0.46600931365E+02  0.00000000000E+00 0.  1.
         11    1    1    2    0    0  0.10290879917E+02  0.54884361482E+02 -0.30563644487E+01  0.55924383845E+02  0.00000000000E+00 0. -1.
</event>
<event>
 7    1  0.5109948E-006  0.7516762E+02  0.7561462E-02  0.1343353E+00
          2   -1    0    0  501    0  0.00000000000E+00  0.00000000000E+00  0.67465378409E+03  0.67465378409E+03  0.00000000000E+00 0. -1.
         -2   -1    0    0    0  501 -0.00000000000E+00 -0.00000000000E+00 -0.28192982645E+02  0.28192982645E+02  0.00000000000E+00 0.  1.
         23    2    1    2    0    0 -0.18684657956E+02 -0.34995392781E+02  0.15253589138E+03  0.19894592904E+03  0.12140218518E+03 0.  0.
          5    1    3    3  502    0 -0.24345259686E+02 -0.13915276378E+02  0.16895353586E+03  0.17131577939E+03  0.41800000000E+01 0. -1.
         -5    1    3    3    0  502  0.56606017294E+01 -0.21080116403E+02 -0.16417644489E+02  0.27630149658E+02  0.41800000000E+01 0.  1.
        -11    1    1    2    0    0  0.35882048177E+02 -0.20731290370E+02  0.20880289522E+03  0.21287544911E+03  0.00000000000E+00 0.  1.
         11    1    1    2    0    0 -0.17197390221E+02  0.55726683152E+02  0.28512201485E+03  0.29102538858E+03  0.00000000000E+00 0. -1.
</event>
<event>
 7    1  0.5109948E-006  0.1768312E+03  0.7561462E-02  0.1170906E+00
          3   -1    0    0  501    0  0.00000000000E+00  0.00000000000E+00  0.90029829996E+02  0.90029829996E+02  0.00000000000E+00 0. -1.
         -3   -1    0    0    0  501 -0.00000000000E+00 -0.00000000000E+00 -0.45026863339E+03  0.45026863339E+03  0.00000000000E+00 0.  1.
         23    2    1    2    0    0 -0.13615610761E+03  0.31751345354E+02 -0.31584107678E+03  0.36735497500E+03  0.12508980095E+03 0.  0.
          5    1    3    3  502    0 -0.10383956129E+02  0.57846301119E+02 -0.10648817736E+03  0.12170137804E+03  0.41800000000E+01 0.  1.
         -5    1    3    3    0  502 -0.12577215148E+03 -0.26094955766E+02 -0.20935289942E+03  0.24565359696E+03  0.41800000000E+01 0.  1.
        -11    1    1    2    0    0  0.13144945268E+03  0.26761034275E+01 -0.27573060281E+02  0.13433686684E+03  0.00000000000E+00 0.  1.
         11    1    1    2    0    0  0.47066549363E+01 -0.34427448781E+02 -0.16824666330E+02  0.38606621548E+02  0.00000000000E+00 0. -1.
</event>
<event>
 7    1  0.5109948E-006  0.1124032E+03  0.7561462E-02  0.1256183E+00
         -1   -1    0    0    0  501 -0.00000000000E+00  0.00000000000E+00  0.10228898174E+04  0.10228898174E+04  0.00000000000E+00 0.  1.
          1   -1    0    0  501    0  0.00000000000E+00 -0.00000000000E+00 -0.15800618783E+02  0.15800618783E+02  0.00000000000E+00 0. -1.
         23    2    1    2    0    0  0.40325070085E+02 -0.32157892369E+02  0.72380045345E+03  0.73633858245E+03  0.12508864966E+03 0.  0.
          5    1    3    3  502    0  0.81512154956E+02 -0.43305525362E+02  0.48649617802E+03  0.49519249143E+03  0.41800000000E+01 0.  1.
         -5    1    3    3    0  502 -0.41187084871E+02  0.11147632993E+02  0.23730427543E+03  0.24114609103E+03  0.41800000000E+01 0.  1.
        -11    1    1    2    0    0 -0.40629523554E+02  0.54063833619E+02  0.26594625490E+03  0.27441039846E+03  0.00000000000E+00 0.  1.
         11    1    1    2    0    0  0.30445346892E+00 -0.21905941250E+02  0.17342490275E+02  0.27941455275E+02  0.00000000000E+00 0. -1.
</event>
<event>
 7    1  0.5109948E-006  0.1090286E+03  0.7561462E-02  0.1262379E+00
          2   -1    0    0  501    0  0.00000000000E+00  0.00000000000E+00  0.21501409638E+03  0.21501409638E+03  0.00000000000E+00 0. -1.
         -2   -1    0    0    0  501 -0.00000000000E+00 -0.00000000000E+00 -0.74146234522E+02  0.74146234522E+02  0.00000000000E+00 0.  1.
         23    2    1    2    0    0 -0.16430927479E+01 -0.62396424629E+02  0.83198585919E+02  0.16268342194E+03  0.12509147659E+03 0.  0.
          5    1    3    3  502    0  0.29340933617E+02 -0.83856150525E+02  0.87195598871E+02  0.12455235537E+03  0.41800000000E+01 0. -1.
         -5    1    3    3    0  502 -0.30984026365E+02  0.21459725896E+02 -0.39970129524E+01  0.38131066571E+02  0.41800000000E+01 0. -1.
        -11    1    1    2    0    0 -0.26321391616E+02  0.42323214936E+01  0.55881194754E+02  0.61914748881E+02  0.00000000000E+00 0. -1.
         11    1    1    2    0    0  0.27964484364E+02  0.58164103136E+02  0.17880811841E+01  0.64562160076E+02  0.00000000000E+00 0.  1.
</event>
<event>
 7    1  0.5109948E-006  0.9430067E+02  0.7561462E-02  0.1292759E+00
         -1   -1    0    0    0  501 -0.00000000000E+00  0.00000000000E+00  0.61360858423E+02  0.61360858423E+02  0.00000000000E+00 0.  1.
          1   -1    0    0  501    0  0.00000000000E+00 -0.00000000000E+00 -0.20650661836E+03  0.20650661836E+03  0.00000000000E+00 0. -1.
         23    2    1    2    0    0  0.27465840628E+02 -0.95939014131E+01 -0.80864961941E+02  0.15176544918E+03  0.12508874509E+03 0.  0.
          5    1    3    3  502    0  0.38328631021E+02  0.31171408358E+02  0.10825551017E+02  0.50748454260E+02  0.41800000000E+01 0.  1.
         -5    1    3    3    0  502 -0.10862790393E+02 -0.40765309771E+02 -0.91690512959E+02  0.10101699492E+03  0.41800000000E+01 0.  1.
        -11    1    1    2    0    0 -0.59548310509E+02  0.20129437856E+02 -0.43700846917E+02  0.76556904157E+02  0.00000000000E+00 0.  1.
         11    1    1    2    0    0  0.32082469881E+02 -0.10535536443E+02 -0.20579951076E+02  0.39545123443E+02  0.00000000000E+00 0. -1.
</event>
<event>
 7    1  0.5109948E-006  0.9021918E+02  0.7561462E-02  0.1302322E+00
         -2   -1    0    0    0  501 -0.00000000000E+00  0.00000000000E+00  0.69960501925E+02  0.69960501925E+02  0.00000000000E+00 0.  1.
          2   -1    0    0  501    0  0.00000000000E+00 -0.00000000000E+00 -0.20177041613E+03  0.20177041613E+03  0.00000000000E+00 0. -1.
         23    2    1    2    0    0  0.39450971150E+01 -0.13905599162E+01 -0.17361137217E+02  0.12635962141E+03  0.12509135617E+03 0.  0.
          5    1    3    3  502    0  0.63594947313E+02 -0.10588824354E+02 -0.70767718130E+01  0.64992258187E+02  0.41800000000E+01 0.  1.
         -5    1    3    3    0  502 -0.59649850198E+02  0.91982644377E+01 -0.10284365404E+02  0.61367363224E+02  0.41800000000E+01 0.  1.
        -11    1    1    2    0    0 -0.22800345358E+02  0.18889721900E+02 -0.11588419032E+03  0.11960695175E+03  0.00000000000E+00 0. -1.
         11    1    1    2    0    0  0.18855248243E+02 -0.17499161984E+02  0.14354133268E+01  0.25764344895E+02  0.00000000000E+00 0.  1.
</event>
<event>
 7    1  0.5109948E-006  0.9075929E+02  0.7561462E-02  0.1301023E+00
          3   -1    0    0  501    0  0.00000000000E+00  0.00000000000E+00  0.52294072933E+02  0.52294072933E+02  0.00000000000E+00 0. -1.
         -3   -1    0    0    0  501 -0.00000000000E+00 -0.00000000000E+00 -0.43323233587E+03  0.43323233587E+03  0.00000000000E+00 0.  1.
         23    2    1    2    0    0  0.21711826720E+00 -0.93013668198E+01 -0.37361106977E+03  0.39410535953E+03  0.12508892992E+03 0.  0.
          5    1    3    3  502    0 -0.25236790096E+02 -0.61718000164E+02 -0.18803373871E+03  0.19954990958E+03  0.41800000000E+01 0. -1.
         -5    1    3    3    0  502  0.25453908363E+02  0.52416633344E+02 -0.18557733106E+03  0.19455544995E+03  0.41800000000E+01 0. -1.
        -11    1    1    2    0    0  0.18573454133E+02 -0.16177523619E+02 -0.39329276870E+02  0.46405576044E+02  0.00000000000E+00 0.  1.
         11    1    1    2    0    0 -0.18790572400E+02  0.25478890439E+02  0.32002083703E+02  0.45015473233E+02  0.00000000000E+00 0. -1.
</event>
<event>
 6    1  0.5109948E-006  0.1703566E+03  0.7561462E-02  0.1177476E+00
          1   -1    0    0  501    0  0.00000000000E+00  0.00000000000E+00  0.18445035852E+03  0.18445035852E+03  0.00000000000E+00 0. -1.
         -1   -1    0    0    0  501 -0.00000000000E+00 -0.00000000000E+00 -0.17788022455E+03  0.17788022455E+03  0.00000000000E+00 0.  1.
          5    1    1    2  502    0  0.79464307061E+02 -0.78676452110E+02  0.96631569218E+01  0.11231833873E+03  0.41800000000E+01 0. -1.
         -5    1    1    2    0  502 -0.11306361924E+03  0.76450327034E+02 -0.45207797313E+02  0.14383758840E+03  0.41800000000E+01 0.  1.
        -11    1    1    2    0    0 -0.22882954299E+02  0.22654012372E+02 -0.10389058578E+01  0.32216660276E+02  0.00000000000E+00 0.  1.
         11    1    1    2    0    0  0.56482266474E+02 -0.20427887296E+02  0.43153680218E+02  0.73957995658E+02  0.00000000000E+00 0. -1.
</event>
<event>
 7    1  0.5109948E-006  0.9930455E+02  0.7561462E-02  0.1281765E+00
          1   -1    0    0  501    0  0.00000000000E+00  0.00000000000E+00  0.10416224709E+03  0.10416224709E+03  0.00000000000E+00 0. -1.
         -1   -1    0    0    0  501 -0.00000000000E+00 -0.00000000000E+00 -0.19660626181E+03  0.19660626181E+03  0.00000000000E+00 0.  1.
         23    2    1    2    0    0 -0.75406097948E+02 -0.53654511224E+02 -0.56250970982E+02  0.16545833233E+03  0.12508957518E+03 0.  0.
          5    1    3    3  502    0 -0.12280399886E+02 -0.32565808032E+02  0.36900910244E+02  0.50896853056E+02  0.41800000000E+01 0. -1.
         -5    1    3    3    0  502 -0.63125698062E+02 -0.21088703192E+02 -0.93151881226E+02  0.11456147928E+03  0.41800000000E+01 0. -1.
        -11    1    1    2    0    0  0.35109707051E+02  0.80677037660E+01 -0.59992258003E+02  0.69977499194E+02  0.00000000000E+00 0.  1.
         11    1    1    2    0    0  0.40296390897E+02  0.45586807458E+02  0.23799214260E+02  0.65332677375E+02  0.00000000000E+00 0. -1.
</event>
<event>
 7    1  0.5109948E-006  0.1882724E+03  0.7561462E-02  0.1160029E+00
         -3   -1    0    0    0  501 -0.00000000000E+00  0.00000000000E+00  0.13222389200E+03  0.13222389200E+03  0.00000000000E+00 0.  1.
          3   -1    0    0  501    0  0.00000000000E+00 -0.00000000000E+00 -0.32783937301E+03  0.32783937301E+03  0.00000000000E+00 0. -1.
         23    2    1    2    0    0 -0.26397049716E+02  0.15402682984E+03 -0.10502728296E+02  0.20044905881E+03  0.12509376215E+03 0.  0.
          5    1    3    3  502    0 -0.68882193816E+02  0.12915505547E+03  0.10395995437E+02  0.14680372645E+03  0.41800000000E+01 0. -1.
         -5    1    3    3    0  502  0.42485144100E+02  0.24871774370E+02 -0.20898723733E+02  0.53645332352E+02  0.41800000000E+01 0. -1.
        -11    1    1    2    0    0  0.60439311380E+02 -0.97107080743E+02 -0.13187498553E+03  0.17456719995E+03  0.00000000000E+00 0.  1.
         11    1    1    2    0    0 -0.34042261664E+02 -0.56919749101E+02 -0.53237767181E+02  0.85047006246E+02  0.00000000000E+00 0. -1.
</event>
<event>
 7    1  0.5109948E-006  0.1148487E+03  0.7561462E-02  0.1251845E+00
         -1   -1    0    0    0  501 -0.00000000000E+00  0.00000000000E+00  0.59370144320E+02  0.59370144320E+02  0.00000000000E+00 0.  1.
          1   -1    0    0  501    0  0.00000000000E+00 -0.00000000000E+00 -0.40520328143E+03  0.40520328143E+03  0.00000000000E+00 0. -1.
         23    2    1    2    0    0  0.28413428809E+02  0.58699031996E+02 -0.52360464773E+02  0.15048084635E+03  0.12509983035E+03 0.  0.
          5    1    3    3  502    0  0.67122436497E+02  0.20843645333E+02  0.61221984075E+01  0.70674130666E+02  0.41800000000E+01 0.  1.
         -5    1    3    3    0  502 -0.38709007688E+02  0.37855386663E+02 -0.58482663181E+02  0.79806715684E+02  0.41800000000E+01 0.  1.
        -11    1    1    2    0    0 -0.52616535673E+02 -0.61135229025E+02 -0.26306013636E+03  0.27514841703E+03  0.00000000000E+00 0.  1.
         11    1    1    2    0    0  0.24203106864E+02  0.24361970296E+01 -0.30412535974E+02  0.38944162364E+02  0.00000000000E+00 0. -1.
</event>
<event>
 7    1  0.5109948E-006  0.1311440E+03  0.7561462E-02  0.1225768E+00
          1   -1    0    0  501    0  0.00000000000E+00  0.00000000000E+00  0.10098963187E+04  0.10098963187E+04  0.00000000000E+00 0. -1.
         -1   -1    0    0    0  501 -0.00000000000E+00 -0.00000000000E+00 -0.18407745240E+02  0.18407745240E+02  0.00000000000E+00 0.  1.
         23    2    1    2    0    0 -0.76237960448E+02 -0.23393111298E+02  0.46860192486E+03  0.49152337979E+03  0.12509198466E+03 0.  0.
          5    1    3    3  502    0 -0.11694815494E+02 -0.65919620558E+02  0.16283010132E+03  0.17610587549E+03  0.41800000000E+01 0.  1.
         -5    1    3    3    0  502 -0.64543144955E+02  0.42526509260E+02  0.30577182354E+03  0.31541750430E+03  0.41800000000E+01 0.  1.
        -11    1    1    2    0    0  0.72393411869E+02 -0.19311315504E+02  0.26644050787E+03  0.27677477707E+03  0.00000000000E+00 0. -1.
         11    1    1    2    0    0  0.38445485793E+01  0.42704426802E+02  0.25644614078E+03  0.26000590713E+03  0.00000000000E+00 0.  1.
</event>
<event>
 6    1  0.5109948E-006  0.1575789E+03  0.7561462E-02  0.1191458E+00
         -2   -1    0    0    0  501 -0.00000000000E+00  0.00000000000E+00  0.38992750381E+02  0.38992750381E+02  0.00000000000E+00 0.  1.
          2   -1    0    0  501    0  0.00000000000E+00 -0.00000000000E+00 -0.84605802167E+03  0.84605802167E+03  0.00000000000E+00 0. -1.
          5    1    1    2  502    0 -0.24183776412E+02  0.66246287193E+02 -0.68062978634E+02  0.98099271501E+02  0.41800000000E+01 0. -1.
         -5    1    1    2    0  502 -0.75683202765E+01 -0.13655502120E+03 -0.37433643356E+03  0.39855964569E+03  0.41800000000E+01 0.  1.
        -11    1    1    2    0    0 -0.21339742636E+02  0.42944061301E+02 -0.54787824349E+02  0.72809908073E+02  0.00000000000E+00 0.  1.
         11    1    1    2    0    0  0.53091839325E+02  0.27364672708E+02 -0.30987803475E+03  0.31558194679E+03  0.00000000000E+00 0. -1.
</event>
<event>
 7    1  0.5109948E-006  0.1321364E+03  0.7561462E-02  0.1224320E+00
          2   -1    0    0  501    0  0.00000000000E+00  0.00000000000E+00  0.43769162820E+03  0.43769162820E+03  0.00000000000E+00 0. -1.
         -2   -1    0    0    0  501 -0.00000000000E+00 -0.00000000000E+00 -0.67660037766E+02  0.67660037766E+02  0.00000000000E+00 0.  1.
         23    2    1    2    0    0  0.53465562537E+02  0.10740659724E+03  0.11218926361E+03  0.20645267106E+03  0.12506610657E+03 0.  0.
          5    1    3    3  502    0  0.65404082939E+02  0.63064031443E+02  0.65491474280E+01  0.91187333874E+02  0.41800000000E+01 0. -1.
         -5    1    3    3    0  502 -0.11938520402E+02  0.44342565795E+02  0.10564011618E+03  0.11526533719E+03  0.41800000000E+01 0. -1.
        -11    1    1    2    0    0 -0.53348698784E+02 -0.61959519417E+02  0.76575585114E+02  0.11202181013E+03  0.00000000000E+00 0.  1.
         11    1    1    2    0    0 -0.11686375280E+00 -0.45447077821E+02  0.18126674171E+03  0.18687718477E+03  0.00000000000E+00 0. -1.
</event>
<event>
 7    1  0.5109948E-006  0.1268853E+03  0.7561462E-02  0.1232152E+00
         -1   -1    0    0    0  501 -0.00000000000E+00  0.00000000000E+00  0.49734144883E+02  0.49734144883E+02  0.00000000000E+00 0.  1.
          1   -1    0    0  501    0  0.00000000000E+00 -0.00000000000E+00 -0.41869278558E+03  0.41869278558E+03  0.00000000000E+00 0. -1.
         23    2    1    2    0    0 -0.37587748472E+01  0.71514103480E+02 -0.99500443383E+02  0.17514629471E+03  0.12508993138E+03 0.  0.
          5    1    3    3  502    0  0.51724908827E+02 -0.72748580090E+00 -0.46462673899E+02  0.69658078459E+02  0.41800000000E+01 0.  1.
         -5    1    3    3    0  502 -0.55483683674E+02  0.72241589280E+02 -0.53037769484E+02  0.10548821625E+03  0.41800000000E+01 0.  1.
        -11    1    1    2    0    0 -0.35154479208E+02 -0.77688020974E+01 -0.13225624580E+03  0.13706898353E+03  0.00000000000E+00 0.  1.
         11    1    1    2    0    0  0.38913254055E+02 -0.63745301382E+02 -0.13720195151E+03  0.15621165222E+03  0.00000000000E+00 0. -1.
</event>
<event>
 7    1  0.5109948E-006  0.1300155E+03  0.7561462E-02  0.1227433E+00
          2   -1    0    0  501    0  0.00000000000E+00  0.00000000000E+00  0.30901838362E+03  0.30901838362E+03  0.00000000000E+00 0. -1.
         -2   -1    0    0    0  501 -0.00000000000E+00 -0.00000000000E+00 -0.10170890958E+03  0.10170890958E+03  0.00000000000E+00 0.  1.
         23    2    1    2    0    0 -0.11616790003E+03  0.48625011198E+02  0.37155542890E+02  0.18134762233E+03  0.12508818109E+03 0.  0.
          5    1    3    3  502    0  0.21208506180E+01 -0.18108605786E+01  0.51631549613E+02  0.51875490733E+02  0.41800000000E+01 0.  1.
         -5    1    3    3    0  502 -0.11828875064E+03  0.50435871776E+02 -0.14476006723E+02  0.12947213160E+03  0.41800000000E+01 0.  1.
        -11    1    1    2    0    0  0.50843886563E+02 -0.15826262564E+02  0.11186835807E+02  0.54412468084E+02  0.00000000000E+00 0.  1.
         11    1    1    2    0    0  0.65324013463E+02 -0.32798748633E+02  0.15896709535E+03  0.17496720278E+03  0.00000000000E+00 0. -1.
</event>
<event>
 7    1  0.5109948E-006  0.9570834E+02  0.7561462E-02  0.1289589E+00
          1   -1    0    0  501    0  0.00000000000E+00  0.00000000000E+00  0.16800488410E+03  0.16800488410E+03  0.00000000000E+00 0. -1.
         -1   -1    0    0    0  501 -0.00000000000E+00 -0.00000000000E+00 -0.81535022442E+02  0.81535022442E+02  0.00000000000E+00 0.  1.
         23    2    1    2    0    0 -0.46378154262E+02  0.14565819300E+02  0.57647011801E+02  0.14606056360E+03  0.12508962381E+03 0.  0.
          5    1    3    3  502    0  0.11536560654E+02 -0.25051655271E+02 -0.25073183862E+02  0.37507527412E+02  0.41800000000E+01 0. -1.
         -5    1    3    3    0  502 -0.57914714916E+02  0.39617474570E+02  0.82720195664E+02  0.10855303619E+03  0.41800000000E+01 0. -1.
        -11    1    1    2    0    0  0.37505488962E+02  0.29850393871E+02 -0.31496824876E+01  0.48037779052E+02  0.00000000000E+00 0.  1.
         11    1    1    2    0    0  0.88726652998E+01 -0.44416213170E+02  0.31972532343E+02  0.55441563888E+02  0.00000000000E+00 0. -1.
</event>
<event>
 7    1  0.5109948E-006  0.1167217E+03  0.7561462E-02  0.1248605E+00
         -1   -1    0    0    0  501 -0.00000000000E+00  0.00000000000E+00  0.80392278088E+02  0.80392278088E+02  0.00000000000E+00 0.  1.
          1   -1    0    0  501    0  0.00000000000E+00 -0.00000000000E+00 -0.19274672496E+03  0.19274672496E+03  0.00000000000E+00 0. -1.
         23    2    1    2    0    0 -0.10717771799E+02 -0.63499365539E+02 -0.47396860346E+02  0.14846128854E+03  0.12508897541E+03 0.  0.
          5    1    3    3  502    0  0.53614739446E+02 -0.17070775470E+02 -0.38964156767E+02  0.68568429861E+02  0.41800000000E+01 0. -1.
         -5    1    3    3    0  502 -0.64332511245E+02 -0.46428590069E+02 -0.84327035790E+01  0.79892858682E+02  0.41800000000E+01 0. -1.
        -11    1    1    2    0    0  0.35601025987E+02  0.63376631963E+02 -0.68086509926E+02  0.99598209643E+02  0.00000000000E+00 0. -1.
         11    1    1    2    0    0 -0.24883254188E+02  0.12273357580E+00  0.31289233986E+01  0.25079504862E+02  0.00000000000E+00 0.  1.
</event>
<event>
 7    1  0.5109948E-006  0.1301428E+03  0.7561462E-02  0.1227244E+00
          1   -1    0    0  501    0  0.00000000000E+00  0.00000000000E+00  0.78635272528E+02  0.78635272528E+02  0.00000000000E+00 0. -1.
         -1   -1    0    0    0  501 -0.00000000000E+00 -0.00000000000E+00 -0.33844025059E+03  0.33844025059E+03  0.00000000000E+00 0.  1.
         23    2    1    2    0    0  0.79933702502E+02  0.51545952825E+02 -0.22711102886E+03  0.27617707354E+03  0.12509186413E+03 0.  0.
          5    1    3    3  502    0  0.73995051965E+02 -0.26539599561E+02 -0.11401723092E+03  0.13855330890E+03  0.41800000000E+01 0. -1.
         -5    1    3    3    0  502  0.59386505373E+01  0.78085552386E+02 -0.11309379793E+03  0.13762376464E+03  0.41800000000E+01 0. -1.
        -11    1    1    2    0    0 -0.68848180055E+02 -0.23113607728E+02  0.24021464089E+02  0.76494061835E+02  0.00000000000E+00 0. -1.
         11    1    1    2    0    0 -0.11085522447E+02 -0.28432345097E+02 -0.56715413296E+02  0.64404387747E+02  0.00000000000E+00 0.  1.
</event>
<event>
 7    1  0.5109948E-006  0.1091461E+03  0.7561462E-02  0.1262159E+00
          1   -1    0    0  501    0  0.00000000000E+00  0.00000000000E+00  0.91584263356E+02  0.91584263356E+02  0.00000000000E+00 0. -1.
         -1   -1    0    0    0  501 -0.00000000000E+00 -0.00000000000E+00 -0.17265786485E+03  0.17265786485E+03  0.00000000000E+00 0.  1.
         23    2    1    2    0    0 -0.57927210320E+02  0.24754868842E+02 -0.57814134927E+02  0.15152000035E+03  0.12508985204E+03 0.  0.
          5    1    3    3  502    0 -0.72562391223E+01 -0.35829086031E+02  0.18874970393E+02  0.41353516408E+02  0.41800000000E+01 0.  1.
         -5    1    3    3    0  502 -0.50670971198E+02  0.60583954873E+02 -0.76689105319E+02  0.11016648395E+03  0.41800000000E+01 0.  1.
        -11    1    1    2    0    0 -0.19399812294E+02 -0.14884181053E+02  0.11913852332E+02  0.27199842647E+02  0.00000000000E+00 0. -1.
         11    1    1    2    0    0  0.77327022614E+02 -0.98706877898E+01 -0.35173318896E+02  0.85522285201E+02  0.00000000000E+00 0.  1.
</event>
<event>
 7    1  0.5109948E-006  0.9674872E+02  0.7561462E-02  0.1287285E+00
          1   -1    0    0  501    0  0.00000000000E+00  0.00000000000E+00  0.22879175392E+02  0.22879175392E+02  0.00000000000E+00 0. -1.
         -1   -1    0    0    0  501 -0.00000000000E+00 -0.00000000000E+00 -0.65808816867E+03  0.65808816867E+03  0.00000000000E+00 0.  1.
         23    2    1    2    0    0  0.45443126482E+02  0.30603601431E+02 -0.34550671149E+03  0.37151561798E+03  0.12508920241E+03 0.  0.
          5    1    3    3  502    0  0.20662829286E+02  0.49267551080E+02 -0.46723590517E+02  0.71097189919E+02  0.41800000000E+01 0.  1.
         -5    1    3    3    0  502  0.24780297196E+02 -0.18663949648E+02 -0.29878312097E+03  0.30041842807E+03  0.41800000000E+01 0.  1.
        -11    1    1    2    0    0 -0.24992705254E+01 -0.57748324205E+02 -0.14544174026E+03  0.15650691714E+03  0.00000000000E+00 0.  1.
         11    1    1    2    0    0 -0.42943855957E+02  0.27144722774E+02 -0.14426054153E+03  0.15294480894E+03  0.00000000000E+00 0. -1.
</event>
<event>
 7    1  0.5109948E-006  0.9117523E+02  0.7561462E-02  0.1300030E+00
          1   -1    0    0  501    0  0.00000000000E+00  0.00000000000E+00  0.28153662869E+03  0.28153662869E+03  0.00000000000E+00 0. -1.
         -1   -1    0    0    0  501 -0.00000000000E+00 -0.00000000000E+00 -0.48206260701E+02  0.48206260701E+02  0.00000000000E+00 0.  1.
         23    2    1    2    0    0  0.33246032221E+02 -0.11172905182E+02  0.99574265210E+02  0.16368469643E+03  0.12509001993E+03 0.  0.
          5    1    3    3  502    0 -0.90932300430E+01 -0.54307164231E+02  0.10896544262E+02  0.56286428171E+02  0.41800000000E+01 0.  1.
         -5    1    3    3    0  502  0.42339262264E+02  0.43134259049E+02  0.88677720948E+02  0.10739826826E+03  0.41800000000E+01 0.  1.
        -11    1    1    2    0    0 -0.24879510324E+02  0.34057423300E+02  0.14901972089E+02  0.44732168380E+02  0.00000000000E+00 0.  1.
         11    1    1    2    0    0 -0.83665218966E+01 -0.22884518118E+02  0.11885413069E+03  0.12132602458E+03  0.00000000000E+00 0. -1.
</event>
<event>
 7    1  0.5109948E-006  0.8968869E+02  0.7561462E-02  0.1303607E+00
         -1   -1    0    0    0  501 -0.00000000000E+00  0.00000000000E+00  0.45591556544E+02  0.45591556544E+02  0.00000000000E+00 0.  1.
          1   -1    0    0  501    0  0.00000000000E+00 -0.00000000000E+00 -0.25746732360E+03  0.25746732360E+03  0.00000000000E+00 0. -1.
         23    2    1    2    0    0  0.16899315633E+02 -0.21349086117E+02 -0.15070261566E+03  0.19870877421E+03  0.12661962025E+03 0.  0.
          5    1    3    3  502    0  0.59178299207E+02 -0.95856506893E+01 -0.14141945221E+03  0.15365835369E+03  0.41800000000E+01 0. -1.
         -5    1    3    3    0  502 -0.42278983574E+02 -0.11763435428E+02 -0.92831634540E+01  0.45050420518E+02  0.41800000000E+01 0.  1.
        -11    1    1    2    0    0 -0.33041549564E+02  0.39109453702E+02 -0.16768534082E+02  0.53874642474E+02  0.00000000000E+00 0.  1.
         11    1    1    2    0    0  0.16142233931E+02 -0.17760367585E+02 -0.44404617312E+02  0.50475463462E+02  0.00000000000E+00 0. -1.
</event>
<event>
 7    1  0.5109948E-006  0.1272455E+03  0.7561462E-02  0.1231601E+00
          4   -1    0    0  501    0  0.00000000000E+00  0.00000000000E+00  0.18775219858E+03  0.18775219858E+03  0.00000000000E+00 0. -1.
         -4   -1    0    0    0  501 -0.00000000000E+00 -0.00000000000E+00 -0.13016708888E+03  0.13016708888E+03  0.00000000000E+00 0.  1.
         23    2    1    2    0    0  0.78357541995E+02 -0.78634510424E+02 -0.11773667139E+01  0.16725141636E+03  0.12509340297E+03 0.  0.
          5    1    3    3  502    0 -0.15755822693E+02 -0.32278938434E+01  0.37104604239E+02  0.40655741330E+02  0.41800000000E+01 0.  1.
         -5    1    3    3    0  502  0.94113364688E+02 -0.75406616580E+02 -0.38281970953E+02  0.12659567503E+03  0.41800000000E+01 0.  1.
        -11    1    1    2    0    0 -0.32245309055E+02  0.86341089436E+01 -0.17194219924E+02  0.37549287504E+02  0.00000000000E+00 0.  1.
         11    1    1    2    0    0 -0.46112232940E+02  0.70000401480E+02  0.75956696340E+02  0.11311858359E+03  0.00000000000E+00 0. -1.
</event>
<event>
 7    1  0.5109948E-006  0.1069375E+03  0.7561462E-02  0.1266349E+00
         -2   -1    0    0    0  501 -0.00000000000E+00  0.00000000000E+00  0.12234869133E+04  0.12234869133E+04  0.00000000000E+00 0.  1.
          2   -1    0    0  501    0  0.00000000000E+00 -0.00000000000E+00 -0.22728773153E+02  0.22728773153E+02  0.00000000000E+00 0. -1.
         23    2    1    2    0    0 -0.33594329360E+02  0.59599922771E+02  0.10138295266E+04  0.10238055235E+04  0.12508681442E+03 0.  0.
          5    1    3    3  502    0  0.45777247520E+02  0.24779753308E+02  0.27657056541E+03  0.28145753253E+03  0.41800000000E+01 0. -1.
         -5    1    3    3    0  502 -0.79371576880E+02  0.34820169463E+02  0.73725896118E+03  0.74234799095E+03  0.41800000000E+01 0. -1.
        -11    1    1    2    0    0  0.38944679988E+02 -0.46040511249E+02  0.19611726021E+03  0.20517893783E+03  0.00000000000E+00 0.  1.
         11    1    1    2    0    0 -0.53503506283E+01 -0.13559411522E+02 -0.91886466614E+01  0.17231225149E+02  0.00000000000E+00 0. -1.
</event>
<event>
 7    1  0.5109948E-006  0.7862448E+02  0.7561462E-02  0.1333001E+00
          1   -1    0    0  501    0  0.00000000000E+00  0.00000000000E+00  0.48034496483E+02  0.48034496483E+02  0.00000000000E+00 0. -1.
         -1   -1    0    0    0  501 -0.00000000000E+00 -0.00000000000E+00 -0.62902869047E+03  0.62902869047E+03  0.00000000000E+00 0.  1.
         23    2    1    2    0    0 -0.16708465480E+02  0.52289185339E+01 -0.59670853277E+03  0.60937646439E+03  0.12236048327E+03 0.  0.
          5    1    3    3  502    0 -0.35391496310E+02 -0.47477241306E+02 -0.19689315448E+03  0.20564783766E+03  0.41800000000E+01 0. -1.
         -5    1    3    3    0  502  0.18683030830E+02  0.52706159840E+02 -0.39981537830E+03  0.40372862674E+03  0.41800000000E+01 0.  1.
        -11    1    1    2    0    0  0.28303184315E+02 -0.88626443252E+01  0.34386093604E+02  0.45409471921E+02  0.00000000000E+00 0. -1.
         11    1    1    2    0    0 -0.11594718835E+02  0.36337257913E+01 -0.18671754820E+02  0.22277250639E+02  0.00000000000E+00 0.  1.
</event>
<event>
 7    1  0.5109948E-006  0.3818502E+03  0.7561462E-02  0.1050252E+00
         -1   -1    0    0    0  501 -0.00000000000E+00  0.00000000000E+00  0.91284380847E+03  0.91284380847E+03  0.00000000000E+00 0.  1.
          1   -1    0    0  501    0  0.00000000000E+00 -0.00000000000E+00 -0.25323996245E+03  0.25323996245E+03  0.00000000000E+00 0. -1.
         23    2    1    2    0    0 -0.27225646439E+03  0.26198786952E+03  0.66735301529E+03  0.77702559352E+03  0.12508996676E+03 0.  0.
          5    1    3    3  502    0 -0.19969429350E+03  0.16559498127E+03  0.55253638690E+03  0.61042070732E+03  0.41800000000E+01 0. -1.
         -5    1    3    3    0  502 -0.72562170888E+02  0.96392888245E+02  0.11481662839E+03  0.16660488619E+03  0.41800000000E+01 0. -1.
        -11    1    1    2    0    0  0.57566342626E+02 -0.96847198256E+02  0.27350884762E+02  0.11593676945E+03  0.00000000000E+00 0. -1.
         11    1    1    2    0    0  0.21469012176E+03 -0.16514067126E+03 -0.35100054040E+02  0.27312140795E+03  0.00000000000E+00 0.  1.
</event>
<event>
 7    1  0.5109948E-006  0.1172012E+03  0.7561462E-02  0.1247787E+00
         -3   -1    0    0    0  501 -0.00000000000E+00  0.00000000000E+00  0.69610349454E+02  0.69610349454E+02  0.00000000000E+00 0.  1.
          3   -1    0    0  501    0  0.00000000000E+00 -0.00000000000E+00 -0.27774112524E+03  0.27774112524E+03  0.00000000000E+00 0. -1.
         23    2    1    2    0    0 -0.21826101054E+02  0.42127358851E+02 -0.24206418972E+02  0.13595621921E+03  0.12508816799E+03 0.  0.
          5    1    3    3  502    0  0.38997299237E+02  0.57202682427E+02 -0.21426130315E+01  0.69390196824E+02  0.41800000000E+01 0.  1.
         -5    1    3    3    0  502 -0.60823400291E+02 -0.15075323576E+02 -0.22063805941E+02  0.66566022387E+02  0.41800000000E+01 0.  1.
        -11    1    1    2    0    0  0.40509669054E+02 -0.62575723099E+02 -0.11425791508E+03  0.13642443171E+03  0.00000000000E+00 0.  1.
         11    1    1    2    0    0 -0.18683568001E+02  0.20448364249E+02 -0.69666441731E+02  0.74970823773E+02  0.00000000000E+00 0. -1.
</event>
<event>
 7    1  0.5109948E-006  0.8627966E+02  0.7561462E-02  0.1312120E+00
          2   -1    0    0  501    0  0.00000000000E+00  0.00000000000E+00  0.12087440907E+03  0.12087440907E+03  0.00000000000E+00 0. -1.
         -2   -1    0    0    0  501 -0.00000000000E+00 -0.00000000000E+00 -0.11627083516E+03  0.11627083516E+03  0.00000000000E+00 0.  1.
         23    2    1    2    0    0 -0.47893319390E+02 -0.57676599865E+01 -0.16884171492E+02  0.13512910440E+03  0.12509102152E+03 0.  0.
          5    1    3    3  502    0  0.19824848812E+02  0.31516273383E+02 -0.39533776132E+02  0.54467347775E+02  0.41800000000E+01 0.  1.
         -5    1    3    3    0  502 -0.67718168202E+02 -0.37283933369E+02  0.22649604640E+02  0.80661756629E+02  0.41800000000E+01 0.  1.
        -11    1    1    2    0    0  0.24196715631E+02  0.18791041629E+02 -0.30617313199E+02  0.43312863682E+02  0.00000000000E+00 0.  1.
         11    1    1    2    0    0  0.23696603759E+02 -0.13023381642E+02  0.52105058594E+02  0.58703276146E+02  0.00000000000E+00 0. -1.
</event>
<event>
 7    1  0.5109948E-006  0.1075976E+03  0.7561462E-02  0.1265084E+00
         -1   -1    0    0    0  501 -0.00000000000E+00  0.00000000000E+00  0.20971522121E+02  0.20971522121E+02  0.00000000000E+00 0.  1.
          1   -1    0    0  501    0  0.00000000000E+00 -0.00000000000E+00 -0.73961092251E+03  0.73961092251E+03  0.00000000000E+00 0. -1.
         23    2    1    2    0    0 -0.46401128715E+02  0.12777293356E+02 -0.28563866048E+03  0.31552025728E+03  0.12508902598E+03 0.  0.
          5    1    3    3  502    0 -0.78982990971E+02 -0.11673274915E+01 -0.25949148806E+03  0.27128026153E+03  0.41800000000E+01 0. -1.
         -5    1    3    3    0  502  0.32581862257E+02  0.13944620848E+02 -0.26147172414E+02  0.44239995750E+02  0.41800000000E+01 0. -1.
        -11    1    1    2    0    0  0.60779844219E+01 -0.47077764674E+02 -0.25399662098E+03  0.25839415878E+03  0.00000000000E+00 0.  1.
         11    1    1    2    0    0  0.40323144293E+02  0.34300471318E+02 -0.17900411893E+03  0.18666802858E+03  0.00000000000E+00 0. -1.
</event>
<event>
 7    1  0.5109948E-006  0.2578117E+03  0.7561462E-02  0.1108465E+00
          1   -1    0    0  501    0  0.00000000000E+00  0.00000000000E+00  0.16087678730E+04  0.16087678730E+04  0.00000000000E+00 0. -1.
         -1   -1    0    0    0  501 -0.00000000000E+00 -0.00000000000E+00 -0.52116053051E+02  0.52116053051E+02  0.00000000000E+00 0.  1.
         23    2    1    2    0    0 -0.23262242322E+03 -0.59028796781E+02  0.45253296514E+03  0.52728699133E+03  0.12509155066E+03 0.  0.
          5    1    3    3  502    0 -0.21089275773E+03 -0.16815544749E+02  0.41774283676E+03  0.46827883560E+03  0.41800000000E+01 0.  1.
         -5    1    3    3    0  502 -0.21729665497E+02 -0.42213252031E+02  0.34790128386E+02  0.59008155731E+02  0.41800000000E+01 0.  1.
        -11    1    1    2    0    0  0.16037558592E+03  0.82556868313E+02  0.74455940201E+03  0.76609703575E+03  0.00000000000E+00 0.  1.
         11    1    1    2    0    0  0.72246837307E+02 -0.23528071532E+02  0.35955945284E+03  0.36749989902E+03  0.00000000000E+00 0. -1.
</event>
<event>
 7    1  0.5109948E-006  0.1382789E+03  0.7561462E-02  0.1215664E+00
          2   -1    0    0  501    0  0.00000000000E+00  0.00000000000E+00  0.76385864904E+03  0.76385864904E+03  0.00000000000E+00 0.  1.
         -2   -1    0    0    0  501 -0.00000000000E+00 -0.00000000000E+00 -0.47150362198E+02  0.47150362198E+02  0.00000000000E+00 0. -1.
         23    2    1    2    0    0 -0.61437897856E+00 -0.13378181513E+03  0.20884940099E+03  0.27778320270E+03  0.12508990323E+03 0.  0.
          5    1    3    3  502    0  0.93967554676E+01 -0.66969876527E+02  0.19794956510E+03  0.20922420056E+03  0.41800000000E+01 0. -1.
         -5    1    3    3    0  502 -0.10011134446E+02 -0.66811938603E+02  0.10899835886E+02  0.68559002145E+02  0.41800000000E+01 0. -1.
        -11    1    1    2    0    0  0.21846158839E+02  0.87669499162E+02  0.43588125821E+03  0.44514679264E+03  0.00000000000E+00 0.  1.
         11    1    1    2    0    0 -0.21231779861E+02  0.46112315967E+02  0.71977627652E+02  0.88079015903E+02  0.00000000000E+00 0. -1.
</event>
<event>
 7    1  0.5109948E-006  0.1124529E+03  0.7561462E-02  0.1256094E+00
         -1   -1    0    0    0  501 -0.00000000000E+00  0.00000000000E+00  0.12515294582E+04  0.12515294582E+04  0.00000000000E+00 0.  1.
          1   -1    0    0  501    0  0.00000000000E+00 -0.00000000000E+00 -0.11539739622E+02  0.11539739622E+02  0.00000000000E+00 0. -1.
         23    2    1    2    0    0 -0.35315887827E+01  0.34465327206E+02  0.89764445429E+03  0.90697914373E+03  0.12508105346E+03 0.  0.
          5    1    3    3  502    0  0.57393802715E+02  0.36755024911E+02  0.43815790937E+03  0.44344650905E+03  0.41800000000E+01 0.  1.
         -5    1    3    3    0  502 -0.60925391498E+02 -0.22896977055E+01  0.45948654492E+03  0.46353263467E+03  0.41800000000E+01 0.  1.
        -11    1    1    2    0    0  0.51397031310E+01  0.30296933565E+02  0.15040497739E+03  0.15351214269E+03  0.00000000000E+00 0.  1.
         11    1    1    2    0    0 -0.16081143483E+01 -0.64762260770E+02  0.19194028686E+03  0.20257791136E+03  0.00000000000E+00 0. -1.
</event>
<event>
 7    1  0.5109948E-006  0.8206536E+02  0.7561462E-02  0.1323290E+00
          1   -1    0    0  501    0  0.00000000000E+00  0.00000000000E+00  0.11075100888E+03  0.11075100888E+03  0.00000000000E+00 0. -1.
         -1   -1    0    0    0  501 -0.00000000000E+00 -0.00000000000E+00 -0.12272732233E+03  0.12272732233E+03  0.00000000000E+00 0.  1.
         23    2    1    2    0    0  0.33968542164E+02 -0.14032697366E+02 -0.22840808092E+02  0.13238169914E+03  0.12510968509E+03 0.  0.
          5    1    3    3  502    0  0.60675856938E+02 -0.34076523807E+02 -0.52699177207E+02  0.87392475467E+02  0.41800000000E+01 0. -1.
         -5    1    3    3    0  502 -0.26707314775E+02  0.20043826441E+02  0.29858369115E+02  0.44989223677E+02  0.41800000000E+01 0. -1.
        -11    1    1    2    0    0 -0.16767265166E+02  0.31851798075E+02 -0.34214534111E+02  0.49661983108E+02  0.00000000000E+00 0.  1.
         11    1    1    2    0    0 -0.17201276998E+02 -0.17819100709E+02  0.45079028747E+02  0.51434648956E+02  0.00000000000E+00 0. -1.
</event>
<event>
 7    1  0.5109948E-006  0.7787064E+02  0.7561462E-02  0.1335205E+00
          2   -1    0    0  501    0  0.00000000000E+00  0.00000000000E+00  0.31966291577E+03  0.31966291577E+03  0.00000000000E+00 0.  1.
         -2   -1    0    0    0  501 -0.00000000000E+00 -0.00000000000E+00 -0.51989639341E+02  0.51989639341E+02  0.00000000000E+00 0. -1.
         23    2    1    2    0    0 -0.15320709474E+02  0.47266054910E+02  0.75448105046E+02  0.15430678791E+03  0.12509741866E+03 0.  0.
          5    1    3    3  502    0 -0.23532163371E+02  0.40002161662E+02 -0.25200803881E+02  0.52976301936E+02  0.41800000000E+01 0.  1.
         -5    1    3    3    0  502  0.82114538966E+01  0.72638932477E+01  0.10064890893E+03  0.10133048598E+03  0.41800000000E+01 0.  1.
        -11    1    1    2    0    0  0.40404066606E+02  0.37329261421E+01  0.11122983465E+03  0.11839974431E+03  0.00000000000E+00 0.  1.
         11    1    1    2    0    0 -0.25083357132E+02 -0.50998981052E+02  0.80995336732E+02  0.98946022890E+02  0.00000000000E+00 0. -1.
</event>
<event>
 7    1  0.5109948E-006  0.1227088E+03  0.7561462E-02  0.1238694E+00
          1   -1    0    0  501    0  0.00000000000E+00  0.00000000000E+00  0.24938614769E+02  0.24938614769E+02  0.00000000000E+00 0. -1.
         -1   -1    0    0    0  501 -0.00000000000E+00 -0.00000000000E+00 -0.74138566902E+03  0.74138566902E+03  0.00000000000E+00 0.  1.
         23    2    1    2    0    0 -0.38971037218E+02  0.62781631565E+02 -0.51347260404E+03  0.53362944871E+03  0.12508396552E+03 0.  0.
          5    1    3    3  502    0  0.39811571089E+02  0.35717348166E+02 -0.29375121232E+03  0.29861000870E+03  0.41800000000E+01 0. -1.
         -5    1    3    3    0  502 -0.78782608306E+02  0.27064283399E+02 -0.21972139172E+03  0.23501944002E+03  0.41800000000E+01 0. -1.
        -11    1    1    2    0    0  0.26089017962E+02  0.14613204005E+02 -0.92356845568E+02  0.97077131771E+02  0.00000000000E+00 0. -1.
         11    1    1    2    0    0  0.12882019256E+02 -0.77394835570E+02 -0.11061760464E+03  0.13561770331E+03  0.00000000000E+00 0.  1.
</event>
<event>
 7    1  0.5109948E-006  0.1180740E+03  0.7561462E-02  0.1246309E+00
         -1   -1    0    0    0  501 -0.00000000000E+00  0.00000000000E+00  0.18524430236E+02  0.18524430236E+02  0.00000000000E+00 0.  1.
          1   -1    0    0  501    0  0.00000000000E+00 -0.00000000000E+00 -0.81250295580E+03  0.81250295580E+03  0.00000000000E+00 0. -1.
         23    2    1    2    0    0 -0.19770250871E+02  0.40149731141E+02 -0.34900144744E+03  0.37343317797E+03  0.12508982518E+03 0.  0.
          5    1    3    3  502    0  0.53227937754E+02  0.14019297488E+02 -0.14324837631E+03  0.15351652607E+03  0.41800000000E+01 0.  1.
         -5    1    3    3    0  502 -0.72998188625E+02  0.26130433654E+02 -0.20575307113E+03  0.21991665190E+03  0.41800000000E+01 0.  1.
        -11    1    1    2    0    0 -0.15864052646E+02 -0.60307420550E+02 -0.32195837592E+03  0.32794183777E+03  0.00000000000E+00 0.  1.
         11    1    1    2    0    0  0.35634303517E+02  0.20157689409E+02 -0.12301870221E+03  0.12965237030E+03  0.00000000000E+00 0. -1.
</event>
<event>
 7    1  0.5109948E-006  0.1597800E+03  0.7561462E-02  0.1188945E+00
         -1   -1    0    0    0  501 -0.00000000000E+00  0.00000000000E+00  0.18680637997E+03  0.18680637997E+03  0.00000000000E+00 0.  1.
          1   -1    0    0  501    0  0.00000000000E+00 -0.00000000000E+00 -0.18649955903E+03  0.18649955903E+03  0.00000000000E+00 0. -1.
         23    2    1    2    0    0 -0.91155656392E+02  0.84690018559E+02  0.89845882718E+02  0.19799398268E+03  0.12509029379E+03 0.  0.
          5    1    3    3  502    0 -0.11371660917E+03  0.40836794485E+02  0.38991895516E+02  0.12703130047E+03  0.41800000000E+01 0. -1.
         -5    1    3    3    0  502  0.22560952775E+02  0.43853224074E+02  0.50853987201E+02  0.70962682207E+02  0.41800000000E+01 0. -1.
        -11    1    1    2    0    0  0.66546029359E+01 -0.61064525897E+02 -0.24671281330E+02  0.66195409098E+02  0.00000000000E+00 0. -1.
         11    1    1    2    0    0  0.84501053456E+02 -0.23625492662E+02 -0.64867780445E+02  0.10911654723E+03  0.00000000000E+00 0.  1.
</event>
<event>
 7    1  0.5109948E-006  0.1378244E+03  0.7561462E-02  0.1216287E+00
          2   -1    0    0  501    0  0.00000000000E+00  0.00000000000E+00  0.20858911199E+03  0.20858911199E+03  0.00000000000E+00 0. -1.
         -2   -1    0    0    0  501 -0.00000000000E+00 -0.00000000000E+00 -0.14397095652E+03  0.14397095652E+03  0.00000000000E+00 0.  1.
         23    2    1    2    0    0 -0.12958387771E+03  0.41522676088E+02  0.45152463482E+02  0.19026668058E+03  0.12508617345E+03 0.  0.
          5    1    3    3  502    0 -0.31562693257E+02 -0.23061258434E+00  0.73361661716E+02  0.79972886640E+02  0.41800000000E+01 0.  1.
         -5    1    3    3    0  502 -0.98021184455E+02  0.41753288672E+02 -0.28209198234E+02  0.11029379394E+03  0.41800000000E+01 0.  1.
        -11    1    1    2    0    0  0.60425219143E+02 -0.28504488231E+02 -0.32998549425E+02  0.74515885702E+02  0.00000000000E+00 0.  1.
         11    1    1    2    0    0  0.69158658569E+02 -0.13018187857E+02  0.52464241413E+02  0.87777502227E+02  0.00000000000E+00 0. -1.
</event>
<event>
 7    1  0.5109948E-006  0.8774939E+02  0.7561462E-02  0.1308395E+00
         -2   -1    0    0    0  501 -0.00000000000E+00  0.00000000000E+00  0.15013368317E+04  0.15013368317E+04  0.00000000000E+00 0.  1.
          2   -1    0    0  501    0  0.00000000000E+00 -0.00000000000E+00 -0.12916964069E+02  0.12916964069E+02  0.00000000000E+00 0. -1.
         23    2    1    2    0    0  0.13445797544E+02 -0.19264528405E+02  0.12678327174E+04  0.12730518451E+04  0.11273548361E+03 0.  0.
          5    1    3    3  502    0  0.37015110804E+02  0.20522316821E+02  0.21336726039E+03  0.21756457460E+03  0.41800000000E+01 0. -1.
         -5    1    3    3    0  502 -0.23569313260E+02 -0.39786845225E+02  0.10544654571E+04  0.10554872705E+04  0.41800000000E+01 0.  1.
        -11    1    1    2    0    0 -0.47528242222E+02  0.29125418060E+00  0.17433035319E+03  0.18069336092E+03  0.00000000000E+00 0. -1.
         11    1    1    2    0    0  0.34082444678E+02  0.18973274224E+02  0.46256797017E+02  0.60508589806E+02  0.00000000000E+00 0.  1.
</event>
<event>
 7    1  0.5109948E-006  0.7260965E+02  0.7561462E-02  0.1351437E+00
         -1   -1    0    0    0  501 -0.00000000000E+00  0.00000000000E+00  0.76861905584E+02  0.76861905584E+02  0.00000000000E+00 0.  1.
          1   -1    0    0  501    0  0.00000000000E+00 -0.00000000000E+00 -0.16179306638E+03  0.16179306638E+03  0.00000000000E+00 0. -1.
         23    2    1    2    0    0  0.11752373511E+02  0.21066423149E+02 -0.35238089125E+02  0.13218073126E+03  0.12509240714E+03 0.  0.
          5    1    3    3  502    0 -0.15831307883E+01  0.50626478899E+02  0.30135566855E+02  0.59086135925E+02  0.41800000000E+01 0. -1.
         -5    1    3    3    0  502  0.13335504299E+02 -0.29560055751E+02 -0.65373655979E+02  0.73094595334E+02  0.41800000000E+01 0. -1.
        -11    1    1    2    0    0  0.21003961591E+02  0.27724360679E+01  0.17856419192E+02  0.27707481131E+02  0.00000000000E+00 0.  1.
         11    1    1    2    0    0 -0.32756335102E+02 -0.23838859217E+02 -0.67549490866E+02  0.78766759578E+02  0.00000000000E+00 0. -1.
</event>
<event>
 7    1  0.5109948E-006  0.1508000E+03  0.7561462E-02  0.1199493E+00
          2   -1    0    0  501    0  0.00000000000E+00  0.00000000000E+00  0.10537927663E+03  0.10537927663E+03  0.00000000000E+00 0. -1.
         -2   -1    0    0    0  501 -0.00000000000E+00 -0.00000000000E+00 -0.23434823262E+03  0.23434823262E+03  0.00000000000E+00 0.  1.
         23    2    1    2    0    0  0.10842609828E+03 -0.41080700839E+02 -0.79741390040E+02  0.18828169836E+03  0.12508983124E+03 0.  0.
          5    1    3    3  502    0  0.95105598208E+02 -0.81226108385E+02 -0.74023892005E+02  0.14539520103E+03  0.41800000000E+01 0.  1.
         -5    1    3    3    0  502  0.13320500076E+02  0.40145407546E+02 -0.57174980342E+01  0.42886497328E+02  0.41800000000E+01 0.  1.
        -11    1    1    2    0    0 -0.10296069318E+03  0.11187321003E+02 -0.59409404981E+02  0.11939655728E+03  0.00000000000E+00 0.  1.
         11    1    1    2    0    0 -0.54654051088E+01  0.29893379836E+02  0.10181839027E+02  0.32049253610E+02  0.00000000000E+00 0. -1.
</event>
<event>
 7    1  0.5109948E-006  0.9581664E+02  0.7561462E-02  0.1289347E+00
          2   -1    0    0  501    0  0.00000000000E+00  0.00000000000E+00  0.63122894864E+03  0.63122894864E+03  0.00000000000E+00 0. -1.
         -2   -1    0    0    0  501 -0.00000000000E+00 -0.00000000000E+00 -0.24360271812E+02  0.24360271812E+02  0.00000000000E+00 0.  1.
         23    2    1    2    0    0 -0.47987366236E+02  0.38185376771E+02  0.30402163255E+03  0.33442175387E+03  0.12509135096E+03 0.  0.
          5    1    3    3  502    0  0.33931745509E+02  0.28835836610E+02  0.17972345777E+03  0.18520492029E+03  0.41800000000E+01 0.  1.
         -5    1    3    3    0  502 -0.81919111745E+02  0.93495401609E+01  0.12429817478E+03  0.14921683358E+03  0.41800000000E+01 0.  1.
        -11    1    1    2    0    0  0.13662416001E+02 -0.93010341861E+00 -0.41822687799E+00  0.13700423974E+02  0.00000000000E+00 0.  1.
         11    1    1    2    0    0  0.34324950235E+02 -0.37255273352E+02  0.30326527116E+03  0.30746704261E+03  0.00000000000E+00 0. -1.
</event>
<event>
 7    1  0.5109948E-006  0.9977732E+02  0.7561462E-02  0.1280765E+00
         -1   -1    0    0    0  501 -0.00000000000E+00  0.00000000000E+00  0.19238597790E+03  0.19238597790E+03  0.00000000000E+00 0.  1.
          1   -1    0    0  501    0  0.00000000000E+00 -0.00000000000E+00 -0.68707515671E+02  0.68707515671E+02  0.00000000000E+00 0. -1.
         23    2    1    2    0    0 -0.77697394405E+01  0.35421677466E+02  0.79050541583E+02  0.15235741685E+03  0.12509488502E+03 0.  0.
          5    1    3    3  502    0 -0.45154638379E+02 -0.93291847913E+01 -0.85110166424E+01  0.47073186214E+02  0.41800000000E+01 0. -1.
         -5    1    3    3    0  502  0.37384898939E+02  0.44750862258E+02  0.87561558226E+02  0.10528423063E+03  0.41800000000E+01 0. -1.
        -11    1    1    2    0    0  0.25047223702E+02 -0.59847247397E+02  0.14914188310E+02  0.66569433294E+02  0.00000000000E+00 0. -1.
         11    1    1    2    0    0 -0.17277484261E+02  0.24425569931E+02  0.29713732339E+02  0.42166643433E+02  0.00000000000E+00 0.  1.
</event>
<event>
 7    1  0.5109948E-006  0.1637291E+03  0.7561462E-02  0.1184550E+00
          1   -1    0    0  501    0  0.00000000000E+00  0.00000000000E+00  0.35732725608E+03  0.35732725608E+03  0.00000000000E+00 0. -1.
         -1   -1    0    0    0  501 -0.00000000000E+00 -0.00000000000E+00 -0.11386542209E+03  0.11386542209E+03  0.00000000000E+00 0.  1.
         23    2    1    2    0    0  0.13326764160E+03  0.22054310094E+02  0.72069443717E+01  0.18424661538E+03  0.12509283887E+03 0.  0.
          5    1    3    3  502    0  0.65063389320E+02  0.64876414521E+02  0.35782957299E+02  0.98691875167E+02  0.41800000000E+01 0.  1.
         -5    1    3    3    0  502  0.68204252285E+02 -0.42822104428E+02 -0.28576012928E+02  0.85554740209E+02  0.41800000000E+01 0.  1.
        -11    1    1    2    0    0 -0.37871629977E+02 -0.42867480080E+02  0.13329918324E+03  0.14505362270E+03  0.00000000000E+00 0.  1.
         11    1    1    2    0    0 -0.95396011627E+02  0.20813169986E+02  0.10295570638E+03  0.14189244009E+03  0.00000000000E+00 0. -1.
</event>
<event>
 7    1  0.5109948E-006  0.1261165E+03  0.7561462E-02  0.1233335E+00
         -2   -1    0    0    0  501 -0.00000000000E+00  0.00000000000E+00  0.67619215849E+02  0.67619215849E+02  0.00000000000E+00 0.  1.
          2   -1    0    0  501    0  0.00000000000E+00 -0.00000000000E+00 -0.32700674358E+03  0.32700674358E+03  0.00000000000E+00 0. -1.
         23    2    1    2    0    0  0.87947277261E+02  0.35487711255E+02 -0.96632997052E+02  0.18433237471E+03  0.12508551883E+03 0.  0.
          5    1    3    3  502    0  0.43784167408E+02  0.58318801987E+02 -0.11058098147E+03  0.13252834355E+03  0.41800000000E+01 0.  1.
         -5    1    3    3    0  502  0.44163109853E+02 -0.22831090732E+02  0.13947984415E+02  0.51804031167E+02  0.41800000000E+01 0.  1.
        -11    1    1    2    0    0 -0.41073505287E+02  0.28488727725E+02 -0.88537235030E+02  0.10167341064E+03  0.00000000000E+00 0. -1.
         11    1    1    2    0    0 -0.46873771974E+02 -0.63976438980E+02 -0.74217295653E+02  0.10862017408E+03  0.00000000000E+00 0.  1.
</event>
<event>
 7    1  0.5109948E-006  0.1144274E+03  0.7561462E-02  0.1252584E+00
         -2   -1    0    0    0  501 -0.00000000000E+00  0.00000000000E+00  0.69807884105E+02  0.69807884105E+02  0.00000000000E+00 0.  1.
          2   -1    0    0  501    0  0.00000000000E+00 -0.00000000000E+00 -0.32675488187E+03  0.32675488187E+03  0.00000000000E+00 0. -1.
         23    2    1    2    0    0 -0.99493805638E+02 -0.28686106617E+02 -0.11273450357E+03  0.19768091002E+03  0.12508702497E+03 0.  0.
          5    1    3    3  502    0 -0.10911857739E+02  0.31467484999E+01  0.26747371586E+02  0.29357536549E+02  0.41800000000E+01 0.  1.
         -5    1    3    3    0  502 -0.88581947899E+02 -0.31832855117E+02 -0.13948187516E+03  0.16832337347E+03  0.41800000000E+01 0.  1.
        -11    1    1    2    0    0  0.11478364196E+02  0.32466784771E+02 -0.59621423591E+01  0.34948420558E+02  0.00000000000E+00 0.  1.
         11    1    1    2    0    0  0.88015441442E+02 -0.37806781543E+01 -0.13825035184E+03  0.16393343540E+03  0.00000000000E+00 0. -1.
</event>
<event>
 7    1  0.5363807E-006  0.7631164E+02  0.7561462E-02  0.1339857E+00
         -2   -1    0    0    0  501 -0.00000000000E+00  0.00000000000E+00  0.12635896685E+03  0.12635896685E+03  0.00000000000E+00 0.  1.
          2   -1    0    0  501    0  0.00000000000E+00 -0.00000000000E+00 -0.86530174042E+02  0.86530174042E+02  0.00000000000E+00 0. -1.
         23    2    1    2    0    0 -0.49367559037E+00 -0.13459809429E+02  0.28426091142E+02  0.12898432872E+03  0.12508998446E+03 0.  0.
          5    1    3    3  502    0  0.56188797313E+02 -0.62330290601E+01  0.41454069234E+02  0.70227799701E+02  0.41800000000E+01 0.  1.
         -5    1    3    3    0  502 -0.56682472903E+02 -0.72267803689E+01 -0.13027978092E+02  0.58756529017E+02  0.41800000000E+01 0.  1.
        -11    1    1    2    0    0 -0.76809379928E+01 -0.10679968504E+02 -0.31425002039E+02  0.34067422692E+02  0.00000000000E+00 0. -1.
         11    1    1    2    0    0  0.81746135832E+01  0.24139777933E+02  0.42827703701E+02  0.49837389480E+02  0.00000000000E+00 0.  1.
</event>
<event>
 7    1  0.5109948E-006  0.1186139E+03  0.7561462E-02  0.1245401E+00
         -2   -1    0    0    0  501 -0.00000000000E+00  0.00000000000E+00  0.21570901838E+03  0.21570901838E+03  0.00000000000E+00 0.  1.
          2   -1    0    0  501    0  0.00000000000E+00 -0.00000000000E+00 -0.79656445290E+02  0.79656445290E+02  0.00000000000E+00 0. -1.
         23    2    1    2    0    0 -0.54586455960E+02  0.86497231680E+01  0.13067444033E+03  0.18915185464E+03  0.12509242932E+03 0.  0.
          5    1    3    3  502    0 -0.33244778632E+02  0.66514844630E+02  0.63621979899E+02  0.97952379188E+02  0.41800000000E+01 0.  1.
         -5    1    3    3    0  502 -0.21341677329E+02 -0.57865121462E+02  0.67052460428E+02  0.91199475450E+02  0.41800000000E+01 0.  1.
        -11    1    1    2    0    0  0.60430272551E+02  0.26006030038E+02 -0.12212074930E+02  0.66912377129E+02  0.00000000000E+00 0. -1.
         11    1    1    2    0    0 -0.58438165908E+01 -0.34655753206E+02  0.17590207698E+02  0.39301231907E+02  0.00000000000E+00 0.  1.
</event>
<event>
 7    1  0.5109948E-006  0.1134304E+03  0.7561462E-02  0.1254346E+00
         -1   -1    0    0    0  501 -0.00000000000E+00  0.00000000000E+00  0.34015875055E+03  0.34015875055E+03  0.00000000000E+00 0.  1.
          1   -1    0    0  501    0  0.00000000000E+00 -0.00000000000E+00 -0.59037637183E+02  0.59037637183E+02  0.00000000000E+00 0. -1.
         23    2    1    2    0    0  0.19406977574E+02  0.47874758035E+02  0.25943329571E+03  0.29261390341E+03  0.12509451751E+03 0.  0.
          5    1    3    3  502    0 -0.19903985520E+01 -0.36296994932E+02  0.14111977320E+03  0.14578647507E+03  0.41800000000E+01 0.  1.
         -5    1    3    3    0  502  0.21397376126E+02  0.84171752967E+02  0.11831352251E+03  0.14682742834E+03  0.41800000000E+01 0.  1.
        -11    1    1    2    0    0 -0.42348806093E+02 -0.62949743500E+02  0.92019794382E+01  0.76424917467E+02  0.00000000000E+00 0. -1.
         11    1    1    2    0    0  0.22941828519E+02  0.15074985465E+02  0.12485838220E+02  0.30157566855E+02  0.00000000000E+00 0.  1.
</event>
<event>
 7    1  0.5109948E-006  0.1088894E+03  0.7561462E-02  0.1262640E+00
         -1   -1    0    0    0  501 -0.00000000000E+00  0.00000000000E+00  0.80139055493E+03  0.80139055493E+03  0.00000000000E+00 0.  1.
          1   -1    0    0  501    0  0.00000000000E+00 -0.00000000000E+00 -0.23560650233E+02  0.23560650233E+02  0.00000000000E+00 0. -1.
         23    2    1    2    0    0 -0.28054139491E+02  0.19729337612E+02  0.64372355802E+03  0.65583077813E+03  0.12065533098E+03 0.  0.
          5    1    3    3  502    0 -0.75764972126E+02  0.10851894081E+02  0.40446668750E+03  0.41166596690E+03  0.41800000000E+01 0. -1.
         -5    1    3    3    0  502  0.47710832636E+02  0.88774435307E+01  0.23925687051E+03  0.24416481123E+03  0.41800000000E+01 0.  1.
        -11    1    1    2    0    0  0.26136121051E+02 -0.52998621067E+02  0.11829890031E+03  0.13223683478E+03  0.00000000000E+00 0.  1.
         11    1    1    2    0    0  0.19180184401E+01  0.33269283456E+02  0.15807446368E+02  0.36883592247E+02  0.00000000000E+00 0. -1.
</event>
<event>
 7    1  0.5109948E-006  0.1901983E+03  0.7561462E-02  0.1158283E+00
          2   -1    0    0  501    0  0.00000000000E+00  0.00000000000E+00  0.38354729457E+03  0.38354729457E+03  0.00000000000E+00 0. -1.
         -2   -1    0    0    0  501 -0.00000000000E+00 -0.00000000000E+00 -0.15769539526E+03  0.15769539526E+03  0.00000000000E+00 0.  1.
         23    2    1    2    0    0 -0.14523083084E+03 -0.87840001269E+02 -0.37363295667E+02  0.21412955838E+03  0.12509033480E+03 0.  0.
          5    1    3    3  502    0 -0.57806528343E+02  0.26537112395E+02  0.51813924095E+01  0.63954142013E+02  0.41800000000E+01 0. -1.
         -5    1    3    3    0  502 -0.87424302493E+02 -0.11437711366E+03 -0.42544688076E+02  0.15017541636E+03  0.41800000000E+01 0. -1.
        -11    1    1    2    0    0  0.11930154943E+03  0.85127317141E+02  0.26295664539E+03  0.30104105563E+03  0.00000000000E+00 0. -1.
         11    1    1    2    0    0  0.25929281405E+02  0.27126841277E+01  0.25854958204E+00  0.26072075814E+02  0.00000000000E+00 0.  1.
</event>
<event>
 7    1  0.5109948E-006  0.1226975E+03  0.7561462E-02  0.1238712E+00
          2   -1    0    0  501    0  0.00000000000E+00  0.00000000000E+00  0.53936096540E+03  0.53936096540E+03  0.00000000000E+00 0.  1.
         -2   -1    0    0    0  501 -0.00000000000E+00 -0.00000000000E+00 -0.34219278517E+02  0.34219278517E+02  0.00000000000E+00 0. -1.
         23    2    1    2    0    0  0.81343767020E+01 -0.76896184828E+02  0.33360439051E+03  0.36457997476E+03  0.12508987690E+03 0.  0.
          5    1    3    3  502    0 -0.25942837699E+02  0.16723086361E+02  0.24022392104E+02  0.39334973849E+02  0.41800000000E+01 0. -1.
         -5    1    3    3    0  502  0.34077214401E+02 -0.93619271189E+02  0.30958199841E+03  0.32524500091E+03  0.41800000000E+01 0. -1.
        -11    1    1    2    0    0 -0.38829320778E+02  0.87669271159E+01  0.89950203913E+02  0.98364700717E+02  0.00000000000E+00 0.  1.
         11    1    1    2    0    0  0.30694944076E+02  0.68129257712E+02  0.81587092458E+02  0.11063556844E+03  0.00000000000E+00 0. -1.
</event>
<event>
 7    1  0.5109948E-006  0.1419818E+03  0.7561462E-02  0.1210687E+00
          1   -1    0    0  501    0  0.00000000000E+00  0.00000000000E+00  0.32342485800E+03  0.32342485800E+03  0.00000000000E+00 0. -1.
         -1   -1    0    0    0  501 -0.00000000000E+00 -0.00000000000E+00 -0.68675239223E+02  0.68675239223E+02  0.00000000000E+00 0.  1.
         23    2    1    2    0    0 -0.72307372110E+01  0.10101886952E+03  0.14894443228E+03  0.21929080919E+03  0.12508764739E+03 0.  0.
          5    1    3    3  502    0  0.49134739496E+02  0.78057609257E+01  0.63546553217E+02  0.80813299368E+02  0.41800000000E+01 0.  1.
         -5    1    3    3    0  502 -0.56365476707E+02  0.93213108594E+02  0.85397879066E+02  0.13847750982E+03  0.41800000000E+01 0.  1.
        -11    1    1    2    0    0 -0.23333404698E+02 -0.89292276160E+02  0.42639697670E+02  0.10166465548E+03  0.00000000000E+00 0.  1.
         11    1    1    2    0    0  0.30564141909E+02 -0.11726593360E+02  0.63165488828E+02  0.71144632554E+02  0.00000000000E+00 0. -1.
</event>
<event>
 7    1  0.5109948E-006  0.2832109E+03  0.7561462E-02  0.1093948E+00
          2   -1    0    0  501    0  0.00000000000E+00  0.00000000000E+00  0.13064369180E+04  0.13064369180E+04  0.00000000000E+00 0. -1.
         -2   -1    0    0    0  501 -0.00000000000E+00 -0.00000000000E+00 -0.72973405115E+02  0.72973405115E+02  0.00000000000E+00 0.  1.
         23    2    1    2    0    0 -0.19959543496E+03  0.18123543237E+03  0.40003800428E+03  0.49836000735E+03  0.12509065696E+03 0.  0.
          5    1    3    3  502    0 -0.20606502909E+03  0.16618751708E+03  0.40198625594E+03  0.48134344227E+03  0.41800000000E+01 0.  1.
         -5    1    3    3    0  502  0.64695941284E+01  0.15047915285E+02 -0.19482516671E+01  0.17016565081E+02  0.41800000000E+01 0.  1.
        -11    1    1    2    0    0  0.46344572861E+02  0.13692266605E+01  0.11049414387E+03  0.11982758466E+03  0.00000000000E+00 0. -1.
         11    1    1    2    0    0  0.15325086210E+03 -0.18260465903E+03  0.72293136471E+03  0.76122273108E+03  0.00000000000E+00 0.  1.
</event>
<event>
 7    1  0.5109948E-006  0.8897714E+02  0.7561462E-02  0.1305348E+00
         -2   -1    0    0    0  501 -0.00000000000E+00  0.00000000000E+00  0.11105131048E+03  0.11105131048E+03  0.00000000000E+00 0.  1.
          2   -1    0    0  501    0  0.00000000000E+00 -0.00000000000E+00 -0.26337984469E+03  0.26337984469E+03  0.00000000000E+00 0. -1.
         23    2    1    2    0    0  0.55258861068E+02  0.51468062768E+02  0.41951909636E+02  0.15201908891E+03  0.12508931793E+03 0.  0.
          5    1    3    3  502    0  0.15945035000E+02 -0.14532937550E+02  0.67472181662E+02  0.70960680050E+02  0.41800000000E+01 0.  1.
         -5    1    3    3    0  502  0.39313826068E+02  0.66001000318E+02 -0.25520272026E+02  0.81058408863E+02  0.41800000000E+01 0.  1.
        -11    1    1    2    0    0 -0.15920594477E+02 -0.30643189695E+02 -0.14930911506E+02  0.37621835702E+02  0.00000000000E+00 0.  1.
         11    1    1    2    0    0 -0.39338266591E+02 -0.20824873073E+02 -0.17934953234E+03  0.18479023055E+03  0.00000000000E+00 0. -1.
</event>
<event>
 6    1  0.5109948E-006  0.1554787E+03  0.7561462E-02  0.1193898E+00
         -1   -1    0    0    0  501 -0.00000000000E+00  0.00000000000E+00  0.53150923201E+02  0.53150923201E+02  0.00000000000E+00 0.  1.
          1   -1    0    0  501    0  0.00000000000E+00 -0.00000000000E+00 -0.67256053036E+03  0.67256053036E+03  0.00000000000E+00 0. -1.
          5    1    1    2  502    0 -0.48443091011E+02 -0.10972325640E+03 -0.21824871187E+03  0.24907006784E+03  0.41800000000E+01 0. -1.
         -5    1    1    2    0  502  0.45146224830E+02  0.84837056242E+02 -0.41604654222E+02  0.10480423360E+03  0.41800000000E+01 0.  1.
        -11    1    1    2    0    0  0.45971035631E+02  0.24462706137E+02 -0.20172229497E+03  0.20833541321E+03  0.00000000000E+00 0.  1.
         11    1    1    2    0    0 -0.42674169450E+02  0.42349401754E+00 -0.15783394609E+03  0.16350173890E+03  0.00000000000E+00 0. -1.
</event>
<event>
 7    1  0.5109948E-006  0.1134237E+03  0.7561462E-02  0.1254358E+00
          1   -1    0    0  501    0  0.00000000000E+00  0.00000000000E+00  0.70742676734E+02  0.70742676734E+02  0.00000000000E+00 0. -1.
         -1   -1    0    0    0  501 -0.00000000000E+00 -0.00000000000E+00 -0.20517311715E+03  0.20517311715E+03  0.00000000000E+00 0.  1.
         23    2    1    2    0    0 -0.10890321427E+02 -0.37275828017E+02 -0.11891834891E+03  0.17690799534E+03  0.12508708427E+03 0.  0.
          5    1    3    3  502    0 -0.30028223714E+02  0.39547085337E+02 -0.60770756504E+02  0.78588952303E+02  0.41800000000E+01 0.  1.
         -5    1    3    3    0  502  0.19137902288E+02 -0.76822913354E+02 -0.58147592405E+02  0.98319043032E+02  0.41800000000E+01 0.  1.
        -11    1    1    2    0    0 -0.14559443572E+02  0.61138330482E+02 -0.11488803018E+02  0.63889478367E+02  0.00000000000E+00 0. -1.
         11    1    1    2    0    0  0.25449764998E+02 -0.23862502465E+02 -0.40232884927E+01  0.35118320186E+02  0.00000000000E+00 0.  1.
</event>
<event>
 7    1  0.5109948E-006  0.2248107E+03  0.7561462E-02  0.1130346E+00
         -2   -1    0    0    0  501 -0.00000000000E+00  0.00000000000E+00  0.82996805219E+02  0.82996805219E+02  0.00000000000E+00 0.  1.
          2   -1    0    0  501    0  0.00000000000E+00 -0.00000000000E+00 -0.71475653920E+03  0.71475653920E+03  0.00000000000E+00 0. -1.
         23    2    1    2    0    0 -0.19814431633E+03 -0.85919838369E+02 -0.27946463899E+03  0.37468865274E+03  0.12509082031E+03 0.  0.
          5    1    3    3  502    0 -0.55791432545E+02 -0.45818191182E+01 -0.16606639218E+03  0.17529745013E+03  0.41800000000E+01 0.  1.
         -5    1    3    3    0  502 -0.14235288379E+03 -0.81338019251E+02 -0.11339824682E+03  0.19939120261E+03  0.41800000000E+01 0.  1.
        -11    1    1    2    0    0  0.18619523022E+03  0.51706851885E+02 -0.32331417934E+03  0.37666207780E+03  0.00000000000E+00 0. -1.
         11    1    1    2    0    0  0.11949086109E+02  0.34212986484E+02 -0.28980915651E+02  0.46402613881E+02  0.00000000000E+00 0.  1.
</event>
<event>
 7    1  0.5109948E-006  0.9363951E+02  0.7561462E-02  0.1294270E+00
          1   -1    0    0  501    0  0.00000000000E+00  0.00000000000E+00  0.21445576457E+02  0.21445576457E+02  0.00000000000E+00 0. -1.
         -1   -1    0    0    0  501 -0.00000000000E+00 -0.00000000000E+00 -0.63943804094E+03  0.63943804094E+03  0.00000000000E+00 0.  1.
         23    2    1    2    0    0  0.14681954091E+02  0.13221325942E+02 -0.45425002230E+03  0.47157282791E+03  0.12508991176E+03 0.  0.
          5    1    3    3  502    0 -0.49777914282E+02 -0.64685960563E+01 -0.11318898062E+03  0.12389068254E+03  0.41800000000E+01 0. -1.
         -5    1    3    3    0  502  0.64459868372E+02  0.19689921998E+02 -0.34106104168E+03  0.34768214537E+03  0.41800000000E+01 0. -1.
        -11    1    1    2    0    0 -0.39295841706E+02 -0.19656704709E+02 -0.15694175913E+03  0.16297627120E+03  0.00000000000E+00 0.  1.
         11    1    1    2    0    0  0.24613887615E+02  0.64353787668E+01 -0.68006830493E+01  0.26334518286E+02  0.00000000000E+00 0. -1.
</event>
<event>
 7    1  0.5109948E-006  0.1229487E+03  0.7561462E-02  0.1238310E+00
         -1   -1    0    0    0  501 -0.00000000000E+00  0.00000000000E+00  0.93798552198E+02  0.93798552198E+02  0.00000000000E+00 0.  1.
          1   -1    0    0  501    0  0.00000000000E+00 -0.00000000000E+00 -0.22526062506E+03  0.22526062506E+03  0.00000000000E+00 0. -1.
         23    2    1    2    0    0  0.76112635447E+02  0.34816600404E+02 -0.12773155759E+02  0.15104756187E+03  0.12508750338E+03 0.  0.
          5    1    3    3  502    0  0.10219094135E+03 -0.35158783983E+01 -0.18990478963E+02  0.10408391127E+03  0.41800000000E+01 0. -1.
         -5    1    3    3    0  502 -0.26078305901E+02  0.38332478802E+02  0.62173232034E+01  0.46963650599E+02  0.41800000000E+01 0. -1.
        -11    1    1    2    0    0  0.13662919675E+01 -0.17585379054E+02  0.73129580120E+01  0.19094283572E+02  0.00000000000E+00 0.  1.
         11    1    1    2    0    0 -0.77478927415E+02 -0.17231221349E+02 -0.12600187512E+03  0.14891733182E+03  0.00000000000E+00 0. -1.
</event>
<event>
 7    1  0.5109948E-006  0.1098489E+03  0.7561462E-02  0.1260850E+00
         -1   -1    0    0    0  501 -0.00000000000E+00  0.00000000000E+00  0.35911762628E+03  0.35911762628E+03  0.00000000000E+00 0.  1.
          1   -1    0    0  501    0  0.00000000000E+00 -0.00000000000E+00 -0.35403864374E+02  0.35403864374E+02  0.00000000000E+00 0. -1.
         23    2    1    2    0    0 -0.23825855874E+02 -0.13179044899E+02  0.21172770315E+03  0.24741931904E+03  0.12508533296E+03 0.  0.
          5    1    3    3  502    0 -0.73348425254E+02 -0.93021620193E+00  0.96103812368E+02  0.12097219491E+03  0.41800000000E+01 0.  1.
         -5    1    3    3    0  502  0.49522569380E+02 -0.12248828697E+02  0.11562389078E+03  0.12644712414E+03  0.41800000000E+01 0.  1.
        -11    1    1    2    0    0 -0.31766269070E+02  0.22151562864E+02  0.51857010228E+02  0.64721998561E+02  0.00000000000E+00 0.  1.
         11    1    1    2    0    0  0.55592124945E+02 -0.89725179658E+01  0.60129048526E+02  0.82380173047E+02  0.00000000000E+00 0. -1.
</event>
<event>
 7    1  0.5109948E-006  0.1552601E+03  0.7561462E-02  0.1194154E+00
         -1   -1    0    0    0  501 -0.00000000000E+00  0.00000000000E+00  0.57304186756E+02  0.57304186756E+02  0.00000000000E+00 0.  1.
          1   -1    0    0  501    0  0.00000000000E+00 -0.00000000000E+00 -0.64581619953E+03  0.64581619953E+03  0.00000000000E+00 0. -1.
         23    2    1    2    0    0 -0.13458646175E+03  0.76774832839E+02 -0.24651437361E+03  0.31689766145E+03  0.12508757249E+03 0.  0.
          5    1    3    3  502    0 -0.37571180166E+02  0.22684155172E+02  0.25449442133E+01  0.44160090760E+02  0.41800000000E+01 0. -1.
         -5    1    3    3    0  502 -0.97015281585E+02  0.54090677667E+02 -0.24905931782E+03  0.27273757069E+03  0.41800000000E+01 0. -1.
        -11    1    1    2    0    0  0.18628766854E+02 -0.67242146308E+01 -0.16149784940E+01  0.19870937885E+02  0.00000000000E+00 0.  1.
         11    1    1    2    0    0  0.11595769490E+03 -0.70050618208E+02 -0.34038266067E+03  0.36635178695E+03  0.00000000000E+00 0. -1.
</event>
<event>
 7    1  0.5109948E-006  0.1061993E+03  0.7561462E-02  0.1267774E+00
         -2   -1    0    0    0  501 -0.00000000000E+00  0.00000000000E+00  0.13365903222E+02  0.13365903222E+02  0.00000000000E+00 0.  1.
          2   -1    0    0  501    0  0.00000000000E+00 -0.00000000000E+00 -0.90711233270E+03  0.90711233270E+03  0.00000000000E+00 0. -1.
         23    2    1    2    0    0 -0.63347957395E+01  0.16972740905E+02 -0.48504315057E+03  0.50119860472E+03  0.12491989389E+03 0.  0.
          5    1    3    3  502    0  0.20557840472E+02  0.63811009959E+02 -0.33520332709E+03  0.34186724425E+03  0.41800000000E+01 0.  1.
         -5    1    3    3    0  502 -0.26892636212E+02 -0.46838269054E+02 -0.14983982348E+03  0.15933136047E+03  0.41800000000E+01 0.  1.
        -11    1    1    2    0    0 -0.94709604516E+01 -0.51880123881E+02 -0.28275868835E+03  0.28763470268E+03  0.00000000000E+00 0.  1.
         11    1    1    2    0    0  0.15805756191E+02  0.34907382976E+02 -0.12594459055E+03  0.13164492852E+03  0.00000000000E+00 0. -1.
</event>
<event>
 7    1  0.5109948E-006  0.1428669E+03  0.7561462E-02  0.1209523E+00
         -2   -1    0    0    0  501 -0.00000000000E+00  0.00000000000E+00  0.68063753760E+03  0.68063753760E+03  0.00000000000E+00 0.  1.
          2   -1    0    0  501    0  0.00000000000E+00 -0.00000000000E+00 -0.45756913446E+02  0.45756913446E+02  0.00000000000E+00 0. -1.
         23    2    1    2    0    0  0.91219042913E+02 -0.47194282508E+02  0.52816798190E+03  0.55240600127E+03  0.12507101600E+03 0.  0.
          5    1    3    3  502    0  0.32046219433E+02  0.40870084019E+02  0.12353402833E+03  0.13407256432E+03  0.41800000000E+01 0.  1.
         -5    1    3    3    0  502  0.59172823479E+02 -0.88064366527E+02  0.40463395357E+03  0.41833343695E+03  0.41800000000E+01 0.  1.
        -11    1    1    2    0    0  0.13076833103E+02  0.10885223224E+02 -0.41431822001E+01  0.17511642053E+02  0.00000000000E+00 0. -1.
         11    1    1    2    0    0 -0.10429587602E+03  0.36309059284E+02  0.11085582446E+03  0.15647680772E+03  0.00000000000E+00 0.  1.
</event>
<event>
 7    1  0.5109948E-006  0.1033828E+03  0.7561462E-02  0.1273339E+00
         -3   -1    0    0    0  501 -0.00000000000E+00  0.00000000000E+00  0.24141953488E+02  0.24141953488E+02  0.00000000000E+00 0.  1.
          3   -1    0    0  501    0  0.00000000000E+00 -0.00000000000E+00 -0.52220974601E+03  0.52220974601E+03  0.00000000000E+00 0. -1.
         23    2    1    2    0    0  0.59621689516E+01  0.97385988444E+01 -0.22157101222E+03  0.25470635642E+03  0.12510486314E+03 0.  0.
          5    1    3    3  502    0  0.32521149020E+02 -0.46285564016E+02 -0.14744150194E+03  0.15797609776E+03  0.41800000000E+01 0.  1.
         -5    1    3    3    0  502 -0.26558980068E+02  0.56024162860E+02 -0.74129510275E+02  0.96730258658E+02  0.41800000000E+01 0.  1.
        -11    1    1    2    0    0 -0.19382848961E+01  0.38974461842E+02 -0.17069201979E+03  0.17509577735E+03  0.00000000000E+00 0. -1.
         11    1    1    2    0    0 -0.40238840556E+01 -0.48713060686E+02 -0.10580476051E+03  0.11654956572E+03  0.00000000000E+00 0.  1.
</event>
<event>
 7    1  0.5109948E-006  0.9750944E+02  0.7561462E-02  0.1285622E+00
          1   -1    0    0  501    0  0.00000000000E+00  0.00000000000E+00  0.79137020332E+02  0.79137020332E+02  0.00000000000E+00 0. -1.
         -1   -1    0    0    0  501 -0.00000000000E+00 -0.00000000000E+00 -0.19430287280E+03  0.19430287280E+03  0.00000000000E+00 0.  1.
         23    2    1    2    0    0 -0.56587326686E+02  0.29544790131E+01 -0.65473835449E+02  0.15212989460E+03  0.12508328111E+03 0.  0.
          5    1    3    3  502    0 -0.30184914119E+02 -0.55480429393E+02 -0.60691361009E+02  0.87693333767E+02  0.41800000000E+01 0. -1.
         -5    1    3    3    0  502 -0.26402412567E+02  0.58434908407E+02 -0.47824744392E+01  0.64436560830E+02  0.41800000000E+01 0. -1.
        -11    1    1    2    0    0  0.86723656723E+01 -0.15650995768E+02  0.25559306774E+02  0.31200028167E+02  0.00000000000E+00 0. -1.
         11    1    1    2    0    0  0.47914961014E+02  0.12696516754E+02 -0.75251323789E+02  0.90109970362E+02  0.00000000000E+00 0.  1.
</event>
<event>
 6    1  0.5109948E-006  0.8488387E+02  0.7561462E-02  0.1315736E+00
         -2   -1    0    0    0  501 -0.00000000000E+00  0.00000000000E+00  0.39347043710E+03  0.39347043710E+03  0.00000000000E+00 0.  1.
          2   -1    0    0  501    0  0.00000000000E+00 -0.00000000000E+00 -0.20240445995E+02  0.20240445995E+02  0.00000000000E+00 0. -1.
          5    1    1    2  502    0  0.90123473232E+01 -0.69168375250E+02  0.11937430618E+03  0.13832275270E+03  0.41800000000E+01 0. -1.
         -5    1    1    2    0  502 -0.18895224442E+02  0.65586922855E+02  0.20731233432E+03  0.21829922198E+03  0.41800000000E+01 0.  1.
        -11    1    1    2    0    0  0.13998039215E+02 -0.10073349386E+02  0.16668003614E+02  0.23984157567E+02  0.00000000000E+00 0. -1.
         11    1    1    2    0    0 -0.41151620956E+01  0.13654801781E+02  0.29875346990E+02  0.33104750846E+02  0.00000000000E+00 0.  1.
</event>
<event>
 7    1  0.5109948E-006  0.1047621E+03  0.7561462E-02  0.1270589E+00
         -2   -1    0    0    0  501 -0.00000000000E+00  0.00000000000E+00  0.33881870449E+02  0.33881870449E+02  0.00000000000E+00 0.  1.
          2   -1    0    0  501    0  0.00000000000E+00 -0.00000000000E+00 -0.63344884988E+03  0.63344884988E+03  0.00000000000E+00 0. -1.
         23    2    1    2    0    0 -0.44515594243E+02  0.34625176068E+02 -0.14146958132E+03  0.19708339707E+03  0.12509069515E+03 0.  0.
          5    1    3    3  502    0 -0.18160534512E+02  0.62301206019E+02 -0.14456150534E+03  0.15851418394E+03  0.41800000000E+01 0. -1.
         -5    1    3    3    0  502 -0.26355059731E+02 -0.27676029951E+02  0.30919240143E+01  0.38569213129E+02  0.41800000000E+01 0. -1.
        -11    1    1    2    0    0  0.62942257290E+02  0.41920281792E+01 -0.25994915909E+03  0.26749367500E+03  0.00000000000E+00 0.  1.
         11    1    1    2    0    0 -0.18426663048E+02 -0.38817204247E+02 -0.19814823901E+03  0.20275364826E+03  0.00000000000E+00 0. -1.
</event>
<event>
 7    1  0.5109948E-006  0.1214591E+03  0.7561462E-02  0.1240709E+00
         -1   -1    0    0    0  501 -0.00000000000E+00  0.00000000000E+00  0.89949410063E+02  0.89949410063E+02  0.00000000000E+00 0.  1.
          1   -1    0    0  501    0  0.00000000000E+00 -0.00000000000E+00 -0.35720659004E+03  0.35720659004E+03  0.00000000000E+00 0. -1.
         23    2    1    2    0    0 -0.77921100799E+02  0.91683119036E+01  0.63035055826E+01  0.14779361766E+03  0.12508982111E+03 0.  0.
          5    1    3    3  502    0  0.19244589857E+02 -0.11748719412E+02 -0.33541506015E+02  0.40631166268E+02  0.41800000000E+01 0.  1.
         -5    1    3    3    0  502 -0.97165690656E+02  0.20917031315E+02  0.39845011598E+02  0.10716245139E+03  0.41800000000E+01 0.  1.
        -11    1    1    2    0    0  0.69653315275E+01  0.35820245945E+02 -0.65502254998E+02  0.74981006080E+02  0.00000000000E+00 0. -1.
         11    1    1    2    0    0  0.70955769271E+02 -0.44988557849E+02 -0.20805843056E+03  0.22438137636E+03  0.00000000000E+00 0.  1.
</event>
<event>
 7    1  0.5109948E-006  0.1437226E+03  0.7561462E-02  0.1208406E+00
          2   -1    0    0  501    0  0.00000000000E+00  0.00000000000E+00  0.85507750219E+03  0.85507750219E+03  0.00000000000E+00 0. -1.
         -2   -1    0    0    0  501 -0.00000000000E+00 -0.00000000000E+00 -0.36194055152E+02  0.36194055152E+02  0.00000000000E+00 0.  1.
         23    2    1    2    0    0 -0.87368205701E+02  0.61702929243E+02  0.21350128248E+03  0.26957408953E+03  0.12508771834E+03 0.  0.
          5    1    3    3  502    0 -0.10867557582E+03  0.13633438869E+02  0.12238418645E+03  0.16429124422E+03  0.41800000000E+01 0. -1.
         -5    1    3    3    0  502  0.21307370121E+02  0.48069490374E+02  0.91117096032E+02  0.10528284531E+03  0.41800000000E+01 0. -1.
        -11    1    1    2    0    0 -0.74637990797E+01 -0.20276211225E+02  0.29360349199E+02  0.36453575180E+02  0.00000000000E+00 0.  1.
         11    1    1    2    0    0  0.94832004780E+02 -0.41426718017E+02  0.57602181535E+03  0.58524389263E+03  0.00000000000E+00 0. -1.
</event>
<event>
 7    1  0.5109948E-006  0.1229286E+03  0.7561462E-02  0.1238342E+00
         -2   -1    0    0    0  501 -0.00000000000E+00  0.00000000000E+00  0.96836508729E+02  0.96836508729E+02  0.00000000000E+00 0.  1.
          2   -1    0    0  501    0  0.00000000000E+00 -0.00000000000E+00 -0.21587851909E+03  0.21587851909E+03  0.00000000000E+00 0. -1.
         23    2    1    2    0    0  0.27810477371E+02 -0.89726811277E+02 -0.53970497536E+02  0.16549509405E+03  0.12510590808E+03 0.  0.
          5    1    3    3  502    0  0.27323317272E+02  0.22751604363E+02  0.84558889877E+01  0.36785508375E+02  0.41800000000E+01 0.  1.
         -5    1    3    3    0  502  0.48716009841E+00 -0.11247841564E+03 -0.62426386523E+02  0.12870958567E+03  0.41800000000E+01 0.  1.
        -11    1    1    2    0    0  0.18530695042E+01  0.36644801476E+02 -0.76961334263E+02  0.85260320862E+02  0.00000000000E+00 0. -1.
         11    1    1    2    0    0 -0.29663546875E+02  0.53082009801E+02  0.11889821441E+02  0.61959612907E+02  0.00000000000E+00 0.  1.
</event>
<event>
 7    1  0.5109948E-006  0.1238187E+03  0.7561462E-02  0.1236927E+00
         -4   -1    0    0    0  501 -0.00000000000E+00  0.00000000000E+00  0.24445723147E+03  0.24445723147E+03  0.00000000000E+00 0.  1.
          4   -1    0    0  501    0  0.00000000000E+00 -0.00000000000E+00 -0.11748409525E+03  0.11748409525E+03  0.00000000000E+00 0. -1.
         23    2    1    2    0    0  0.65770591626E+02 -0.98144692200E+02  0.12468035030E+03  0.21249079864E+03  0.12509595687E+03 0.  0.
          5    1    3    3  502    0  0.41536636023E+01 -0.29395662047E+02  0.11583668615E+03  0.11965353370E+03  0.41800000000E+01 0.  1.
         -5    1    3    3    0  502  0.61616928024E+02 -0.68749030153E+02  0.88436641552E+01  0.92837264941E+02  0.41800000000E+01 0.  1.
        -11    1    1    2    0    0 -0.39686210063E+01  0.40612408264E+02  0.39851943265E+02  0.57037663343E+02  0.00000000000E+00 0.  1.
         11    1    1    2    0    0 -0.61801970620E+02  0.57532283937E+02 -0.37559157354E+02  0.92412864735E+02  0.00000000000E+00 0. -1.
</event>
<event>
 7    1  0.5109948E-006  0.1040207E+03  0.7561462E-02  0.1272061E+00
         -2   -1    0    0    0  501 -0.00000000000E+00  0.00000000000E+00  0.62100239528E+02  0.62100239528E+02  0.00000000000E+00 0. -1.
          2   -1    0    0  501    0  0.00000000000E+00 -0.00000000000E+00 -0.18867182007E+03  0.18867182007E+03  0.00000000000E+00 0.  1.
         23    2    1    2    0    0 -0.52925970812E+01  0.16335003122E+02 -0.86741349062E+02  0.15318265808E+03  0.12508405649E+03 0.  0.
          5    1    3    3  502    0 -0.96990090313E+01  0.68440772217E+02 -0.28741004016E+02  0.74978182091E+02  0.41800000000E+01 0.  1.
         -5    1    3    3    0  502  0.44064119500E+01 -0.52105769095E+02 -0.58000345046E+02  0.78204475988E+02  0.41800000000E+01 0.  1.
        -11    1    1    2    0    0 -0.38140445989E+02 -0.19400319557E+02 -0.31801761712E+02  0.53314332662E+02  0.00000000000E+00 0.  1.
         11    1    1    2    0    0  0.43433043070E+02  0.30653164345E+01 -0.80284697659E+01  0.44275068854E+02  0.00000000000E+00 0. -1.
</event>
<event>
 7    1  0.5109948E-006  0.1741443E+03  0.7561462E-02  0.1173594E+00
          3   -1    0    0  501    0  0.00000000000E+00  0.00000000000E+00  0.18324951748E+03  0.18324951748E+03  0.00000000000E+00 0. -1.
         -3   -1    0    0    0  501 -0.00000000000E+00 -0.00000000000E+00 -0.24635170277E+03  0.24635170277E+03  0.00000000000E+00 0.  1.
         23    2    1    2    0    0 -0.78786594127E+01  0.14933286215E+03 -0.13948898176E+03  0.23973106684E+03  0.12510568085E+03 0.  0.
          5    1    3    3  502    0  0.57349555798E+02  0.79320166785E+02 -0.57133141872E+02  0.11341220706E+03  0.41800000000E+01 0.  1.
         -5    1    3    3    0  502 -0.65228215210E+02  0.70012695369E+02 -0.82355839890E+02  0.12631885978E+03  0.41800000000E+01 0.  1.
        -11    1    1    2    0    0  0.23359837505E+02 -0.72842788597E+02 -0.55718466106E+01  0.76699408952E+02  0.00000000000E+00 0.  1.
         11    1    1    2    0    0 -0.15481178093E+02 -0.76490073557E+02  0.81958643076E+02  0.11317074446E+03  0.00000000000E+00 0. -1.
</event>
<event>
 7    1  0.5109948E-006  0.1186593E+03  0.7561462E-02  0.1245325E+00
          3   -1    0    0  501    0  0.00000000000E+00  0.00000000000E+00  0.32896914304E+02  0.32896914304E+02  0.00000000000E+00 0. -1.
         -3   -1    0    0    0  501 -0.00000000000E+00 -0.00000000000E+00 -0.71252788437E+03  0.71252788437E+03  0.00000000000E+00 0.  1.
         23    2    1    2    0    0  0.33870499651E+02  0.34381459924E+02 -0.59706352963E+03  0.61193417120E+03  0.12509706608E+03 0.  0.
          5    1    3    3  502    0  0.76704004140E+02 -0.31745467895E+01 -0.35304734789E+03  0.36132185687E+03  0.41800000000E+01 0. -1.
         -5    1    3    3    0  502 -0.42833504489E+02  0.37556006713E+02 -0.24401618173E+03  0.25061231433E+03  0.41800000000E+01 0. -1.
        -11    1    1    2    0    0 -0.65158574669E+02 -0.16252231651E+02 -0.42285748003E+02  0.79359053489E+02  0.00000000000E+00 0. -1.
         11    1    1    2    0    0  0.31288075019E+02 -0.18129228272E+02 -0.40281692434E+02  0.54131573979E+02  0.00000000000E+00 0.  1.
</event>
<event>
 7    1  0.5109948E-006  0.1716989E+03  0.7561462E-02  0.1176088E+00
         -2   -1    0    0    0  501 -0.00000000000E+00  0.00000000000E+00  0.21641154355E+03  0.21641154355E+03  0.00000000000E+00 0.  1.
          2   -1    0    0  501    0  0.00000000000E+00 -0.00000000000E+00 -0.56887869851E+03  0.56887869851E+03  0.00000000000E+00 0. -1.
         23    2    1    2    0    0  0.21948463909E+02  0.15233080251E+03  0.15133225711E+03  0.24945039872E+03  0.12505055343E+03 0.  0.
          5    1    3    3  502    0 -0.15228158152E+01  0.14505586707E+03  0.63962182852E+02  0.15859431508E+03  0.41800000000E+01 0. -1.
         -5    1    3    3    0  502  0.23471279725E+02  0.72749354445E+01  0.87370074262E+02  0.90856083639E+02  0.41800000000E+01 0. -1.
        -11    1    1    2    0    0 -0.51165258558E+02 -0.76014736634E+02 -0.18119009175E+03  0.20304180165E+03  0.00000000000E+00 0.  1.
         11    1    1    2    0    0  0.29216794649E+02 -0.76316065881E+02 -0.32260932032E+03  0.33279804170E+03  0.00000000000E+00 0. -1.
</event>
<event>
 7    1  0.5109948E-006  0.2215545E+03  0.7561462E-02  0.1132729E+00
          1   -1    0    0  501    0  0.00000000000E+00  0.00000000000E+00  0.41687346479E+03  0.41687346479E+03  0.00000000000E+00 0. -1.
         -1   -1    0    0    0  501 -0.00000000000E+00 -0.00000000000E+00 -0.13309406785E+03  0.13309406785E+03  0.00000000000E+00 0.  1.
         23    2    1    2    0    0 -0.42885388855E+02 -0.19068879593E+03  0.60863720227E+02  0.23990270693E+03  0.12509013901E+03 0.  0.
          5    1    3    3  502    0 -0.39455137136E+02 -0.23423191074E+01  0.28041041202E+02  0.48641203695E+02  0.41800000000E+01 0. -1.
         -5    1    3    3    0  502 -0.34302517189E+01 -0.18834647683E+03  0.32822679025E+02  0.19126150323E+03  0.41800000000E+01 0. -1.
        -11    1    1    2    0    0 -0.17520580988E+02  0.12289853691E+03  0.13988426573E+03  0.18702574404E+03  0.00000000000E+00 0.  1.
         11    1    1    2    0    0  0.60405969843E+02  0.67790259019E+02  0.83031410978E+02  0.12303908168E+03  0.00000000000E+00 0. -1.
</event>
<event>
 7    1  0.5109948E-006  0.1256116E+03  0.7561462E-02  0.1234117E+00
          3   -1    0    0  501    0  0.00000000000E+00  0.00000000000E+00  0.19897815010E+03  0.19897815010E+03  0.00000000000E+00 0. -1.
         -3   -1    0    0    0  501 -0.00000000000E+00 -0.00000000000E+00 -0.25027631506E+03  0.25027631506E+03  0.00000000000E+00 0.  1.
         23    2    1    2    0    0  0.91345718491E+02 -0.58913466555E+02 -0.18901436407E+03  0.25141417920E+03  0.12517117420E+03 0.  0.
          5    1    3    3  502    0  0.54411552633E+02 -0.41677352079E+02 -0.11984017337E+02  0.69704431765E+02  0.41800000000E+01 0. -1.
         -5    1    3    3    0  502  0.36934165858E+02 -0.17236114476E+02 -0.17703034673E+03  0.18170974744E+03  0.41800000000E+01 0.  1.
        -11    1    1    2    0    0 -0.84849872153E+02  0.25914169632E+01  0.90227718748E+02  0.12388404852E+03  0.00000000000E+00 0.  1.
         11    1    1    2    0    0 -0.64958463376E+01  0.56322049592E+02  0.47488480361E+02  0.73956237443E+02  0.00000000000E+00 0. -1.
</event>
<event>
 7    1  0.1028939E-005  0.1879259E+03  0.7561462E-02  0.1160345E+00
         -2   -1    0    0    0  501 -0.00000000000E+00  0.00000000000E+00  0.19863438483E+03  0.19863438483E+03  0.00000000000E+00 0.  1.
          2   -1    0    0  501    0  0.00000000000E+00 -0.00000000000E+00 -0.21215142880E+03  0.21215142880E+03  0.00000000000E+00 0. -1.
         23    2    1    2    0    0  0.16140782629E+03  0.50827978653E+02  0.32736693896E+02  0.21296765929E+03  0.12509021933E+03 0.  0.
          5    1    3    3  502    0  0.13664265384E+03  0.34492927646E+01  0.63903294518E+02  0.15094441334E+03  0.41800000000E+01 0.  1.
         -5    1    3    3    0  502  0.24765172451E+02  0.47378685889E+02 -0.31166600622E+02  0.62023245944E+02  0.41800000000E+01 0.  1.
        -11    1    1    2    0    0 -0.25440912461E+02 -0.42151826384E+02 -0.36380756097E+02  0.61217447747E+02  0.00000000000E+00 0. -1.
         11    1    1    2    0    0 -0.13596691383E+03 -0.86761522688E+01 -0.98729817707E+01  0.13660070660E+03  0.00000000000E+00 0.  1.
</event>
<event>
 6    1  0.5109948E-006  0.1775234E+03  0.7561462E-02  0.1170222E+00
          1   -1    0    0  501    0  0.00000000000E+00  0.00000000000E+00  0.65775036184E+02  0.65775036184E+02  0.00000000000E+00 0. -1.
         -1   -1    0    0    0  501 -0.00000000000E+00 -0.00000000000E+00 -0.52272365927E+03  0.52272365927E+03  0.00000000000E+00 0.  1.
          5    1    1    2  502    0  0.80010415689E+02 -0.46472473836E+02 -0.16468798384E+03  0.18894698162E+03  0.41800000000E+01 0. -1.
         -5    1    1    2    0  502 -0.12949544902E+03  0.85294365142E+02 -0.21954424549E+03  0.26881470974E+03  0.41800000000E+01 0.  1.
        -11    1    1    2    0    0 -0.25182581684E+02 -0.69726212276E+01 -0.26995086924E+02  0.37570128893E+02  0.00000000000E+00 0.  1.
         11    1    1    2    0    0  0.74667615016E+02 -0.31849270078E+02 -0.45721306830E+02  0.93166875202E+02  0.00000000000E+00 0. -1.
</event>
<event>
 7    1  0.5109948E-006  0.9570513E+02  0.7561462E-02  0.1289596E+00
          1   -1    0    0  501    0  0.00000000000E+00  0.00000000000E+00  0.49919245597E+03  0.49919245597E+03  0.00000000000E+00 0. -1.
         -1   -1    0    0    0  501 -0.00000000000E+00 -0.00000000000E+00 -0.35182107310E+02  0.35182107310E+02  0.00000000000E+00 0.  1.
         23    2    1    2    0    0 -0.59981968150E+02 -0.34536546366E+02  0.19667066102E+03  0.24314192504E+03  0.12509211514E+03 0.  0.
          5    1    3    3  502    0 -0.13404274305E+02  0.12200600397E+02 -0.13391792182E+02  0.22920334150E+02  0.41800000000E+01 0.  1.
         -5    1    3    3    0  502 -0.46577693845E+02 -0.46737146764E+02  0.21006245320E+03  0.22022159089E+03  0.41800000000E+01 0.  1.
        -11    1    1    2    0    0  0.77428106826E+02  0.12251436268E+02  0.13687871383E+03  0.15773709683E+03  0.00000000000E+00 0.  1.
         11    1    1    2    0    0 -0.17446138677E+02  0.22285110098E+02  0.13046097381E+03  0.13349554140E+03  0.00000000000E+00 0. -1.
</event>
<event>
 7    1  0.5109948E-006  0.1099624E+03  0.7561462E-02  0.1260640E+00
          2   -1    0    0  501    0  0.00000000000E+00  0.00000000000E+00  0.31199072893E+03  0.31199072893E+03  0.00000000000E+00 0. -1.
         -2   -1    0    0    0  501 -0.00000000000E+00 -0.00000000000E+00 -0.80845166795E+02  0.80845166795E+02  0.00000000000E+00 0.  1.
         23    2    1    2    0    0 -0.38373340499E+02  0.63431129143E+02  0.59927078704E+01  0.13779082623E+03  0.11599300772E+03 0.  0.
          5    1    3    3  502    0 -0.35669600800E+01 -0.14329088940E+02  0.42367605039E+02  0.45061428637E+02  0.41800000000E+01 0. -1.
         -5    1    3    3    0  502 -0.34806380419E+02  0.77760218082E+02 -0.36374897169E+02  0.92729397594E+02  0.41800000000E+01 0.  1.
        -11    1    1    2    0    0  0.25619784440E+01  0.24345649083E+02  0.37110168058E+02  0.44457158435E+02  0.00000000000E+00 0.  1.
         11    1    1    2    0    0  0.35811362055E+02 -0.87776778226E+02  0.18804268620E+03  0.21058791105E+03  0.00000000000E+00 0. -1.
</event>
<event>
 7    1  0.5109948E-006  0.1038659E+03  0.7561462E-02  0.1272370E+00
         -3   -1    0    0    0  501 -0.00000000000E+00  0.00000000000E+00  0.33004709056E+03  0.33004709056E+03  0.00000000000E+00 0.  1.
          3   -1    0    0  501    0  0.00000000000E+00 -0.00000000000E+00 -0.17397722732E+03  0.17397722732E+03  0.00000000000E+00 0. -1.
         23    2    1    2    0    0  0.23343919257E+02  0.25496592143E+02  0.30444285305E+03  0.32603130244E+03  0.11142685772E+03 0.  0.
          5    1    3    3  502    0 -0.22539837146E+02 -0.30447723993E+02  0.60093700550E+02  0.71160616922E+02  0.41800000000E+01 0. -1.
         -5    1    3    3    0  502  0.45883756403E+02  0.55944316136E+02  0.24434915250E+03  0.25487068552E+03  0.41800000000E+01 0.  1.
        -11    1    1    2    0    0 -0.47117174480E+02  0.15629335801E+02 -0.62059371953E+02  0.79471189219E+02  0.00000000000E+00 0.  1.
         11    1    1    2    0    0  0.23773255223E+02 -0.41125927944E+02 -0.86313617862E+02  0.98521826219E+02  0.00000000000E+00 0. -1.
</event>
<event>
 7    1  0.5109948E-006  0.1652324E+03  0.7561462E-02  0.1182913E+00
          2   -1    0    0  501    0  0.00000000000E+00  0.00000000000E+00  0.30201041405E+02  0.30201041405E+02  0.00000000000E+00 0. -1.
         -2   -1    0    0    0  501 -0.00000000000E+00 -0.00000000000E+00 -0.95539994099E+03  0.95539994099E+03  0.00000000000E+00 0.  1.
         23    2    1    2    0    0  0.12261829270E+03  0.36286901395E+02 -0.55518760097E+03  0.58329489963E+03  0.12509069808E+03 0.  0.
          5    1    3    3  502    0  0.14463188532E+03  0.15802979313E+02 -0.41287113462E+03  0.43777638425E+03  0.41800000000E+01 0.  1.
         -5    1    3    3    0  502 -0.22013592619E+02  0.20483922082E+02 -0.14231646635E+03  0.14551851537E+03  0.41800000000E+01 0.  1.
        -11    1    1    2    0    0 -0.58978699485E+02  0.26943883703E+02 -0.11563844639E+03  0.13257718561E+03  0.00000000000E+00 0. -1.
         11    1    1    2    0    0 -0.63639593216E+02 -0.63230785097E+02 -0.25437285223E+03  0.26972889715E+03  0.00000000000E+00 0.  1.
</event>
<event>
 7    1  0.5109948E-006  0.1038389E+03  0.7561462E-02  0.1272424E+00
          2   -1    0    0  501    0  0.00000000000E+00  0.00000000000E+00  0.44550362369E+03  0.44550362369E+03  0.00000000000E+00 0. -1.
         -2   -1    0    0    0  501 -0.00000000000E+00 -0.00000000000E+00 -0.86533643173E+02  0.86533643173E+02  0.00000000000E+00 0.  1.
         23    2    1    2    0    0 -0.22372145281E+02  0.32615618405E+02 -0.36297672995E+02  0.12460198039E+03  0.11244483539E+03 0.  0.
          5    1    3    3  502    0 -0.67560854801E+02  0.99179731737E+01 -0.22509387676E+02  0.72020693046E+02  0.41800000000E+01 0. -1.
         -5    1    3    3    0  502  0.45188709520E+02  0.22697645232E+02 -0.13788285319E+02  0.52581287348E+02  0.41800000000E+01 0.  1.
        -11    1    1    2    0    0 -0.17885161550E+01 -0.55332033536E+02  0.32565292624E+03  0.33032508396E+03  0.00000000000E+00 0. -1.
         11    1    1    2    0    0  0.24160661436E+02  0.22716415130E+02  0.69614727266E+02  0.77110202501E+02  0.00000000000E+00 0.  1.
</event>
<event>
 7    1  0.5109948E-006  0.1463787E+03  0.7561462E-02  0.1204995E+00
          1   -1    0    0  501    0  0.00000000000E+00  0.00000000000E+00  0.20728901738E+03  0.20728901738E+03  0.00000000000E+00 0. -1.
         -1   -1    0    0    0  501 -0.00000000000E+00 -0.00000000000E+00 -0.10944648365E+03  0.10944648365E+03  0.00000000000E+00 0.  1.
         23    2    1    2    0    0 -0.33573863006E+02 -0.96476729263E+02  0.31778104864E+02  0.16459687295E+03  0.12508924442E+03 0.  0.
          5    1    3    3  502    0 -0.44932099480E+02  0.16366943462E+02  0.10131907678E+02  0.49060150378E+02  0.41800000000E+01 0. -1.
         -5    1    3    3    0  502  0.11358236473E+02 -0.11284367272E+03  0.21646197186E+02  0.11553672257E+03  0.41800000000E+01 0. -1.
        -11    1    1    2    0    0  0.58826085722E+02  0.45477688448E+02  0.58745125510E+02  0.94761375460E+02  0.00000000000E+00 0. -1.
         11    1    1    2    0    0 -0.25252222716E+02  0.50999040815E+02  0.73193033532E+01  0.57377252616E+02  0.00000000000E+00 0.  1.
</event>
<event>
 7    1  0.5109948E-006  0.1172942E+03  0.7561462E-02  0.1247629E+00
          1   -1    0    0  501    0  0.00000000000E+00  0.00000000000E+00  0.18843329011E+03  0.18843329011E+03  0.00000000000E+00 0. -1.
         -1   -1    0    0    0  501 -0.00000000000E+00 -0.00000000000E+00 -0.86738492606E+02  0.86738492606E+02  0.00000000000E+00 0.  1.
         23    2    1    2    0    0 -0.46134882724E+02  0.46404871426E+02  0.31867721516E+02  0.14472384998E+03  0.12509037366E+03 0.  0.
          5    1    3    3  502    0 -0.82014407080E+02  0.35144679219E+02 -0.80946430819E+01  0.89691176225E+02  0.41800000000E+01 0. -1.
         -5    1    3    3    0  502  0.35879524356E+02  0.11260192206E+02  0.39962364598E+02  0.55032673756E+02  0.41800000000E+01 0. -1.
        -11    1    1    2    0    0 -0.24982640405E+02 -0.18250989054E+02  0.34049031887E+02  0.46006168016E+02  0.00000000000E+00 0.  1.
         11    1    1    2    0    0  0.71117523129E+02 -0.28153882372E+02  0.35778044097E+02  0.84441764714E+02  0.00000000000E+00 0. -1.
</event>
<event>
 7    1  0.5109948E-006  0.1286279E+03  0.7561462E-02  0.1229506E+00
          1   -1    0    0  501    0  0.00000000000E+00  0.00000000000E+00  0.41031063919E+03  0.41031063919E+03  0.00000000000E+00 0. -1.
         -1   -1    0    0    0  501 -0.00000000000E+00 -0.00000000000E+00 -0.56827812766E+02  0.56827812766E+02  0.00000000000E+00 0.  1.
         23    2    1    2    0    0 -0.78097076870E+02  0.73108943274E+02  0.24152685804E+03  0.29227971685E+03  0.12509252065E+03 0.  0.
          5    1    3    3  502    0  0.25695354271E+02  0.70728010632E+01  0.10520856247E+03  0.10861210689E+03  0.41800000000E+01 0.  1.
         -5    1    3    3    0  502 -0.10379243114E+03  0.66036142211E+02  0.13631829557E+03  0.18366760996E+03  0.41800000000E+01 0.  1.
        -11    1    1    2    0    0  0.28503535335E+02 -0.31194029619E+02  0.10036665317E+03  0.10889896271E+03  0.00000000000E+00 0. -1.
         11    1    1    2    0    0  0.49593541536E+02 -0.41914913654E+02  0.11589315220E+02  0.65959772407E+02  0.00000000000E+00 0.  1.
</event>
<event>
 7    1  0.5109948E-006  0.1487881E+03  0.7561462E-02  0.1201970E+00
          2   -1    0    0  501    0  0.00000000000E+00  0.00000000000E+00  0.63716254635E+02  0.63716254635E+02  0.00000000000E+00 0. -1.
         -2   -1    0    0    0  501 -0.00000000000E+00 -0.00000000000E+00 -0.48762372159E+03  0.48762372159E+03  0.00000000000E+00 0.  1.
         23    2    1    2    0    0 -0.88985432045E+02 -0.92253917444E+02 -0.30598498681E+03  0.35454591871E+03  0.12508718528E+03 0.  0.
          5    1    3    3  502    0  0.67644811123E+01 -0.30442287753E+02 -0.18739096113E+03  0.19001404106E+03  0.41800000000E+01 0. -1.
         -5    1    3    3    0  502 -0.95749913158E+02 -0.61811629691E+02 -0.11859402568E+03  0.16453187765E+03  0.41800000000E+01 0. -1.
        -11    1    1    2    0    0  0.83734097724E+02  0.29026205075E+02 -0.93457066684E+02  0.12879496503E+03  0.00000000000E+00 0.  1.
         11    1    1    2    0    0  0.52513343215E+01  0.63227712368E+02 -0.24465413460E+02  0.67999092489E+02  0.00000000000E+00 0. -1.
</event>
<event>
 7    1  0.5109948E-006  0.1121507E+03  0.7561462E-02  0.1256638E+00
         -1   -1    0    0    0  501 -0.00000000000E+00  0.00000000000E+00  0.11779554376E+02  0.11779554376E+02  0.00000000000E+00 0.  1.
          1   -1    0    0  501    0  0.00000000000E+00 -0.00000000000E+00 -0.10913471379E+04  0.10913471379E+04  0.00000000000E+00 0. -1.
         23    2    1    2    0    0  0.28566210761E+02 -0.19933572590E+00 -0.65429720934E+03  0.66675805803E+03  0.12508158003E+03 0.  0.
          5    1    3    3  502    0 -0.11905539079E+02 -0.56053403043E+02 -0.35241163736E+03  0.35706464457E+03  0.41800000000E+01 0. -1.
         -5    1    3    3    0  502  0.40471749840E+02  0.55854067317E+02 -0.30188557198E+03  0.30969341346E+03  0.41800000000E+01 0. -1.
        -11    1    1    2    0    0 -0.50411475421E+02  0.31595729814E+02 -0.26533696290E+03  0.27192519353E+03  0.00000000000E+00 0.  1.
         11    1    1    2    0    0  0.21845264660E+02 -0.31396394088E+02 -0.15993341132E+03  0.16444344075E+03  0.00000000000E+00 0. -1.
</event>
<event>
 7    1  0.5109948E-006  0.9954639E+02  0.7561462E-02  0.1281253E+00
         -1   -1    0    0    0  501 -0.00000000000E+00  0.00000000000E+00  0.76172866670E+03  0.76172866670E+03  0.00000000000E+00 0.  1.
          1   -1    0    0  501    0  0.00000000000E+00 -0.00000000000E+00 -0.24611585544E+02  0.24611585544E+02  0.00000000000E+00 0. -1.
         23    2    1    2    0    0  0.15692279160E+02  0.57966895448E+02  0.56859316565E+03  0.58527898763E+03  0.12508755632E+03 0.  0.
          5    1    3    3  502    0  0.43036261932E+02  0.19137663773E+02  0.49712507679E+03  0.49936878595E+03  0.41800000000E+01 0.  1.
         -5    1    3    3    0  502 -0.27343982773E+02  0.38829231675E+02  0.71468088862E+02  0.85910201676E+02  0.41800000000E+01 0.  1.
        -11    1    1    2    0    0 -0.48180331037E+02 -0.52379303187E+02  0.14167561213E+03  0.15854625437E+03  0.00000000000E+00 0.  1.
         11    1    1    2    0    0  0.32488051878E+02 -0.55875922618E+01  0.26848303376E+02  0.42515010247E+02  0.00000000000E+00 0. -1.
</event>
<event>
 7    1  0.5109948E-006  0.1067993E+03  0.7561462E-02  0.1266615E+00
         -1   -1    0    0    0  501 -0.00000000000E+00  0.00000000000E+00  0.33296330238E+03  0.33296330238E+03  0.00000000000E+00 0.  1.
          1   -1    0    0  501    0  0.00000000000E+00 -0.00000000000E+00 -0.58986642186E+02  0.58986642186E+02  0.00000000000E+00 0. -1.
         23    2    1    2    0    0  0.21696517580E+02 -0.80640224970E+02  0.19122032692E+03  0.24328228710E+03  0.12508985983E+03 0.  0.
          5    1    3    3  502    0  0.44148016926E+02 -0.44063905880E+02  0.18404474537E+02  0.65168031142E+02  0.41800000000E+01 0. -1.
         -5    1    3    3    0  502 -0.22451499346E+02 -0.36576319090E+02  0.17281585239E+03  0.17811425596E+03  0.41800000000E+01 0. -1.
        -11    1    1    2    0    0  0.26600816999E+01 -0.11939831338E+02  0.43523431124E+02  0.45209785046E+02  0.00000000000E+00 0. -1.
         11    1    1    2    0    0 -0.24356599280E+02  0.92580056308E+02  0.39232902149E+02  0.10345787242E+03  0.00000000000E+00 0.  1.
</event>
<event>
 7    1  0.5109948E-006  0.7273128E+02  0.7561462E-02  0.1351044E+00
          2   -1    0    0  501    0  0.00000000000E+00  0.00000000000E+00  0.21739498134E+03  0.21739498134E+03  0.00000000000E+00 0.  1.
         -2   -1    0    0    0  501 -0.00000000000E+00 -0.00000000000E+00 -0.69983841101E+02  0.69983841101E+02  0.00000000000E+00 0. -1.
         23    2    1    2    0    0 -0.54222072269E+02  0.48013437070E+01  0.55051848727E+02  0.14711250423E+03  0.12509315261E+03 0.  0.
          5    1    3    3  502    0 -0.30858835873E+02  0.24285697739E+02 -0.34502305330E+02  0.52439911701E+02  0.41800000000E+01 0. -1.
         -5    1    3    3    0  502 -0.23363236396E+02 -0.19484354032E+02  0.89554154057E+02  0.94672592527E+02  0.41800000000E+01 0. -1.
        -11    1    1    2    0    0  0.46027421489E+02  0.19223187615E+02  0.10165560039E+03  0.11323389758E+03  0.00000000000E+00 0.  1.
         11    1    1    2    0    0  0.81946507802E+01 -0.24024531322E+02 -0.92963088750E+01  0.27032420634E+02  0.00000000000E+00 0. -1.
</event>
<event>
 7    1  0.5109948E-006  0.2009072E+03  0.7561462E-02  0.1148976E+00
          2   -1    0    0  501    0  0.00000000000E+00  0.00000000000E+00  0.14795392635E+03  0.14795392635E+03  0.00000000000E+00 0. -1.
         -2   -1    0    0    0  501 -0.00000000000E+00 -0.00000000000E+00 -0.34195232681E+03  0.34195232681E+03  0.00000000000E+00 0.  1.
         23    2    1    2    0    0  0.14820138253E+03 -0.11837096027E+03 -0.15451553045E+03  0.27476824539E+03  0.12508879048E+03 0.  0.
          5    1    3    3  502    0  0.33741947773E+02 -0.97938210921E+01  0.19044733351E+02  0.40182237861E+02  0.41800000000E+01 0.  1.
         -5    1    3    3    0  502  0.11445943476E+03 -0.10857713918E+03 -0.17356026380E+03  0.23458600753E+03  0.41800000000E+01 0.  1.
        -11    1    1    2    0    0 -0.63875006485E+02  0.74276773503E+00 -0.28624010591E+02  0.69999300995E+02  0.00000000000E+00 0.  1.
         11    1    1    2    0    0 -0.84326376049E+02  0.11762819254E+03 -0.10858859417E+02  0.14513870678E+03  0.00000000000E+00 0. -1.
</event>
<event>
 7    1  0.5109948E-006  0.1139604E+03  0.7561462E-02  0.1253407E+00
         -3   -1    0    0    0  501 -0.00000000000E+00  0.00000000000E+00  0.24089791649E+02  0.24089791649E+02  0.00000000000E+00 0.  1.
          3   -1    0    0  501    0  0.00000000000E+00 -0.00000000000E+00 -0.61267602744E+03  0.61267602744E+03  0.00000000000E+00 0. -1.
         23    2    1    2    0    0  0.33940760258E+02 -0.28209058992E+02 -0.25547737358E+03  0.28785977073E+03  0.12508730141E+03 0.  0.
          5    1    3    3  502    0 -0.47010634961E+02 -0.19629061600E+02 -0.10072157792E+03  0.11294958396E+03  0.41800000000E+01 0. -1.
         -5    1    3    3    0  502  0.80951395219E+02 -0.85799973925E+01 -0.15475579567E+03  0.17491018677E+03  0.41800000000E+01 0. -1.
        -11    1    1    2    0    0 -0.34273223892E+01 -0.29668049269E+02 -0.49194930883E+02  0.57550681236E+02  0.00000000000E+00 0.  1.
         11    1    1    2    0    0 -0.30513437869E+02  0.57877108261E+02 -0.28391393132E+03  0.29135536712E+03  0.00000000000E+00 0. -1.
</event>
<event>
 7    1  0.5109948E-006  0.1383797E+03  0.7561462E-02  0.1215526E+00
         -1   -1    0    0    0  501 -0.00000000000E+00  0.00000000000E+00  0.76226508243E+02  0.76226508243E+02  0.00000000000E+00 0.  1.
          1   -1    0    0  501    0  0.00000000000E+00 -0.00000000000E+00 -0.33071246995E+03  0.33071246995E+03  0.00000000000E+00 0. -1.
         23    2    1    2    0    0 -0.22548300077E+02 -0.11195048336E+03 -0.11178696778E+03  0.20294081131E+03  0.12508920884E+03 0.  0.
          5    1    3    3  502    0 -0.63495358481E+02 -0.36331925691E+02 -0.86177212493E+02  0.11311787536E+03  0.41800000000E+01 0. -1.
         -5    1    3    3    0  502  0.40947058404E+02 -0.75618557673E+02 -0.25609755291E+02  0.89822935949E+02  0.41800000000E+01 0. -1.
        -11    1    1    2    0    0  0.25682152603E+02  0.59002491428E+02 -0.13610340393E+03  0.15054900703E+03  0.00000000000E+00 0. -1.
         11    1    1    2    0    0 -0.31338525263E+01  0.52947991936E+02 -0.65955899954E+01  0.53449159854E+02  0.00000000000E+00 0.  1.
</event>
<event>
 7    1  0.5109948E-006  0.1171831E+03  0.7561462E-02  0.1247818E+00
         -2   -1    0    0    0  501 -0.00000000000E+00  0.00000000000E+00  0.35745903639E+02  0.35745903639E+02  0.00000000000E+00 0.  1.
          2   -1    0    0  501    0  0.00000000000E+00 -0.00000000000E+00 -0.57024968256E+03  0.57024968256E+03  0.00000000000E+00 0. -1.
         23    2    1    2    0    0 -0.29081730839E+02  0.55567426298E+02 -0.14737622028E+03  0.20322002177E+03  0.12508053809E+03 0.  0.
          5    1    3    3  502    0  0.93370911380E+01 -0.28768033027E+02 -0.17845792446E+01  0.30584932863E+02  0.41800000000E+01 0. -1.
         -5    1    3    3    0  502 -0.38418821977E+02  0.84335459325E+02 -0.14559164104E+03  0.17263508891E+03  0.41800000000E+01 0. -1.
        -11    1    1    2    0    0  0.41022051538E+02 -0.76592391299E+02 -0.29515644496E+03  0.30767926501E+03  0.00000000000E+00 0.  1.
         11    1    1    2    0    0 -0.11940320699E+02  0.21024965001E+02 -0.91971113673E+02  0.95096299412E+02  0.00000000000E+00 0. -1.
</event>
<event>
 7    1  0.5109948E-006  0.8843532E+02  0.7561462E-02  0.1306686E+00
         -3   -1    0    0    0  501 -0.00000000000E+00  0.00000000000E+00  0.13191597504E+03  0.13191597504E+03  0.00000000000E+00 0. -1.
          3   -1    0    0  501    0  0.00000000000E+00 -0.00000000000E+00 -0.11280552583E+03  0.11280552583E+03  0.00000000000E+00 0.  1.
         23    2    1    2    0    0 -0.54014834182E+02  0.64197694509E+01  0.57387543572E+01  0.13652625172E+03  0.12509064055E+03 0.  0.
          5    1    3    3  502    0 -0.62943776008E+02 -0.21930607084E+01 -0.49212000160E+02  0.80037627484E+02  0.41800000000E+01 0.  1.
         -5    1    3    3    0  502  0.89289418261E+01  0.86128301593E+01  0.54950754518E+02  0.56488624231E+02  0.41800000000E+01 0.  1.
        -11    1    1    2    0    0  0.13180072349E+02 -0.43529395826E+02  0.24863216119E+02  0.51833407411E+02  0.00000000000E+00 0. -1.
         11    1    1    2    0    0  0.40834761833E+02  0.37109626375E+02 -0.11491521260E+02  0.56361841742E+02  0.00000000000E+00 0.  1.
</event>
<event>
 7    1  0.5109948E-006  0.1444263E+03  0.7561462E-02  0.1207494E+00
         -2   -1    0    0    0  501 -0.00000000000E+00  0.00000000000E+00  0.53650407288E+03  0.53650407288E+03  0.00000000000E+00 0. -1.
          2   -1    0    0  501    0  0.00000000000E+00 -0.00000000000E+00 -0.58006836534E+02  0.58006836534E+02  0.00000000000E+00 0.  1.
         23    2    1    2    0    0  0.16219888959E+02  0.11456550828E+03  0.38245579998E+03  0.41869901290E+03  0.12509230185E+03 0.  0.
          5    1    3    3  502    0  0.50249321040E+02  0.10931898980E+01  0.14022572570E+03  0.14901985061E+03  0.41800000000E+01 0.  1.
         -5    1    3    3    0  502 -0.34029432081E+02  0.11347231838E+03  0.24223007428E+03  0.26967916229E+03  0.41800000000E+01 0.  1.
        -11    1    1    2    0    0 -0.25594759436E+02 -0.76152848324E+02  0.97951807279E+01  0.80933884028E+02  0.00000000000E+00 0.  1.
         11    1    1    2    0    0  0.93748704775E+01 -0.38412659955E+02  0.86246255639E+02  0.94878012485E+02  0.00000000000E+00 0. -1.
</event>
<event>
 7    1  0.5109948E-006  0.5117754E+02  0.7561462E-02  0.1439092E+00
          2   -1    0    0  501    0  0.00000000000E+00  0.00000000000E+00  0.62172763647E+02  0.62172763647E+02  0.00000000000E+00 0.  1.
         -2   -1    0    0    0  501 -0.00000000000E+00 -0.00000000000E+00 -0.30056424497E+03  0.30056424497E+03  0.00000000000E+00 0. -1.
         23    2    1    2    0    0  0.16340801396E+01  0.11717786876E+02 -0.23866013596E+03  0.26971614018E+03  0.12509260182E+03 0.  0.
          5    1    3    3  502    0  0.17567165754E+02  0.84376775283E+00 -0.24745013272E+03  0.24810956822E+03  0.41800000000E+01 0.  1.
         -5    1    3    3    0  502 -0.15933085614E+02  0.10874019123E+02  0.87899967609E+01  0.21606571966E+02  0.41800000000E+01 0.  1.
        -11    1    1    2    0    0  0.97210314259E+01 -0.36237436487E+02 -0.33135365135E+02  0.50055995423E+02  0.00000000000E+00 0. -1.
         11    1    1    2    0    0 -0.11355111566E+02  0.24519649611E+02  0.33404019775E+02  0.42964873010E+02  0.00000000000E+00 0.  1.
</event>
<event>
 7    1  0.5109948E-006  0.1083661E+03  0.7561462E-02  0.1263626E+00
         -2   -1    0    0    0  501 -0.00000000000E+00  0.00000000000E+00  0.43860627749E+03  0.43860627749E+03  0.00000000000E+00 0.  1.
          2   -1    0    0  501    0  0.00000000000E+00 -0.00000000000E+00 -0.42275967021E+02  0.42275967021E+02  0.00000000000E+00 0. -1.
         23    2    1    2    0    0  0.79718999602E+02  0.20477096041E+02  0.23416472510E+03  0.27794717495E+03  0.12508830170E+03 0.  0.
          5    1    3    3  502    0  0.71046563614E+02 -0.16608528013E+02  0.46975814102E+02  0.86877251998E+02  0.41800000000E+01 0.  1.
         -5    1    3    3    0  502  0.86724359876E+01  0.37085624054E+02  0.18718891100E+03  0.19106992295E+03  0.41800000000E+01 0.  1.
        -11    1    1    2    0    0 -0.38164013107E+02  0.23509760420E+02  0.21310451865E+02  0.49632006711E+02  0.00000000000E+00 0. -1.
         11    1    1    2    0    0 -0.41554986495E+02 -0.43986856461E+02  0.14085513350E+03  0.15330306284E+03  0.00000000000E+00 0.  1.
</event>
<event>
 7    1  0.5109948E-006  0.2781160E+03  0.7561462E-02  0.1096722E+00
          1   -1    0    0  501    0  0.00000000000E+00  0.00000000000E+00  0.63322153739E+02  0.63322153739E+02  0.00000000000E+00 0. -1.
         -1   -1    0    0    0  501 -0.00000000000E+00 -0.00000000000E+00 -0.12998069628E+04  0.12998069628E+04  0.00000000000E+00 0.  1.
         23    2    1    2    0    0 -0.23675372965E+03  0.10331188174E+03 -0.78393846742E+03  0.83482494507E+03  0.12508994683E+03 0.  0.
          5    1    3    3  502    0 -0.61096049772E+02  0.92541623415E+02 -0.30413823941E+03  0.32375024391E+03  0.41800000000E+01 0. -1.
         -5    1    3    3    0  502 -0.17565767987E+03  0.10770258325E+02 -0.47980022801E+03  0.51107470115E+03  0.41800000000E+01 0. -1.
        -11    1    1    2    0    0  0.58087351766E+02  0.81288560252E+01 -0.67358130676E+02  0.89315936448E+02  0.00000000000E+00 0. -1.
         11    1    1    2    0    0  0.17866637788E+03 -0.11144073777E+03 -0.38518821095E+03  0.43898823500E+03  0.00000000000E+00 0.  1.
</event>
<event>
 7    1  0.5109948E-006  0.1327972E+03  0.7561462E-02  0.1223363E+00
          2   -1    0    0  501    0  0.00000000000E+00  0.00000000000E+00  0.61704287871E+03  0.61704287871E+03  0.00000000000E+00 0.  1.
         -2   -1    0    0    0  501 -0.00000000000E+00 -0.00000000000E+00 -0.38058272645E+02  0.38058272645E+02  0.00000000000E+00 0. -1.
         23    2    1    2    0    0  0.26475202116E+02  0.94043294855E+02  0.21281249090E+03  0.26547342459E+03  0.12506760271E+03 0.  0.
          5    1    3    3  502    0  0.48740275576E+02  0.99062845677E+02  0.21544404465E+03  0.24212118997E+03  0.41800000000E+01 0.  1.
         -5    1    3    3    0  502 -0.22265073460E+02 -0.50195508217E+01 -0.26315537519E+01  0.23352234620E+02  0.41800000000E+01 0.  1.
        -11    1    1    2    0    0  0.31438347761E+02 -0.50356761377E+02  0.13876101460E+03  0.15092644665E+03  0.00000000000E+00 0.  1.
         11    1    1    2    0    0 -0.57913549877E+02 -0.43686533479E+02  0.22741110057E+03  0.23870128012E+03  0.00000000000E+00 0. -1.
</event>
<event>
 7    1  0.5109948E-006  0.1357896E+03  0.7561462E-02  0.1219109E+00
         -2   -1    0    0    0  501 -0.00000000000E+00  0.00000000000E+00  0.51059246852E+02  0.51059246852E+02  0.00000000000E+00 0.  1.
          2   -1    0    0  501    0  0.00000000000E+00 -0.00000000000E+00 -0.55469828073E+03  0.55469828073E+03  0.00000000000E+00 0. -1.
         23    2    1    2    0    0 -0.67114215573E+02  0.57783666651E+02 -0.10062553913E+03  0.18334700396E+03  0.12508938673E+03 0.  0.
          5    1    3    3  502    0  0.22660463769E+01  0.79855002670E+02 -0.46497818900E+02  0.92528244229E+02  0.41800000000E+01 0.  1.
         -5    1    3    3    0  502 -0.69380261950E+02 -0.22071336019E+02 -0.54127720226E+02  0.90818759729E+02  0.41800000000E+01 0.  1.
        -11    1    1    2    0    0  0.56846430271E+02  0.30828988653E+01 -0.12104041935E+03  0.13376024827E+03  0.00000000000E+00 0.  1.
         11    1    1    2    0    0  0.10267785302E+02 -0.60866565516E+02 -0.28197307540E+03  0.28865027535E+03  0.00000000000E+00 0. -1.
</event>
<event>
 7    1  0.5109948E-006  0.1323421E+03  0.7561462E-02  0.1224021E+00
         -2   -1    0    0    0  501 -0.00000000000E+00  0.00000000000E+00  0.41934663560E+02  0.41934663560E+02  0.00000000000E+00 0.  1.
          2   -1    0    0  501    0  0.00000000000E+00 -0.00000000000E+00 -0.52977879291E+03  0.52977879291E+03  0.00000000000E+00 0. -1.
         23    2    1    2    0    0  0.38459116710E+02  0.68635937961E+02 -0.14008519409E+03  0.20365320850E+03  0.12514300656E+03 0.  0.
          5    1    3    3  502    0  0.28296901341E+02 -0.32190893967E+02 -0.62767355967E+02  0.76119522168E+02  0.41800000000E+01 0. -1.
         -5    1    3    3    0  502  0.10162215369E+02  0.10082683193E+03 -0.77317838122E+02  0.12753368633E+03  0.41800000000E+01 0. -1.
        -11    1    1    2    0    0  0.29005293477E+02 -0.32872958302E+02 -0.14064211481E+03  0.14731647191E+03  0.00000000000E+00 0.  1.
         11    1    1    2    0    0 -0.67464410187E+02 -0.35762979659E+02 -0.20711682044E+03  0.22074377605E+03  0.00000000000E+00 0. -1.
</event>
<event>
 7    1  0.5109948E-006  0.1190505E+03  0.7561462E-02  0.1244672E+00
          3   -1    0    0  501    0  0.00000000000E+00  0.00000000000E+00  0.20693690668E+03  0.20693690668E+03  0.00000000000E+00 0. -1.
         -3   -1    0    0    0  501 -0.00000000000E+00 -0.00000000000E+00 -0.12863290183E+03  0.12863290183E+03  0.00000000000E+00 0.  1.
         23    2    1    2    0    0 -0.78051159802E+02  0.63327934808E+02 -0.27473562317E+02  0.16280244511E+03  0.12508968236E+03 0.  0.
          5    1    3    3  502    0 -0.23116628446E+02  0.96406571162E+01  0.48461485486E+02  0.54711139230E+02  0.41800000000E+01 0. -1.
         -5    1    3    3    0  502 -0.54934531356E+02  0.53687277692E+02 -0.75935047803E+02  0.10809130588E+03  0.41800000000E+01 0. -1.
        -11    1    1    2    0    0  0.95852991772E+01 -0.66553694951E+02  0.42947878021E+02  0.79785916667E+02  0.00000000000E+00 0.  1.
         11    1    1    2    0    0  0.68465860625E+02  0.32257601425E+01  0.62829689149E+02  0.92981446742E+02  0.00000000000E+00 0. -1.
</event>
<event>
 6    1  0.5109948E-006  0.9269027E+02  0.7561462E-02  0.1296465E+00
         -1   -1    0    0    0  501 -0.00000000000E+00  0.00000000000E+00  0.81733551195E+03  0.81733551195E+03  0.00000000000E+00 0.  1.
          1   -1    0    0  501    0  0.00000000000E+00 -0.00000000000E+00 -0.27395164587E+02  0.27395164587E+02  0.00000000000E+00 0. -1.
          5    1    1    2  502    0 -0.27949528500E+02  0.51474185335E+02  0.72082993859E+02  0.92974180840E+02  0.41800000000E+01 0. -1.
         -5    1    1    2    0  502 -0.12602171262E+02 -0.44048069552E+02  0.57671227115E+03  0.57854434856E+03  0.41800000000E+01 0.  1.
        -11    1    1    2    0    0  0.50819678840E+02  0.17457289703E+02  0.36007817208E+02  0.64683534390E+02  0.00000000000E+00 0.  1.
         11    1    1    2    0    0 -0.10267979078E+02 -0.24883405486E+02  0.10513726515E+03  0.10852861275E+03  0.00000000000E+00 0. -1.
</event>
<event>
 7    1  0.5109948E-006  0.1869185E+03  0.7561462E-02  0.1161270E+00
          2   -1    0    0  501    0  0.00000000000E+00  0.00000000000E+00  0.27590761680E+03  0.27590761680E+03  0.00000000000E+00 0. -1.
         -2   -1    0    0    0  501 -0.00000000000E+00 -0.00000000000E+00 -0.17925584463E+03  0.17925584463E+03  0.00000000000E+00 0.  1.
         23    2    1    2    0    0  0.14272356475E+03 -0.83060556143E+02 -0.53776791092E+02  0.21403007857E+03  0.12509140398E+03 0.  0.
          5    1    3    3  502    0  0.10883473058E+03 -0.12706384810E+02 -0.75180687969E+02  0.13295134087E+03  0.41800000000E+01 0.  1.
         -5    1    3    3    0  502  0.33888834171E+02 -0.70354171333E+02  0.21403896877E+02  0.81078737699E+02  0.41800000000E+01 0.  1.
        -11    1    1    2    0    0 -0.11863037849E+03  0.22421532082E+02  0.78443253527E+02  0.14397651136E+03  0.00000000000E+00 0.  1.
         11    1    1    2    0    0 -0.24093186264E+02  0.60639024061E+02  0.71985309737E+02  0.97156871508E+02  0.00000000000E+00 0. -1.
</event>
<event>
 7    1  0.5109948E-006  0.1929847E+03  0.7561462E-02  0.1155797E+00
          2   -1    0    0  501    0  0.00000000000E+00  0.00000000000E+00  0.54869772470E+03  0.54869772470E+03  0.00000000000E+00 0. -1.
         -2   -1    0    0    0  501 -0.00000000000E+00 -0.00000000000E+00 -0.83873920930E+02  0.83873920930E+02  0.00000000000E+00 0.  1.
         23    2    1    2    0    0 -0.10927085346E+03 -0.13636060004E+03  0.32741255852E+03  0.39163855680E+03  0.12508973992E+03 0.  0.
          5    1    3    3  502    0 -0.11926940691E+03 -0.14763326342E+03  0.25700211747E+03  0.31951264870E+03  0.41800000000E+01 0. -1.
         -5    1    3    3    0  502  0.99985534528E+01  0.11272663373E+02  0.70410441047E+02  0.72125908099E+02  0.41800000000E+01 0. -1.
        -11    1    1    2    0    0  0.15866311422E+02  0.52923353222E+02  0.92758997091E+02  0.10796690556E+03  0.00000000000E+00 0. -1.
         11    1    1    2    0    0  0.93404542036E+02  0.83437246821E+02  0.44652248162E+02  0.13296618328E+03  0.00000000000E+00 0.  1.
</event>
<event>
 7    1  0.5109948E-006  0.1146239E+03  0.7561462E-02  0.1252239E+00
         -1   -1    0    0    0  501 -0.00000000000E+00  0.00000000000E+00  0.23920033349E+02  0.23920033349E+02  0.00000000000E+00 0.  1.
          1   -1    0    0  501    0  0.00000000000E+00 -0.00000000000E+00 -0.62604695636E+03  0.62604695636E+03  0.00000000000E+00 0. -1.
         23    2    1    2    0    0 -0.21757132959E+02 -0.41257992677E+02 -0.25372753173E+03  0.28670609023E+03  0.12508847678E+03 0.  0.
          5    1    3    3  502    0 -0.50142673548E+02  0.24710660877E+02 -0.71936265810E+02  0.91198701801E+02  0.41800000000E+01 0.  1.
         -5    1    3    3    0  502  0.28385540589E+02 -0.65968653555E+02 -0.18179126592E+03  0.19550738843E+03  0.41800000000E+01 0.  1.
        -11    1    1    2    0    0  0.40083005328E+02  0.61840263364E+02 -0.27956165186E+03  0.28911171315E+03  0.00000000000E+00 0.  1.
         11    1    1    2    0    0 -0.18325872369E+02 -0.20582270686E+02 -0.68837739424E+02  0.74149186332E+02  0.00000000000E+00 0. -1.
</event>
<event>
 7    1  0.5109948E-006  0.3285400E+03  0.7561462E-02  0.1071785E+00
          1   -1    0    0  501    0  0.00000000000E+00  0.00000000000E+00  0.68592567516E+03  0.68592567516E+03  0.00000000000E+00 0. -1.
         -1   -1    0    0    0  501 -0.00000000000E+00 -0.00000000000E+00 -0.18143723170E+03  0.18143723170E+03  0.00000000000E+00 0.  1.
         23    2    1    2    0    0 -0.17367926518E+03  0.26385198870E+03  0.11377149987E+03  0.35829299866E+03  0.12509020588E+03 0.  0.
          5    1    3    3  502    0 -0.17778115878E+03  0.17181515572E+03  0.76669714646E+02  0.25888666574E+03  0.41800000000E+01 0.  1.
         -5    1    3    3    0  502  0.41018936094E+01  0.92036832985E+02  0.37101785225E+02  0.99406332917E+02  0.41800000000E+01 0.  1.
        -11    1    1    2    0    0  0.83868938413E+02 -0.98101445895E+02  0.10316009564E+03  0.16522680730E+03  0.00000000000E+00 0. -1.
         11    1    1    2    0    0  0.89810326762E+02 -0.16575054281E+03  0.28755684795E+03  0.34384310091E+03  0.00000000000E+00 0.  1.
</event>
<event>
 7    1  0.5109948E-006  0.8205462E+02  0.7561462E-02  0.1323320E+00
         -1   -1    0    0    0  501 -0.00000000000E+00  0.00000000000E+00  0.22591140402E+02  0.22591140402E+02  0.00000000000E+00 0.  1.
          1   -1    0    0  501    0  0.00000000000E+00 -0.00000000000E+00 -0.64299586813E+03  0.64299586813E+03  0.00000000000E+00 0. -1.
         23    2    1    2    0    0 -0.50940808697E+02 -0.16117406250E+02 -0.36045654260E+03  0.38526766206E+03  0.12509002978E+03 0.  0.
          5    1    3    3  502    0 -0.45943233433E+02 -0.42270853568E+02 -0.71317031875E+02  0.94874639367E+02  0.41800000000E+01 0. -1.
         -5    1    3    3    0  502 -0.49975752639E+01  0.26153447318E+02 -0.28913951073E+03  0.29039302269E+03  0.41800000000E+01 0. -1.
        -11    1    1    2    0    0  0.13335070571E+02 -0.18946806324E+02 -0.10168035978E+02  0.25302065779E+02  0.00000000000E+00 0.  1.
         11    1    1    2    0    0  0.37605738126E+02  0.35064212574E+02 -0.24978014915E+03  0.25501728069E+03  0.00000000000E+00 0. -1.
</event>
<event>
 7    1  0.5109948E-006  0.1160666E+03  0.7561462E-02  0.1249731E+00
         -2   -1    0    0    0  501 -0.00000000000E+00  0.00000000000E+00  0.18164829119E+02  0.18164829119E+02  0.00000000000E+00 0.  1.
          2   -1    0    0  501    0  0.00000000000E+00 -0.00000000000E+00 -0.98798946496E+03  0.98798946496E+03  0.00000000000E+00 0. -1.
         23    2    1    2    0    0  0.70485833245E+02 -0.99674078472E+01 -0.66882557511E+03  0.68413633306E+03  0.12508904983E+03 0.  0.
          5    1    3    3  502    0  0.90859134694E+02 -0.26683725642E+02 -0.62960110757E+03  0.63669649804E+03  0.41800000000E+01 0. -1.
         -5    1    3    3    0  502 -0.20373301449E+02  0.16716317794E+02 -0.39224467546E+02  0.47439835021E+02  0.41800000000E+01 0. -1.
        -11    1    1    2    0    0 -0.89973570774E+02  0.13105087156E+02 -0.27313410078E+03  0.28787015086E+03  0.00000000000E+00 0. -1.
         11    1    1    2    0    0  0.19487737529E+02 -0.31376793083E+01 -0.27864959950E+02  0.34147810156E+02  0.00000000000E+00 0.  1.
</event>
<event>
 7    1  0.5109948E-006  0.1063709E+03  0.7561462E-02  0.1267442E+00
          1   -1    0    0  501    0  0.00000000000E+00  0.00000000000E+00  0.43762228885E+03  0.43762228885E+03  0.00000000000E+00 0. -1.
         -1   -1    0    0    0  501 -0.00000000000E+00 -0.00000000000E+00 -0.27847740499E+02  0.27847740499E+02  0.00000000000E+00 0.  1.
         23    2    1    2    0    0 -0.83421137223E+01  0.16332890807E+02  0.24626447249E+03  0.27682028414E+03  0.12508766972E+03 0.  0.
          5    1    3    3  502    0  0.28167568611E+02 -0.45757558581E+02  0.11601780579E+03  0.12792485978E+03  0.41800000000E+01 0.  1.
         -5    1    3    3    0  502 -0.36509682334E+02  0.62090449388E+02  0.13024666669E+03  0.14889542435E+03  0.41800000000E+01 0.  1.
        -11    1    1    2    0    0 -0.37734488032E+02 -0.14983817106E+02  0.11394588394E+03  0.12096309697E+03  0.00000000000E+00 0.  1.
         11    1    1    2    0    0  0.46076601755E+02 -0.13490737004E+01  0.49564191932E+02  0.67686648247E+02  0.00000000000E+00 0. -1.
</event>
<event>
 7    1  0.5109948E-006  0.1245365E+03  0.7561462E-02  0.1235795E+00
          3   -1    0    0  501    0  0.00000000000E+00  0.00000000000E+00  0.25925249437E+03  0.25925249437E+03  0.00000000000E+00 0. -1.
         -3   -1    0    0    0  501 -0.00000000000E+00 -0.00000000000E+00 -0.95170671313E+02  0.95170671313E+02  0.00000000000E+00 0.  1.
         23    2    1    2    0    0  0.92805564934E+02  0.33058313525E+02  0.23093353452E+02  0.16089311668E+03  0.12509023562E+03 0.  0.
          5    1    3    3  502    0  0.60285897517E+02 -0.38581352842E+02  0.37327646655E+02  0.80831527459E+02  0.41800000000E+01 0. -1.
         -5    1    3    3    0  502  0.32519667417E+02  0.71639666368E+02 -0.14234293203E+02  0.80061589225E+02  0.41800000000E+01 0. -1.
        -11    1    1    2    0    0 -0.53027194077E+02 -0.20875294662E+02  0.14083436070E+03  0.15192754323E+03  0.00000000000E+00 0.  1.
         11    1    1    2    0    0 -0.39778370858E+02 -0.12183018863E+02  0.15410890631E+00  0.41602505769E+02  0.00000000000E+00 0. -1.
</event>
<event>
 7    1  0.5109948E-006  0.7105269E+02  0.7561462E-02  0.1356549E+00
         -1   -1    0    0    0  501 -0.00000000000E+00  0.00000000000E+00  0.63358668077E+02  0.63358668077E+02  0.00000000000E+00 0.  1.
          1   -1    0    0  501    0  0.00000000000E+00 -0.00000000000E+00 -0.19428973039E+03  0.19428973039E+03  0.00000000000E+00 0. -1.
         23    2    1    2    0    0  0.30082304725E+02 -0.18849566808E+01 -0.44137819009E+02  0.12816221437E+03  0.11648565579E+03 0.  0.
          5    1    3    3  502    0  0.37587002619E+02 -0.37173996959E+02  0.18157670885E+02  0.56052316881E+02  0.41800000000E+01 0. -1.
         -5    1    3    3    0  502 -0.75046978936E+01  0.35289040278E+02 -0.62295489894E+02  0.72109897486E+02  0.41800000000E+01 0.  1.
        -11    1    1    2    0    0 -0.25213757404E+02  0.21134808736E+02 -0.10024292377E+03  0.10550382680E+03  0.00000000000E+00 0. -1.
         11    1    1    2    0    0 -0.48685473212E+01 -0.19249852055E+02  0.13449680467E+02  0.23982357304E+02  0.00000000000E+00 0.  1.
</event>
<event>
 7    1  0.5109948E-006  0.1813813E+03  0.7561462E-02  0.1166473E+00
         -2   -1    0    0    0  501 -0.00000000000E+00  0.00000000000E+00  0.62020026123E+02  0.62020026123E+02  0.00000000000E+00 0.  1.
          2   -1    0    0  501    0  0.00000000000E+00 -0.00000000000E+00 -0.67282744599E+03  0.67282744599E+03  0.00000000000E+00 0. -1.
         23    2    1    2    0    0  0.88253146681E+02 -0.13742615657E+03 -0.22030678609E+03  0.30142273806E+03  0.12508405419E+03 0.  0.
          5    1    3    3  502    0 -0.90519221371E+01 -0.27325961293E+02 -0.11997303802E+03  0.12344896802E+03  0.41800000000E+01 0. -1.
         -5    1    3    3    0  502  0.97305068819E+02 -0.11010019528E+03 -0.10033374808E+03  0.17797377004E+03  0.41800000000E+01 0. -1.
        -11    1    1    2    0    0 -0.91739349956E+02  0.60990239733E+02 -0.25571705603E+03  0.27843694154E+03  0.00000000000E+00 0. -1.
         11    1    1    2    0    0  0.34862032744E+01  0.76435916839E+02 -0.13478357774E+03  0.15498779250E+03  0.00000000000E+00 0.  1.
</event>
<event>
 7    1  0.5109948E-006  0.6847919E+02  0.7561462E-02  0.1365342E+00
          3   -1    0    0  501    0  0.00000000000E+00  0.00000000000E+00  0.21445302000E+02  0.21445302000E+02  0.00000000000E+00 0. -1.
         -3   -1    0    0    0  501 -0.00000000000E+00 -0.00000000000E+00 -0.88993483944E+03  0.88993483944E+03  0.00000000000E+00 0.  1.
         23    2    1    2    0    0  0.44984978753E+02  0.17010081750E+00 -0.69902249192E+03  0.71155962928E+03  0.12514385550E+03 0.  0.
          5    1    3    3  502    0  0.52813225809E+02 -0.53695724691E+01 -0.10770424463E+03  0.12014884869E+03  0.41800000000E+01 0.  1.
         -5    1    3    3    0  502 -0.78282470566E+01  0.55396732866E+01 -0.59131824728E+03  0.59141078059E+03  0.41800000000E+01 0.  1.
        -11    1    1    2    0    0 -0.38560725617E+01  0.24822378114E+02 -0.14241124452E+03  0.14460975871E+03  0.00000000000E+00 0.  1.
         11    1    1    2    0    0 -0.41128906191E+02 -0.24992478932E+02 -0.27055801004E+02  0.55210753442E+02  0.00000000000E+00 0. -1.
</event>
<event>
 7    1  0.5109948E-006  0.1338042E+03  0.7561462E-02  0.1221918E+00
          2   -1    0    0  501    0  0.00000000000E+00  0.00000000000E+00  0.82670800467E+03  0.82670800467E+03  0.00000000000E+00 0. -1.
         -2   -1    0    0    0  501 -0.00000000000E+00 -0.00000000000E+00 -0.31697091889E+02  0.31697091889E+02  0.00000000000E+00 0.  1.
         23    2    1    2    0    0  0.81551173087E+02 -0.79873113487E+02  0.32412992712E+03  0.36569557829E+03  0.12507093282E+03 0.  0.
          5    1    3    3  502    0  0.80638385508E+02 -0.10082976917E+03  0.18927082220E+03  0.22915084137E+03  0.41800000000E+01 0. -1.
         -5    1    3    3    0  502  0.91278757991E+00  0.20956655680E+02  0.13485910492E+03  0.13654473691E+03  0.41800000000E+01 0. -1.
        -11    1    1    2    0    0 -0.13033513737E+02  0.28711754811E+02  0.29695552243E+02  0.43313544852E+02  0.00000000000E+00 0.  1.
         11    1    1    2    0    0 -0.68517659351E+02  0.51161358677E+02  0.44118543343E+03  0.44939597343E+03  0.00000000000E+00 0. -1.
</event>
<event>
 7    1  0.5109948E-006  0.1263544E+03  0.7561462E-02  0.1232968E+00
         -3   -1    0    0    0  501 -0.00000000000E+00  0.00000000000E+00  0.39825987604E+02  0.39825987604E+02  0.00000000000E+00 0.  1.
          3   -1    0    0  501    0  0.00000000000E+00 -0.00000000000E+00 -0.44402207227E+03  0.44402207227E+03  0.00000000000E+00 0. -1.
         23    2    1    2    0    0  0.56432783427E+02 -0.44580304169E+02 -0.17235495407E+03  0.22477825966E+03  0.12508786214E+03 0.  0.
          5    1    3    3  502    0 -0.10177594354E+02  0.33650700386E+02 -0.19119273420E+02  0.40236452123E+02  0.41800000000E+01 0.  1.
         -5    1    3    3    0  502  0.66610377781E+02 -0.78231004556E+02 -0.15323568065E+03  0.18454180753E+03  0.41800000000E+01 0.  1.
        -11    1    1    2    0    0  0.11598248373E+02  0.44968924675E+02 -0.76640546371E+02  0.89613039787E+02  0.00000000000E+00 0.  1.
         11    1    1    2    0    0 -0.68031031800E+02 -0.38862050556E+00 -0.15520058422E+03  0.16945676043E+03  0.00000000000E+00 0. -1.
</event>
<event>
 7    1  0.5109948E-006  0.1075022E+03  0.7561462E-02  0.1265267E+00
          1   -1    0    0  501    0  0.00000000000E+00  0.00000000000E+00  0.24948798735E+03  0.24948798735E+03  0.00000000000E+00 0. -1.
         -1   -1    0    0    0  501 -0.00000000000E+00 -0.00000000000E+00 -0.81591887118E+02  0.81591887118E+02  0.00000000000E+00 0.  1.
         23    2    1    2    0    0 -0.68706227858E+02 -0.29854804494E+02  0.26488218301E+02  0.14707733583E+03  0.12376696614E+03 0.  0.
          5    1    3    3  502    0 -0.83258019652E+02 -0.24726330319E+02  0.62895409578E+02  0.10731539588E+03  0.41800000000E+01 0. -1.
         -5    1    3    3    0  502  0.14551791794E+02 -0.51284741747E+01 -0.36407191277E+02  0.39761939949E+02  0.41800000000E+01 0.  1.
        -11    1    1    2    0    0  0.37828131799E+02  0.58685686768E+02  0.11387889126E+03  0.13357911237E+03  0.00000000000E+00 0.  1.
         11    1    1    2    0    0  0.30878096060E+02 -0.28830882274E+02  0.27528990667E+02  0.50423426263E+02  0.00000000000E+00 0. -1.
</event>
<event>
 7    1  0.5109948E-006  0.9108721E+02  0.7561462E-02  0.1300240E+00
          2   -1    0    0  501    0  0.00000000000E+00  0.00000000000E+00  0.59881822983E+03  0.59881822983E+03  0.00000000000E+00 0. -1.
         -2   -1    0    0    0  501 -0.00000000000E+00 -0.00000000000E+00 -0.27049222709E+02  0.27049222709E+02  0.00000000000E+00 0.  1.
         23    2    1    2    0    0  0.43655867581E+02  0.19049415778E+02  0.20640344001E+03  0.24600616884E+03  0.12509172650E+03 0.  0.
          5    1    3    3  502    0  0.69758611160E+02 -0.27367182759E+01  0.50195092268E+02  0.86085847534E+02  0.41800000000E+01 0.  1.
         -5    1    3    3    0  502 -0.26102743579E+02  0.21786134054E+02  0.15620834775E+03  0.15992032130E+03  0.41800000000E+01 0.  1.
        -11    1    1    2    0    0  0.15914296766E+02 -0.21388470957E+01  0.95187788668E+01  0.18666726001E+02  0.00000000000E+00 0.  1.
         11    1    1    2    0    0 -0.59570164347E+02 -0.16910568682E+02  0.35584678824E+03  0.36119455771E+03  0.00000000000E+00 0. -1.
</event>
<event>
 7    1  0.5109948E-006  0.1699614E+03  0.7561462E-02  0.1177888E+00
         -2   -1    0    0    0  501 -0.00000000000E+00  0.00000000000E+00  0.36458861739E+02  0.36458861739E+02  0.00000000000E+00 0. -1.
          2   -1    0    0  501    0  0.00000000000E+00 -0.00000000000E+00 -0.99998509358E+03  0.99998509358E+03  0.00000000000E+00 0.  1.
         23    2    1    2    0    0 -0.29718512536E+02  0.15154441801E+03 -0.42232433062E+03  0.46674856729E+03  0.12508990451E+03 0.  0.
          5    1    3    3  502    0 -0.43070891540E+02  0.10084764627E+03 -0.38970631988E+03  0.40486273922E+03  0.41800000000E+01 0.  1.
         -5    1    3    3    0  502  0.13352379003E+02  0.50696771746E+02 -0.32618010744E+02  0.61885828067E+02  0.41800000000E+01 0.  1.
        -11    1    1    2    0    0  0.46153297896E+02 -0.15418580136E+03 -0.47964390133E+03  0.50592653649E+03  0.00000000000E+00 0.  1.
         11    1    1    2    0    0 -0.16434785359E+02  0.26413833514E+01 -0.61557999886E+02  0.63768851533E+02  0.00000000000E+00 0. -1.
</event>
<event>
 6    1  0.5109948E-006  0.1154704E+03  0.7561462E-02  0.1250762E+00
         -1   -1    0    0    0  501 -0.00000000000E+00  0.00000000000E+00  0.14306717235E+04  0.14306717235E+04  0.00000000000E+00 0.  1.
          1   -1    0    0  501    0  0.00000000000E+00 -0.00000000000E+00 -0.15335978341E+02  0.15335978341E+02  0.00000000000E+00 0. -1.
          5    1    1    2  502    0 -0.61459005784E+02  0.33625768319E+02  0.52091126697E+03  0.52561765775E+03  0.41800000000E+01 0. -1.
         -5    1    1    2    0  502  0.66846433347E+02  0.31516681679E+00  0.69353888304E+03  0.69676552704E+03  0.41800000000E+01 0.  1.
        -11    1    1    2    0    0  0.30259080573E+02  0.14568637688E+02  0.10655661372E+03  0.11172362815E+03  0.00000000000E+00 0.  1.
         11    1    1    2    0    0 -0.35646508135E+02 -0.48509572824E+02  0.94328981456E+02  0.11190088892E+03  0.00000000000E+00 0. -1.
</event>
<event>
 7    1  0.5109948E-006  0.2502300E+03  0.7561462E-02  0.1113160E+00
          2   -1    0    0  501    0  0.00000000000E+00  0.00000000000E+00  0.17492949749E+03  0.17492949749E+03  0.00000000000E+00 0.  1.
         -2   -1    0    0    0  501 -0.00000000000E+00 -0.00000000000E+00 -0.38527955496E+03  0.38527955496E+03  0.00000000000E+00 0. -1.
         23    2    1    2    0    0 -0.21811451528E+03 -0.74801635652E+02 -0.15983616292E+03  0.30718792475E+03  0.12509034999E+03 0.  0.
          5    1    3    3  502    0 -0.11755436226E+03 -0.10445639927E+03 -0.91910216830E+02  0.18219530124E+03  0.41800000000E+01 0.  1.
         -5    1    3    3    0  502 -0.10056015302E+03  0.29654763613E+02 -0.67925946091E+02  0.12499262351E+03  0.41800000000E+01 0.  1.
        -11    1    1    2    0    0  0.17222605638E+02  0.26498939043E+02 -0.32953390507E+02  0.45658929699E+02  0.00000000000E+00 0. -1.
         11    1    1    2    0    0  0.20089190965E+03  0.48302696609E+02 -0.17560504045E+02  0.20736219801E+03  0.00000000000E+00 0.  1.
</event>
<event>
 7    1  0.5109948E-006  0.1142082E+03  0.7561462E-02  0.1252969E+00
         -2   -1    0    0    0  501 -0.00000000000E+00  0.00000000000E+00  0.14832909480E+03  0.14832909480E+03  0.00000000000E+00 0.  1.
          2   -1    0    0  501    0  0.00000000000E+00 -0.00000000000E+00 -0.14362390202E+03  0.14362390202E+03  0.00000000000E+00 0. -1.
         23    2    1    2    0    0  0.87671077448E+02  0.44815800006E+02  0.36381378508E+02  0.15223217776E+03  0.11025587282E+03 0.  0.
          5    1    3    3  502    0  0.64362387995E+02  0.57698346777E+02  0.68449929611E+02  0.11033803276E+03  0.41800000000E+01 0. -1.
         -5    1    3    3    0  502  0.23308689453E+02 -0.12882546772E+02 -0.32068551102E+02  0.41894144998E+02  0.41800000000E+01 0.  1.
        -11    1    1    2    0    0 -0.21928935125E+02 -0.44011475702E+02  0.22928827645E+02  0.54255131798E+02  0.00000000000E+00 0.  1.
         11    1    1    2    0    0 -0.65742142324E+02 -0.80432430346E+00 -0.54605013365E+02  0.85465687264E+02  0.00000000000E+00 0. -1.
</event>
<event>
 7    1  0.5109948E-006  0.1265248E+03  0.7561462E-02  0.1232705E+00
         -3   -1    0    0    0  501 -0.00000000000E+00  0.00000000000E+00  0.37697200038E+03  0.37697200038E+03  0.00000000000E+00 0.  1.
          3   -1    0    0  501    0  0.00000000000E+00 -0.00000000000E+00 -0.61721974388E+02  0.61721974388E+02  0.00000000000E+00 0. -1.
         23    2    1    2    0    0 -0.15025965719E+02  0.65680296808E+02  0.28808359155E+03  0.32122212272E+03  0.12510721549E+03 0.  0.
          5    1    3    3  502    0  0.41015653851E+02 -0.14914393863E+02  0.88330960730E+02  0.98613153426E+02  0.41800000000E+01 0. -1.
         -5    1    3    3    0  502 -0.56041619570E+02  0.80594690671E+02  0.19975263082E+03  0.22260896929E+03  0.41800000000E+01 0. -1.
        -11    1    1    2    0    0 -0.35730865262E+02 -0.41404792855E+02 -0.67976541399E+00  0.54694731782E+02  0.00000000000E+00 0. -1.
         11    1    1    2    0    0  0.50756830981E+02 -0.24275503953E+02  0.27846199859E+02  0.62777120275E+02  0.00000000000E+00 0.  1.
</event>
<event>
 7    1  0.5109948E-006  0.7073858E+02  0.7561462E-02  0.1357599E+00
          1   -1    0    0  501    0  0.00000000000E+00  0.00000000000E+00  0.52343455231E+02  0.52343455231E+02  0.00000000000E+00 0. -1.
         -1   -1    0    0    0  501 -0.00000000000E+00 -0.00000000000E+00 -0.25743736201E+03  0.25743736201E+03  0.00000000000E+00 0.  1.
         23    2    1    2    0    0  0.39986002725E+02 -0.51477651469E+01 -0.12091177829E+03  0.17858472552E+03  0.12508983237E+03 0.  0.
          5    1    3    3  502    0  0.13113295835E+02 -0.15583114868E+02 -0.14143289783E+03  0.14295289079E+03  0.41800000000E+01 0.  1.
         -5    1    3    3    0  502  0.26872706890E+02  0.10435349721E+02  0.20521119540E+02  0.35631834735E+02  0.41800000000E+01 0.  1.
        -11    1    1    2    0    0 -0.60576343404E+02 -0.15362924612E+02 -0.29143600599E+02  0.68955509488E+02  0.00000000000E+00 0. -1.
         11    1    1    2    0    0  0.20590340679E+02  0.20510689759E+02 -0.55038527889E+02  0.62240582226E+02  0.00000000000E+00 0.  1.
</event>
<event>
 7    1  0.5109948E-006  0.9826769E+02  0.7561462E-02  0.1283981E+00
          2   -1    0    0  501    0  0.00000000000E+00  0.00000000000E+00  0.14696406782E+03  0.14696406782E+03  0.00000000000E+00 0. -1.
         -2   -1    0    0    0  501 -0.00000000000E+00 -0.00000000000E+00 -0.85978174397E+02  0.85978174397E+02  0.00000000000E+00 0.  1.
         23    2    1    2    0    0  0.54847242922E+01 -0.24815413877E+02  0.15915684293E+02  0.12863376152E+03  0.12508976229E+03 0.  0.
          5    1    3    3  502    0 -0.35468207923E+02  0.37685027980E+02 -0.90561972349E+00  0.51927330513E+02  0.41800000000E+01 0. -1.
         -5    1    3    3    0  502  0.40952932215E+02 -0.62500441857E+02  0.16821304017E+02  0.76706431009E+02  0.41800000000E+01 0. -1.
        -11    1    1    2    0    0 -0.27685494323E+02  0.35597443496E+02  0.60307127376E+02  0.75303480608E+02  0.00000000000E+00 0. -1.
         11    1    1    2    0    0  0.22200770031E+02 -0.10782029619E+02 -0.15236918243E+02  0.29005000090E+02  0.00000000000E+00 0.  1.
</event>
<event>
 7    1  0.5109948E-006  0.1212433E+03  0.7561462E-02  0.1241060E+00
          1   -1    0    0  501    0  0.00000000000E+00  0.00000000000E+00  0.77280906803E+02  0.77280906803E+02  0.00000000000E+00 0. -1.
         -1   -1    0    0    0  501 -0.00000000000E+00 -0.00000000000E+00 -0.22471806756E+03  0.22471806756E+03  0.00000000000E+00 0.  1.
         23    2    1    2    0    0  0.66965760162E+02  0.20692054501E+02 -0.11528256157E+03  0.18398481501E+03  0.12509104284E+03 0.  0.
          5    1    3    3  502    0  0.62055542385E+02 -0.37108042560E+02 -0.10067543589E+03  0.12401980872E+03  0.41800000000E+01 0.  1.
         -5    1    3    3    0  502  0.49102177766E+01  0.57800097062E+02 -0.14607125680E+02  0.59965006292E+02  0.41800000000E+01 0.  1.
        -11    1    1    2    0    0 -0.84270572558E+02  0.84544587420E+00 -0.15305180873E+02  0.85653328829E+02  0.00000000000E+00 0.  1.
         11    1    1    2    0    0  0.17304812396E+02 -0.21537500376E+02 -0.16849418312E+02  0.32360830520E+02  0.00000000000E+00 0. -1.
</event>
<event>
 7    1  0.5109948E-006  0.1706257E+03  0.7561462E-02  0.1177197E+00
          2   -1    0    0  501    0  0.00000000000E+00  0.00000000000E+00  0.27189918314E+03  0.27189918314E+03  0.00000000000E+00 0. -1.
         -2   -1    0    0    0  501 -0.00000000000E+00 -0.00000000000E+00 -0.12422144764E+03  0.12422144764E+03  0.00000000000E+00 0.  1.
         23    2    1    2    0    0 -0.96853267940E+02 -0.11154483381E+03  0.68806772640E+02  0.20543537473E+03  0.12508603347E+03 0.  0.
          5    1    3    3  502    0 -0.23328204801E+02  0.27207476699E+02  0.18113252993E+02  0.40373435097E+02  0.41800000000E+01 0.  1.
         -5    1    3    3    0  502 -0.73525063139E+02 -0.13875231051E+03  0.50693519647E+02  0.16506193963E+03  0.41800000000E+01 0.  1.
        -11    1    1    2    0    0  0.51839138013E+02  0.51843239731E+02 -0.10609033009E+02  0.74078129816E+02  0.00000000000E+00 0.  1.
         11    1    1    2    0    0  0.45014129928E+02  0.59701594080E+02  0.89479995862E+02  0.11660712623E+03  0.00000000000E+00 0. -1.
</event>
<event>
 7    1  0.5109948E-006  0.1304726E+03  0.7561462E-02  0.1226756E+00
          3   -1    0    0  501    0  0.00000000000E+00  0.00000000000E+00  0.13984579264E+03  0.13984579264E+03  0.00000000000E+00 0. -1.
         -3   -1    0    0    0  501 -0.00000000000E+00 -0.00000000000E+00 -0.18870458592E+03  0.18870458592E+03  0.00000000000E+00 0.  1.
         23    2    1    2    0    0 -0.21683194192E+02 -0.11555595257E+03 -0.52854428893E+02  0.17962411713E+03  0.12509154135E+03 0.  0.
          5    1    3    3  502    0  0.15421606455E+02 -0.86571733517E+02  0.22324003358E+02  0.90820286917E+02  0.41800000000E+01 0. -1.
         -5    1    3    3    0  502 -0.37104800647E+02 -0.28984219049E+02 -0.75178432251E+02  0.88803830214E+02  0.41800000000E+01 0. -1.
        -11    1    1    2    0    0 -0.11119495837E+02  0.94849997827E+01 -0.29528978296E+02  0.32947973652E+02  0.00000000000E+00 0.  1.
         11    1    1    2    0    0  0.32802690029E+02  0.10607095278E+03  0.33524613916E+02  0.11597828778E+03  0.00000000000E+00 0. -1.
</event>
<event>
 7    1  0.5109948E-006  0.1428910E+03  0.7561462E-02  0.1209491E+00
         -2   -1    0    0    0  501 -0.00000000000E+00  0.00000000000E+00  0.23880178363E+02  0.23880178363E+02  0.00000000000E+00 0.  1.
          2   -1    0    0  501    0  0.00000000000E+00 -0.00000000000E+00 -0.11276350938E+04  0.11276350938E+04  0.00000000000E+00 0. -1.
         23    2    1    2    0    0 -0.64742681010E+02 -0.87194155893E+02 -0.38912725512E+03  0.42292003428E+03  0.12508756595E+03 0.  0.
          5    1    3    3  502    0 -0.14502530647E+02 -0.93656472496E+02 -0.33707091748E+03  0.35016586648E+03  0.41800000000E+01 0.  1.
         -5    1    3    3    0  502 -0.50240150363E+02  0.64623166031E+01 -0.52056337637E+02  0.72754167802E+02  0.41800000000E+01 0.  1.
        -11    1    1    2    0    0 -0.15861981132E+02  0.47822661594E+02 -0.20275952793E+03  0.20892590929E+03  0.00000000000E+00 0.  1.
         11    1    1    2    0    0  0.80604662142E+02  0.39371494299E+02 -0.51186813241E+03  0.51966932861E+03  0.00000000000E+00 0. -1.
</event>
<event>
 7    1  0.5109948E-006  0.1187263E+03  0.7561462E-02  0.1245213E+00
         -4   -1    0    0    0  501 -0.00000000000E+00  0.00000000000E+00  0.20892717495E+03  0.20892717495E+03  0.00000000000E+00 0.  1.
          4   -1    0    0  501    0  0.00000000000E+00 -0.00000000000E+00 -0.89158523471E+02  0.89158523471E+02  0.00000000000E+00 0. -1.
         23    2    1    2    0    0  0.31067486134E+02  0.72701296834E+02  0.88936148372E+02  0.17265038870E+03  0.12509137050E+03 0.  0.
          5    1    3    3  502    0 -0.32933597367E+02 -0.16400999305E+02  0.13351756650E+02  0.39361865039E+02  0.41800000000E+01 0.  1.
         -5    1    3    3    0  502  0.64001083501E+02  0.89102296139E+02  0.75584391722E+02  0.13328852366E+03  0.41800000000E+01 0.  1.
        -11    1    1    2    0    0 -0.36205239568E+02 -0.28331334254E+02  0.57341254812E+02  0.73494920751E+02  0.00000000000E+00 0.  1.
         11    1    1    2    0    0  0.51377534343E+01 -0.44369962580E+02 -0.26508751706E+02  0.51940388973E+02  0.00000000000E+00 0. -1.
</event>
<event>
 7    1  0.5109948E-006  0.1224696E+03  0.7561462E-02  0.1239078E+00
         -2   -1    0    0    0  501 -0.00000000000E+00  0.00000000000E+00  0.39840218866E+02  0.39840218866E+02  0.00000000000E+00 0.  1.
          2   -1    0    0  501    0  0.00000000000E+00 -0.00000000000E+00 -0.49769362449E+03  0.49769362449E+03  0.00000000000E+00 0. -1.
         23    2    1    2    0    0  0.65721335905E+02  0.19180741976E+02 -0.12374800388E+03  0.18436888368E+03  0.11828407310E+03 0.  0.
          5    1    3    3  502    0  0.59364978870E+01  0.59668327272E+02 -0.33835189127E+02  0.68977124541E+02  0.41800000000E+01 0. -1.
         -5    1    3    3    0  502  0.59784838018E+02 -0.40487585297E+02 -0.89912814751E+02  0.11539175914E+03  0.41800000000E+01 0.  1.
        -11    1    1    2    0    0 -0.42170239806E+01  0.32131655534E+02 -0.12809858957E+03  0.13213430753E+03  0.00000000000E+00 0.  1.
         11    1    1    2    0    0 -0.61504311924E+02 -0.51312397509E+02 -0.20600681218E+03  0.22103065215E+03  0.00000000000E+00 0. -1.
</event>
<event>
 7    1  0.5109948E-006  0.1157600E+03  0.7561462E-02  0.1250260E+00
         -2   -1    0    0    0  501 -0.00000000000E+00  0.00000000000E+00  0.49294874580E+03  0.49294874580E+03  0.00000000000E+00 0.  1.
          2   -1    0    0  501    0  0.00000000000E+00 -0.00000000000E+00 -0.31010371000E+02  0.31010371000E+02  0.00000000000E+00 0. -1.
         23    2    1    2    0    0 -0.41171526481E+02 -0.12339284024E+02  0.33989441931E+03  0.36472351113E+03  0.12509065023E+03 0.  0.
          5    1    3    3  502    0  0.28144841542E+02  0.35246455746E+02  0.85437508150E+02  0.96703076202E+02  0.41800000000E+01 0. -1.
         -5    1    3    3    0  502 -0.69316368024E+02 -0.47585739770E+02  0.25445691116E+03  0.26802043493E+03  0.41800000000E+01 0. -1.
        -11    1    1    2    0    0  0.62095010920E+02  0.34932251072E+02  0.90111100783E+02  0.11487411819E+03  0.00000000000E+00 0. -1.
         11    1    1    2    0    0 -0.20923484438E+02 -0.22592967047E+02  0.31932854714E+02  0.44361487477E+02  0.00000000000E+00 0.  1.
</event>
<event>
 6    1  0.5109948E-006  0.7987398E+02  0.7561462E-02  0.1329409E+00
         -1   -1    0    0    0  501 -0.00000000000E+00  0.00000000000E+00  0.14122868892E+04  0.14122868892E+04  0.00000000000E+00 0.  1.
          1   -1    0    0  501    0  0.00000000000E+00 -0.00000000000E+00 -0.63558163772E+02  0.63558163772E+02  0.00000000000E+00 0. -1.
          5    1    1    2  502    0 -0.25831852570E+02 -0.25285294835E+02  0.13719528320E+03  0.14193889134E+03  0.41800000000E+01 0. -1.
         -5    1    1    2    0  502  0.52936307686E+02  0.59071113296E+02  0.12263479912E+04  0.12289176201E+04  0.41800000000E+01 0.  1.
        -11    1    1    2    0    0 -0.38023144470E+01 -0.96915112924E+01  0.39673172372E+02  0.41016381999E+02  0.00000000000E+00 0.  1.
         11    1    1    2    0    0 -0.23302140670E+02 -0.24094307169E+02 -0.54487721425E+02  0.63972159443E+02  0.00000000000E+00 0. -1.
</event>
<event>
 7    1  0.5109948E-006  0.8055509E+02  0.7561462E-02  0.1327484E+00
          1   -1    0    0  501    0  0.00000000000E+00  0.00000000000E+00  0.17770513269E+03  0.17770513269E+03  0.00000000000E+00 0. -1.
         -1   -1    0    0    0  501 -0.00000000000E+00 -0.00000000000E+00 -0.83128436848E+02  0.83128436848E+02  0.00000000000E+00 0.  1.
         23    2    1    2    0    0  0.37467686155E+02 -0.29363960933E+02  0.18379245347E+02  0.13509989900E+03  0.12509243120E+03 0.  0.
          5    1    3    3  502    0 -0.33338215256E+02 -0.23187998716E+02 -0.28559364388E+02  0.49821978836E+02  0.41800000000E+01 0.  1.
         -5    1    3    3    0  502  0.70805901411E+02 -0.61759622169E+01  0.46938609736E+02  0.85277920166E+02  0.41800000000E+01 0.  1.
        -11    1    1    2    0    0 -0.20072975407E+02  0.81737221011E+01 -0.17658068205E+02  0.27956062802E+02  0.00000000000E+00 0.  1.
         11    1    1    2    0    0 -0.17394710748E+02  0.21190238831E+02  0.93855518700E+02  0.97777607734E+02  0.00000000000E+00 0. -1.
</event>
<event>
 7    1  0.5109948E-006  0.1162213E+03  0.7561462E-02  0.1249464E+00
          2   -1    0    0  501    0  0.00000000000E+00  0.00000000000E+00  0.19754934954E+03  0.19754934954E+03  0.00000000000E+00 0. -1.
         -2   -1    0    0    0  501 -0.00000000000E+00 -0.00000000000E+00 -0.70657489896E+02  0.70657489896E+02  0.00000000000E+00 0.  1.
         23    2    1    2    0    0 -0.45297806258E+02 -0.10807658068E+02  0.56916732851E+02  0.14510321504E+03  0.12508689704E+03 0.  0.
          5    1    3    3  502    0 -0.43031750945E+02  0.53114286316E+02  0.37747047590E+02  0.78199558835E+02  0.41800000000E+01 0.  1.
         -5    1    3    3    0  502 -0.22660553123E+01 -0.63921944384E+02  0.19169685261E+02  0.66903656205E+02  0.41800000000E+01 0.  1.
        -11    1    1    2    0    0  0.71973058715E+02  0.28839130204E+01  0.40790113432E+02  0.82778448215E+02  0.00000000000E+00 0.  1.
         11    1    1    2    0    0 -0.26675252457E+02  0.79237450475E+01  0.29185013363E+02  0.40325176184E+02  0.00000000000E+00 0. -1.
</event>
<event>
 7    1  0.5109948E-006  0.1335585E+03  0.7561462E-02  0.1222269E+00
         -2   -1    0    0    0  501 -0.00000000000E+00  0.00000000000E+00  0.63000713458E+02  0.63000713458E+02  0.00000000000E+00 0.  1.
          2   -1    0    0  501    0  0.00000000000E+00 -0.00000000000E+00 -0.46600092984E+03  0.46600092984E+03  0.00000000000E+00 0. -1.
         23    2    1    2    0    0  0.16217227102E+02  0.11615907270E+03 -0.11965703334E+03  0.20909608406E+03  0.12508972026E+03 0.  0.
          5    1    3    3  502    0  0.21569731896E+02  0.72200367047E+02  0.60892800646E+01  0.75714582925E+02  0.41800000000E+01 0. -1.
         -5    1    3    3    0  502 -0.53525047935E+01  0.43958705656E+02 -0.12574631340E+03  0.13338150113E+03  0.41800000000E+01 0. -1.
        -11    1    1    2    0    0  0.35345823184E+02 -0.28233661307E+02 -0.10794032991E+03  0.11703666805E+03  0.00000000000E+00 0.  1.
         11    1    1    2    0    0 -0.51563050286E+02 -0.87925411396E+02 -0.17540285313E+03  0.20286889118E+03  0.00000000000E+00 0. -1.
</event>
<event>
 7    1  0.5109948E-006  0.1174602E+03  0.7561462E-02  0.1247347E+00
          2   -1    0    0  501    0  0.00000000000E+00  0.00000000000E+00  0.15622144644E+03  0.15622144644E+03  0.00000000000E+00 0.  1.
         -2   -1    0    0    0  501 -0.00000000000E+00 -0.00000000000E+00 -0.10706789880E+03  0.10706789880E+03  0.00000000000E+00 0. -1.
         23    2    1    2    0    0 -0.30901490898E+02 -0.49165875160E+02 -0.12098785173E+02  0.13844186860E+03  0.12509030722E+03 0.  0.
          5    1    3    3  502    0 -0.44620304298E+02  0.31726400632E+02 -0.12381007639E+02  0.56287634547E+02  0.41800000000E+01 0.  1.
         -5    1    3    3    0  502  0.13718813401E+02 -0.80892275792E+02  0.28222246581E+00  0.82154234057E+02  0.41800000000E+01 0.  1.
        -11    1    1    2    0    0  0.38141583603E+02 -0.90439116960E+01 -0.11338116399E+01  0.39215536046E+02  0.00000000000E+00 0. -1.
         11    1    1    2    0    0 -0.72400927057E+01  0.58209786856E+02  0.62386144458E+02  0.85631940586E+02  0.00000000000E+00 0.  1.
</event>
<event>
 7    1  0.5109948E-006  0.1043826E+03  0.7561462E-02  0.1271341E+00
         -2   -1    0    0    0  501 -0.00000000000E+00  0.00000000000E+00  0.74111963753E+02  0.74111963753E+02  0.00000000000E+00 0.  1.
          2   -1    0    0  501    0  0.00000000000E+00 -0.00000000000E+00 -0.31961784944E+03  0.31961784944E+03  0.00000000000E+00 0. -1.
         23    2    1    2    0    0 -0.36048530145E+02 -0.60771045438E+02 -0.26463902323E+02  0.14608392737E+03  0.12509020433E+03 0.  0.
          5    1    3    3  502    0  0.23491239593E+02 -0.25955180751E+02  0.37821849372E+02  0.51705651871E+02  0.41800000000E+01 0. -1.
         -5    1    3    3    0  502 -0.59539769738E+02 -0.34815864687E+02 -0.64285751696E+02  0.94378275495E+02  0.41800000000E+01 0. -1.
        -11    1    1    2    0    0 -0.99943829387E+01 -0.13638200544E+02 -0.91019980308E+02  0.92577130111E+02  0.00000000000E+00 0. -1.
         11    1    1    2    0    0  0.46042913084E+02  0.74409245982E+02 -0.12802200305E+03  0.15506875571E+03  0.00000000000E+00 0.  1.
</event>
<event>
 7    1  0.5109948E-006  0.1320244E+03  0.7561462E-02  0.1224482E+00
          2   -1    0    0  501    0  0.00000000000E+00  0.00000000000E+00  0.22438232508E+03  0.22438232508E+03  0.00000000000E+00 0.  1.
         -2   -1    0    0    0  501 -0.00000000000E+00 -0.00000000000E+00 -0.13523892578E+03  0.13523892578E+03  0.00000000000E+00 0. -1.
         23    2    1    2    0    0  0.80580823886E+02  0.88966149517E+02 -0.18926638925E+02  0.17439477545E+03  0.12508826925E+03 0.  0.
          5    1    3    3  502    0  0.91533088856E+02  0.63883524013E+02  0.32203634304E+02  0.11624954821E+03  0.41800000000E+01 0.  1.
         -5    1    3    3    0  502 -0.10952264970E+02  0.25082625503E+02 -0.51130273229E+02  0.58145227238E+02  0.41800000000E+01 0.  1.
        -11    1    1    2    0    0 -0.14303000363E+02 -0.39353264859E+02  0.91736429566E+02  0.10084060583E+03  0.00000000000E+00 0.  1.
         11    1    1    2    0    0 -0.66277823524E+02 -0.49612884658E+02  0.16333608662E+02  0.84385869593E+02  0.00000000000E+00 0. -1.
</event>
<event>
 7    1  0.5109948E-006  0.2592624E+03  0.7561462E-02  0.1107587E+00
          2   -1    0    0  501    0  0.00000000000E+00  0.00000000000E+00  0.17233644597E+03  0.17233644597E+03  0.00000000000E+00 0.  1.
         -2   -1    0    0    0  501 -0.00000000000E+00 -0.00000000000E+00 -0.44512789845E+03  0.44512789845E+03  0.00000000000E+00 0. -1.
         23    2    1    2    0    0 -0.20758680619E+03  0.12092700919E+03 -0.23115693227E+03  0.35608555210E+03  0.12509104454E+03 0.  0.
          5    1    3    3  502    0 -0.15987304434E+03  0.27134338651E+02 -0.16676720379E+03  0.23264658885E+03  0.41800000000E+01 0. -1.
         -5    1    3    3    0  502 -0.47713761848E+02  0.93792670541E+02 -0.64389728478E+02  0.12343896326E+03  0.41800000000E+01 0. -1.
        -11    1    1    2    0    0  0.31749396858E+02 -0.54416073494E+02  0.15524092405E+02  0.64885519959E+02  0.00000000000E+00 0.  1.
         11    1    1    2    0    0  0.17583740933E+03 -0.66510935699E+02 -0.57158612612E+02  0.19649327236E+03  0.00000000000E+00 0. -1.
</event>
<event>
 7    1  0.5109948E-006  0.7664312E+02  0.7561462E-02  0.1338857E+00
         -1   -1    0    0    0  501 -0.00000000000E+00  0.00000000000E+00  0.69634395687E+02  0.69634395687E+02  0.00000000000E+00 0.  1.
          1   -1    0    0  501    0  0.00000000000E+00 -0.00000000000E+00 -0.17821468030E+03  0.17821468030E+03  0.00000000000E+00 0. -1.
         23    2    1    2    0    0 -0.22988712094E+02  0.78913657883E+01 -0.60063582633E+02  0.14087755901E+03  0.12509235843E+03 0.  0.
          5    1    3    3  502    0 -0.87461958898E+01 -0.23947361488E+02 -0.90674406718E+02  0.94283044597E+02  0.41800000000E+01 0. -1.
         -5    1    3    3    0  502 -0.14242516205E+02  0.31838727276E+02  0.30610824085E+02  0.46594514415E+02  0.41800000000E+01 0. -1.
        -11    1    1    2    0    0 -0.85810530647E+01  0.36698446384E+02 -0.33212424083E+02  0.50234206993E+02  0.00000000000E+00 0. -1.
         11    1    1    2    0    0  0.31569765159E+02 -0.44589812173E+02 -0.15304277894E+02  0.56737309979E+02  0.00000000000E+00 0.  1.
</event>
<event>
 7    1  0.5109948E-006  0.9005964E+02  0.7561462E-02  0.1302707E+00
          1   -1    0    0  501    0  0.00000000000E+00  0.00000000000E+00  0.82888088977E+02  0.82888088977E+02  0.00000000000E+00 0. -1.
         -1   -1    0    0    0  501 -0.00000000000E+00 -0.00000000000E+00 -0.18453974265E+03  0.18453974265E+03  0.00000000000E+00 0.  1.
         23    2    1    2    0    0  0.49644708352E+02  0.34379230306E+02 -0.79507228474E+02  0.16004273304E+03  0.12508296636E+03 0.  0.
          5    1    3    3  502    0  0.54763884837E+02 -0.20690129064E+02  0.50608267872E+01  0.58908818448E+02  0.41800000000E+01 0.  1.
         -5    1    3    3    0  502 -0.51191764854E+01  0.55069359370E+02 -0.84568055261E+02  0.10113391459E+03  0.41800000000E+01 0.  1.
        -11    1    1    2    0    0 -0.11822838680E+02 -0.23983390564E+02 -0.51744644027E+02  0.58245091835E+02  0.00000000000E+00 0.  1.
         11    1    1    2    0    0 -0.37821869672E+02 -0.10395839742E+02  0.29600218828E+02  0.49140006757E+02  0.00000000000E+00 0. -1.
</event>
<event>
 7    1  0.5109948E-006  0.1112010E+03  0.7561462E-02  0.1258362E+00
         -2   -1    0    0    0  501 -0.00000000000E+00  0.00000000000E+00  0.11034383908E+03  0.11034383908E+03  0.00000000000E+00 0.  1.
          2   -1    0    0  501    0  0.00000000000E+00 -0.00000000000E+00 -0.25012611939E+03  0.25012611939E+03  0.00000000000E+00 0. -1.
         23    2    1    2    0    0  0.69860225098E+02 -0.38134331764E+02  0.28437264179E+02  0.15096533136E+03  0.12508866843E+03 0.  0.
          5    1    3    3  502    0 -0.50583081390E+01 -0.21724952007E+02 -0.41362503135E+02  0.47179329017E+02  0.41800000000E+01 0. -1.
         -5    1    3    3    0  502  0.74918533237E+02 -0.16409379757E+02  0.69799767314E+02  0.10378600235E+03  0.41800000000E+01 0. -1.
        -11    1    1    2    0    0  0.13660092166E+00 -0.27169472798E+02 -0.23141845425E+02  0.35689549193E+02  0.00000000000E+00 0.  1.
         11    1    1    2    0    0 -0.69996826019E+02  0.65303804562E+02 -0.14507769907E+03  0.17381507791E+03  0.00000000000E+00 0. -1.
</event>
<event>
 7    1  0.5109948E-006  0.8522563E+02  0.7561462E-02  0.1314844E+00
          1   -1    0    0  501    0  0.00000000000E+00  0.00000000000E+00  0.10422852773E+03  0.10422852773E+03  0.00000000000E+00 0. -1.
         -1   -1    0    0    0  501 -0.00000000000E+00 -0.00000000000E+00 -0.15412973960E+03  0.15412973960E+03  0.00000000000E+00 0.  1.
         23    2    1    2    0    0 -0.44211192505E+02  0.22772192426E+01 -0.74409007147E+02  0.15211533664E+03  0.12507022038E+03 0.  0.
          5    1    3    3  502    0 -0.28335652229E+02  0.27466277954E+02 -0.10315090412E+03  0.11052098006E+03  0.41800000000E+01 0. -1.
         -5    1    3    3    0  502 -0.15875540276E+02 -0.25189058712E+02  0.28741896975E+02  0.41594356583E+02  0.41800000000E+01 0. -1.
        -11    1    1    2    0    0  0.24626217471E+02 -0.46342731336E+02  0.74662097487E+00  0.52484824259E+02  0.00000000000E+00 0.  1.
         11    1    1    2    0    0  0.19584975033E+02  0.44065512093E+02  0.23761174295E+02  0.53758106430E+02  0.00000000000E+00 0. -1.
</event>
<event>
 7    1  0.5109948E-006  0.1413504E+03  0.7561462E-02  0.1211523E+00
          2   -1    0    0  501    0  0.00000000000E+00  0.00000000000E+00  0.69947343560E+03  0.69947343560E+03  0.00000000000E+00 0. -1.
         -2   -1    0    0    0  501 -0.00000000000E+00 -0.00000000000E+00 -0.29645012258E+02  0.29645012258E+02  0.00000000000E+00 0.  1.
         23    2    1    2    0    0  0.34744954364E+02  0.83637692744E+02  0.43065017484E+03  0.45750337034E+03  0.12508910935E+03 0.  0.
          5    1    3    3  502    0  0.39985275137E+02 -0.23840838336E+02  0.12853668912E+03  0.13677119817E+03  0.41800000000E+01 0. -1.
         -5    1    3    3    0  502 -0.52403207734E+01  0.10747853108E+03  0.30211348572E+03  0.32073217216E+03  0.41800000000E+01 0. -1.
        -11    1    1    2    0    0 -0.44659369978E+02 -0.61840413356E+00  0.94296135654E+02  0.10433888513E+03  0.00000000000E+00 0.  1.
         11    1    1    2    0    0  0.99144156140E+01 -0.83019288611E+02  0.14488211284E+03  0.16727619239E+03  0.00000000000E+00 0. -1.
</event>
<event>
 7    1  0.5109948E-006  0.1042520E+03  0.7561462E-02  0.1271600E+00
          2   -1    0    0  501    0  0.00000000000E+00  0.00000000000E+00  0.78049601305E+03  0.78049601305E+03  0.00000000000E+00 0.  1.
         -2   -1    0    0    0  501 -0.00000000000E+00 -0.00000000000E+00 -0.18990466283E+02  0.18990466283E+02  0.00000000000E+00 0. -1.
         23    2    1    2    0    0  0.21065289382E+02 -0.35293942766E+02  0.30408362450E+03  0.33136598155E+03  0.12508858552E+03 0.  0.
          5    1    3    3  502    0  0.54646751423E+02 -0.52801012914E+02  0.11115589920E+03  0.13471199179E+03  0.41800000000E+01 0. -1.
         -5    1    3    3    0  502 -0.33581462041E+02  0.17507070148E+02  0.19292772530E+03  0.19665398975E+03  0.41800000000E+01 0. -1.
        -11    1    1    2    0    0  0.97261309929E+01 -0.24875536001E+02  0.71531372053E+02  0.76355268994E+02  0.00000000000E+00 0. -1.
         11    1    1    2    0    0 -0.30791420375E+02  0.60169478766E+02  0.38589055022E+03  0.39176522880E+03  0.00000000000E+00 0.  1.
</event>
<event>
 7    1  0.5109948E-006  0.1058059E+03  0.7561462E-02  0.1268540E+00
         -1   -1    0    0    0  501 -0.00000000000E+00  0.00000000000E+00  0.16667284461E+02  0.16667284461E+02  0.00000000000E+00 0.  1.
          1   -1    0    0  501    0  0.00000000000E+00 -0.00000000000E+00 -0.10346499908E+04  0.10346499908E+04  0.00000000000E+00 0. -1.
         23    2    1    2    0    0  0.69391402162E+01 -0.73021801965E+02 -0.55091576573E+03  0.56969633479E+03  0.12516148652E+03 0.  0.
          5    1    3    3  502    0 -0.13252654822E+01  0.98497977922E+01  0.16207368391E+01  0.10902936900E+02  0.41800000000E+01 0.  1.
         -5    1    3    3    0  502  0.82644056984E+01 -0.82871599758E+02 -0.55253650257E+03  0.55879339789E+03  0.41800000000E+01 0.  1.
        -11    1    1    2    0    0  0.38073892746E+02  0.89030859980E+01 -0.14823516786E+03  0.15330541817E+03  0.00000000000E+00 0. -1.
         11    1    1    2    0    0 -0.45013032962E+02  0.64118715967E+02 -0.31883177271E+03  0.32831552227E+03  0.00000000000E+00 0.  1.
</event>
<event>
 7    1  0.5109948E-006  0.1572058E+03  0.7561462E-02  0.1191888E+00
          1   -1    0    0  501    0  0.00000000000E+00  0.00000000000E+00  0.37940073257E+03  0.37940073257E+03  0.00000000000E+00 0. -1.
         -1   -1    0    0    0  501 -0.00000000000E+00 -0.00000000000E+00 -0.66640490618E+02  0.66640490618E+02  0.00000000000E+00 0.  1.
         23    2    1    2    0    0 -0.10663291530E+03 -0.42458373205E+02  0.18608720977E+03  0.25189083806E+03  0.12508897865E+03 0.  0.
          5    1    3    3  502    0 -0.22152053746E+02  0.43027746796E+02  0.65912201738E+02  0.81877904330E+02  0.41800000000E+01 0.  1.
         -5    1    3    3    0  502 -0.84480861556E+02 -0.85486120001E+02  0.12017500803E+03  0.17001293373E+03  0.41800000000E+01 0.  1.
        -11    1    1    2    0    0  0.44715895709E+02 -0.27230833615E+02  0.59461700472E+02  0.79225775172E+02  0.00000000000E+00 0.  1.
         11    1    1    2    0    0  0.61917019593E+02  0.69689206821E+02  0.67211331718E+02  0.11492460996E+03  0.00000000000E+00 0. -1.
</event>
<event>
 7    1  0.5109948E-006  0.1463014E+03  0.7561462E-02  0.1205093E+00
         -1   -1    0    0    0  501 -0.00000000000E+00  0.00000000000E+00  0.41580109087E+03  0.41580109087E+03  0.00000000000E+00 0.  1.
          1   -1    0    0  501    0  0.00000000000E+00 -0.00000000000E+00 -0.55762871011E+02  0.55762871011E+02  0.00000000000E+00 0. -1.
         23    2    1    2    0    0 -0.10056373931E+03 -0.34156127015E+02  0.21635828033E+03  0.27011409563E+03  0.12194676099E+03 0.  0.
          5    1    3    3  502    0 -0.82186616819E+01 -0.59421306534E+02  0.11995937548E+03  0.13418704198E+03  0.41800000000E+01 0. -1.
         -5    1    3    3    0  502 -0.92345077626E+02  0.25265179519E+02  0.96398904849E+02  0.13592705365E+03  0.41800000000E+01 0.  1.
        -11    1    1    2    0    0  0.40706182770E+02  0.59125715932E+02  0.10061672728E+03  0.12359841992E+03  0.00000000000E+00 0.  1.
         11    1    1    2    0    0  0.59857556537E+02 -0.24969588917E+02  0.43063212254E+02  0.77851446326E+02  0.00000000000E+00 0. -1.
</event>
<event>
 7    1  0.5109948E-006  0.1093839E+03  0.7561462E-02  0.1261715E+00
         -1   -1    0    0    0  501 -0.00000000000E+00  0.00000000000E+00  0.16423679118E+03  0.16423679118E+03  0.00000000000E+00 0.  1.
          1   -1    0    0  501    0  0.00000000000E+00 -0.00000000000E+00 -0.14601097808E+03  0.14601097808E+03  0.00000000000E+00 0. -1.
         23    2    1    2    0    0  0.72773597308E+02 -0.14462971671E+02  0.90432708035E+02  0.17125956948E+03  0.12508633595E+03 0.  0.
          5    1    3    3  502    0  0.32050078064E+02 -0.48864578801E+02 -0.81079563931E+01  0.59145295013E+02  0.41800000000E+01 0. -1.
         -5    1    3    3    0  502  0.40723519244E+02  0.34401607129E+02  0.98540664428E+02  0.11211427446E+03  0.41800000000E+01 0. -1.
        -11    1    1    2    0    0 -0.75879731142E+01  0.36974243811E+02  0.18544357326E+01  0.37790355559E+02  0.00000000000E+00 0.  1.
         11    1    1    2    0    0 -0.65185624194E+02 -0.22511272139E+02 -0.74061330666E+02  0.10119784422E+03  0.00000000000E+00 0. -1.
</event>
<event>
 7    1  0.5109948E-006  0.9200627E+02  0.7561462E-02  0.1298065E+00
         -2   -1    0    0    0  501 -0.00000000000E+00  0.00000000000E+00  0.60577144253E+02  0.60577144253E+02  0.00000000000E+00 0.  1.
          2   -1    0    0  501    0  0.00000000000E+00 -0.00000000000E+00 -0.23631487416E+03  0.23631487416E+03  0.00000000000E+00 0. -1.
         23    2    1    2    0    0  0.10063153595E+02 -0.82356971016E+01 -0.38335666183E+02  0.13148019497E+03  0.12509326361E+03 0.  0.
          5    1    3    3  502    0 -0.56050748634E+02  0.96386505464E+01 -0.14479834331E+02  0.58836451364E+02  0.41800000000E+01 0.  1.
         -5    1    3    3    0  502  0.66113902229E+02 -0.17874347648E+02 -0.23855831852E+02  0.72643743606E+02  0.41800000000E+01 0.  1.
        -11    1    1    2    0    0  0.21423552515E+02  0.15016352164E+02 -0.12967707559E+03  0.13228984605E+03  0.00000000000E+00 0. -1.
         11    1    1    2    0    0 -0.31486706109E+02 -0.67806550626E+01 -0.77249881337E+01  0.33121977392E+02  0.00000000000E+00 0.  1.
</event>
<event>
 7    1  0.5109948E-006  0.1708484E+03  0.7561462E-02  0.1176966E+00
          2   -1    0    0  501    0  0.00000000000E+00  0.00000000000E+00  0.16514488553E+03  0.16514488553E+03  0.00000000000E+00 0. -1.
         -2   -1    0    0    0  501 -0.00000000000E+00 -0.00000000000E+00 -0.28141799264E+03  0.28141799264E+03  0.00000000000E+00 0.  1.
         23    2    1    2    0    0  0.11423237180E+03  0.83957935672E+02 -0.18463646601E+03  0.26426418096E+03  0.12508782125E+03 0.  0.
          5    1    3    3  502    0 -0.21067709890E+01  0.56390531231E+02 -0.10875523434E+03  0.12259487710E+03  0.41800000000E+01 0.  1.
         -5    1    3    3    0  502  0.11633914279E+03  0.27567404442E+02 -0.75881231675E+02  0.14166930385E+03  0.41800000000E+01 0.  1.
        -11    1    1    2    0    0 -0.12696937591E+03 -0.84848520609E+02  0.51528669287E+02  0.16116977889E+03  0.00000000000E+00 0.  1.
         11    1    1    2    0    0  0.12737004109E+02  0.89058493656E+00  0.16834689608E+02  0.21128918321E+02  0.00000000000E+00 0. -1.
</event>
<event>
 7    1  0.5109948E-006  0.1354626E+03  0.7561462E-02  0.1219568E+00
         -1   -1    0    0    0  501 -0.00000000000E+00  0.00000000000E+00  0.81654500424E+02  0.81654500424E+02  0.00000000000E+00 0.  1.
          1   -1    0    0  501    0  0.00000000000E+00 -0.00000000000E+00 -0.60464461278E+03  0.60464461278E+03  0.00000000000E+00 0. -1.
         23    2    1    2    0    0  0.56627352024E+02 -0.95600547652E+02 -0.31345126129E+02  0.17022422020E+03  0.12509055321E+03 0.  0.
          5    1    3    3  502    0 -0.15493053149E+01 -0.57017980645E+02 -0.69941211661E+02  0.90347639440E+02  0.41800000000E+01 0. -1.
         -5    1    3    3    0  502  0.58176657339E+02 -0.38582567007E+02  0.38596085532E+02  0.79876580763E+02  0.41800000000E+01 0. -1.
        -11    1    1    2    0    0 -0.18355298824E+02 -0.16910749658E+02 -0.28305577403E+02  0.37737198638E+02  0.00000000000E+00 0.  1.
         11    1    1    2    0    0 -0.38272053200E+02  0.11251129731E+03 -0.46333940883E+03  0.47833769436E+03  0.00000000000E+00 0. -1.
</event>
<event>
 7    1  0.5109948E-006  0.9682703E+02  0.7561462E-02  0.1287113E+00
          2   -1    0    0  501    0  0.00000000000E+00  0.00000000000E+00  0.67483400265E+02  0.67483400265E+02  0.00000000000E+00 0. -1.
         -2   -1    0    0    0  501 -0.00000000000E+00 -0.00000000000E+00 -0.29208465486E+03  0.29208465486E+03  0.00000000000E+00 0.  1.
         23    2    1    2    0    0  0.33724309506E+02  0.45441693097E+02 -0.21274470981E+03  0.25320428354E+03  0.12509924512E+03 0.  0.
          5    1    3    3  502    0 -0.21415931494E+02 -0.30190391986E+02 -0.99392883314E+02  0.10614386249E+03  0.41800000000E+01 0.  1.
         -5    1    3    3    0  502  0.55140241000E+02  0.75632085083E+02 -0.11335182650E+03  0.14706042106E+03  0.41800000000E+01 0.  1.
        -11    1    1    2    0    0 -0.22446862621E+02 -0.83592184715E+01 -0.47823943434E+02  0.53487080127E+02  0.00000000000E+00 0.  1.
         11    1    1    2    0    0 -0.11277446886E+02 -0.37082474626E+02  0.35967398655E+02  0.52876691449E+02  0.00000000000E+00 0. -1.
</event>
<event>
 7    1  0.5109948E-006  0.1447870E+03  0.7561462E-02  0.1207029E+00
         -2   -1    0    0    0  501 -0.00000000000E+00  0.00000000000E+00  0.14717163344E+03  0.14717163344E+03  0.00000000000E+00 0.  1.
          2   -1    0    0  501    0  0.00000000000E+00 -0.00000000000E+00 -0.23394028107E+03  0.23394028107E+03  0.00000000000E+00 0. -1.
         23    2    1    2    0    0  0.33101945134E+02 -0.11639064397E+03  0.45559456106E+02  0.17988971083E+03  0.12506847424E+03 0.  0.
          5    1    3    3  502    0  0.28078369949E+02 -0.78714612992E+01 -0.34137424428E+02  0.45090918249E+02  0.41800000000E+01 0.  1.
         -5    1    3    3    0  502  0.50235751851E+01 -0.10851918267E+03  0.79696880534E+02  0.13479879258E+03  0.41800000000E+01 0.  1.
        -11    1    1    2    0    0 -0.54270001041E+02  0.11829108123E+03 -0.11011889451E+03  0.17048220974E+03  0.00000000000E+00 0. -1.
         11    1    1    2    0    0  0.21168055907E+02 -0.19004372619E+01 -0.22209209226E+02  0.30739993935E+02  0.00000000000E+00 0.  1.
</event>
<event>
 7    1  0.5109948E-006  0.9795435E+02  0.7561462E-02  0.1284657E+00
          2   -1    0    0  501    0  0.00000000000E+00  0.00000000000E+00  0.52202123758E+02  0.52202123758E+02  0.00000000000E+00 0. -1.
         -2   -1    0    0    0  501 -0.00000000000E+00 -0.00000000000E+00 -0.24422856709E+03  0.24422856709E+03  0.00000000000E+00 0.  1.
         23    2    1    2    0    0 -0.17195581317E+02  0.15034147317E+02 -0.15210940737E+03  0.19825383353E+03  0.12508236124E+03 0.  0.
          5    1    3    3  502    0 -0.59994958897E+02 -0.27897237854E+02 -0.75631118767E+02  0.10057429840E+03  0.41800000000E+01 0. -1.
         -5    1    3    3    0  502  0.42799377580E+02  0.42931385171E+02 -0.76478288608E+02  0.97679535125E+02  0.41800000000E+01 0. -1.
        -11    1    1    2    0    0  0.39406266025E+02 -0.22547715313E+02 -0.54214847779E+02  0.70714234689E+02  0.00000000000E+00 0. -1.
         11    1    1    2    0    0 -0.22210684709E+02  0.75135679956E+01  0.14297811818E+02  0.27462622636E+02  0.00000000000E+00 0.  1.
</event>
<event>
 7    1  0.5109948E-006  0.1496722E+03  0.7561462E-02  0.1200876E+00
         -1   -1    0    0    0  501 -0.00000000000E+00  0.00000000000E+00  0.10816106916E+03  0.10816106916E+03  0.00000000000E+00 0.  1.
          1   -1    0    0  501    0  0.00000000000E+00 -0.00000000000E+00 -0.25278874785E+03  0.25278874785E+03  0.00000000000E+00 0. -1.
         23    2    1    2    0    0 -0.95160784129E+02 -0.78001186397E+02 -0.65245324854E+02  0.18722681079E+03  0.12512859924E+03 0.  0.
          5    1    3    3  502    0 -0.73212604649E+02 -0.10393999790E+03 -0.17391881409E+02  0.12838831170E+03  0.41800000000E+01 0.  1.
         -5    1    3    3    0  502 -0.21948179480E+02  0.25938811505E+02 -0.47853443445E+02  0.58838499083E+02  0.41800000000E+01 0.  1.
        -11    1    1    2    0    0  0.25131484700E+02  0.60806664021E+02 -0.77400020071E+02  0.10158644112E+03  0.00000000000E+00 0.  1.
         11    1    1    2    0    0  0.70029299429E+02  0.17194522376E+02 -0.19823337608E+01  0.72136565107E+02  0.00000000000E+00 0. -1.
</event>
<event>
 7    1  0.5109948E-006  0.1285863E+03  0.7561462E-02  0.1229569E+00
         -2   -1    0    0    0  501 -0.00000000000E+00  0.00000000000E+00  0.54990442047E+03  0.54990442047E+03  0.00000000000E+00 0.  1.
          2   -1    0    0  501    0  0.00000000000E+00 -0.00000000000E+00 -0.45262761801E+02  0.45262761801E+02  0.00000000000E+00 0. -1.
         23    2    1    2    0    0 -0.79577452569E+02  0.40265156170E+02  0.40230206341E+03  0.43062941394E+03  0.12506353652E+03 0.  0.
          5    1    3    3  502    0 -0.97589162843E+02 -0.92453939295E+01  0.29739006380E+03  0.31315722004E+03  0.41800000000E+01 0. -1.
         -5    1    3    3    0  502  0.18011710274E+02  0.49510550099E+02  0.10491199961E+03  0.11747219390E+03  0.41800000000E+01 0. -1.
        -11    1    1    2    0    0  0.58831495165E+02  0.22772389270E+01  0.85650202098E+01  0.59495295711E+02  0.00000000000E+00 0. -1.
         11    1    1    2    0    0  0.20745957404E+02 -0.42542395097E+02  0.93774575052E+02  0.10504247263E+03  0.00000000000E+00 0.  1.
</event>
<event>
 7    1  0.5109948E-006  0.1839027E+03  0.7561462E-02  0.1164079E+00
         -3   -1    0    0    0  501 -0.00000000000E+00  0.00000000000E+00  0.55431553465E+02  0.55431553465E+02  0.00000000000E+00 0.  1.
          3   -1    0    0  501    0  0.00000000000E+00 -0.00000000000E+00 -0.83523502175E+03  0.83523502175E+03  0.00000000000E+00 0. -1.
         23    2    1    2    0    0 -0.90439895575E+02  0.15276483373E+03 -0.29576920950E+03  0.36693798969E+03  0.12509034277E+03 0.  0.
          5    1    3    3  502    0  0.61019558700E+01  0.31292664280E+02 -0.15200574369E+03  0.15536950543E+03  0.41800000000E+01 0. -1.
         -5    1    3    3    0  502 -0.96541851445E+02  0.12147216945E+03 -0.14376346581E+03  0.21156848426E+03  0.41800000000E+01 0. -1.
        -11    1    1    2    0    0  0.51757448524E+02 -0.56180694739E+02 -0.99925701358E+02  0.12577857421E+03  0.00000000000E+00 0.  1.
         11    1    1    2    0    0  0.38682447051E+02 -0.96584138986E+02 -0.38410855743E+03  0.39795001131E+03  0.00000000000E+00 0. -1.
</event>
<event>
 7    1  0.5109948E-006  0.9940432E+02  0.7561462E-02  0.1281554E+00
          2   -1    0    0  501    0  0.00000000000E+00  0.00000000000E+00  0.34008721049E+03  0.34008721049E+03  0.00000000000E+00 0. -1.
         -2   -1    0    0    0  501 -0.00000000000E+00 -0.00000000000E+00 -0.40235525269E+02  0.40235525269E+02  0.00000000000E+00 0.  1.
         23    2    1    2    0    0  0.21135845005E+02  0.29903028487E+02  0.12912449576E+03  0.18347014568E+03  0.12508894393E+03 0.  0.
          5    1    3    3  502    0  0.62342464783E+02 -0.41415211695E+00  0.24843740185E+02  0.67241640845E+02  0.41800000000E+01 0. -1.
         -5    1    3    3    0  502 -0.41206619778E+02  0.30317180604E+02  0.10428075557E+03  0.11622850483E+03  0.41800000000E+01 0. -1.
        -11    1    1    2    0    0  0.27140668514E+02 -0.24239226143E+02  0.12473631225E+03  0.12993576708E+03  0.00000000000E+00 0. -1.
         11    1    1    2    0    0 -0.48276513519E+02 -0.56638023436E+01  0.45990877217E+02  0.66916823010E+02  0.00000000000E+00 0.  1.
</event>
<event>
 7    1  0.5109948E-006  0.2556824E+03  0.7561462E-02  0.1109765E+00
         -2   -1    0    0    0  501 -0.00000000000E+00  0.00000000000E+00  0.46435609427E+03  0.46435609427E+03  0.00000000000E+00 0. -1.
          2   -1    0    0  501    0  0.00000000000E+00 -0.00000000000E+00 -0.17466294991E+03  0.17466294991E+03  0.00000000000E+00 0.  1.
         23    2    1    2    0    0  0.22221543126E+03  0.12063318302E+03  0.22979844171E+03  0.36385129635E+03  0.12509348225E+03 0.  0.
          5    1    3    3  502    0  0.45280151283E+02  0.20913851489E+02  0.12631121189E+03  0.13586639000E+03  0.41800000000E+01 0. -1.
         -5    1    3    3    0  502  0.17693527998E+03  0.99719331532E+02  0.10348722983E+03  0.22798490634E+03  0.41800000000E+01 0. -1.
        -11    1    1    2    0    0 -0.69240226598E+02 -0.11339660299E+02 -0.16756773391E+02  0.72135887944E+02  0.00000000000E+00 0.  1.
         11    1    1    2    0    0 -0.15297520467E+03 -0.10929352272E+03  0.76651476040E+02  0.20303185989E+03  0.00000000000E+00 0. -1.
</event>
<event>
 7    1  0.5109948E-006  0.1328808E+03  0.7561462E-02  0.1223243E+00
          1   -1    0    0  501    0  0.00000000000E+00  0.00000000000E+00  0.11650981674E+04  0.11650981674E+04  0.00000000000E+00 0. -1.
         -1   -1    0    0    0  501 -0.00000000000E+00 -0.00000000000E+00 -0.23751031355E+02  0.23751031355E+02  0.00000000000E+00 0.  1.
         23    2    1    2    0    0 -0.10897401181E+03 -0.32588046390E+02  0.37005452488E+03  0.40396073335E+03  0.11535426602E+03 0.  0.
          5    1    3    3  502    0 -0.12748231854E+02 -0.19363903677E+02  0.24219284889E+03  0.24333583097E+03  0.41800000000E+01 0. -1.
         -5    1    3    3    0  502 -0.96225779952E+02 -0.13224142713E+02  0.12786167599E+03  0.16062490238E+03  0.41800000000E+01 0.  1.
        -11    1    1    2    0    0 -0.78193359558E+01 -0.16527327775E+02  0.78068269231E+02  0.80180728600E+02  0.00000000000E+00 0.  1.
         11    1    1    2    0    0  0.11679334776E+03  0.49115374165E+02  0.69322434190E+03  0.70470773677E+03  0.00000000000E+00 0. -1.
</event>
<event>
 7    1  0.5109948E-006  0.1071023E+03  0.7561462E-02  0.1266032E+00
         -2   -1    0    0    0  501 -0.00000000000E+00  0.00000000000E+00  0.22529396263E+03  0.22529396263E+03  0.00000000000E+00 0.  1.
          2   -1    0    0  501    0  0.00000000000E+00 -0.00000000000E+00 -0.70934704655E+02  0.70934704655E+02  0.00000000000E+00 0. -1.
         23    2    1    2    0    0 -0.41592036796E+02  0.45630073260E+02  0.10114300070E+03  0.17230718598E+03  0.12509140114E+03 0.  0.
          5    1    3    3  502    0 -0.66733344082E+01  0.85489673070E+02  0.69402810007E+02  0.11039583339E+03  0.41800000000E+01 0.  1.
         -5    1    3    3    0  502 -0.34918702388E+02 -0.39859599810E+02  0.31740190697E+02  0.61911352586E+02  0.41800000000E+01 0.  1.
        -11    1    1    2    0    0 -0.90526142857E+01 -0.56246178444E+01 -0.22220367757E+02  0.24644084373E+02  0.00000000000E+00 0. -1.
         11    1    1    2    0    0  0.50644651082E+02 -0.40005455416E+02  0.75436625029E+02  0.99277396934E+02  0.00000000000E+00 0.  1.
</event>
<event>
 7    1  0.5109948E-006  0.2857489E+03  0.7561462E-02  0.1092590E+00
          2   -1    0    0  501    0  0.00000000000E+00  0.00000000000E+00  0.15082432033E+04  0.15082432033E+04  0.00000000000E+00 0. -1.
         -2   -1    0    0    0  501 -0.00000000000E+00 -0.00000000000E+00 -0.82261194445E+02  0.82261194445E+02  0.00000000000E+00 0.  1.
         23    2    1    2    0    0  0.85622278198E+02 -0.27183502942E+03  0.32315947551E+03  0.44867028983E+03  0.12509006605E+03 0.  0.
          5    1    3    3  502    0  0.79799511975E+02 -0.22931728205E+03  0.32477163978E+03  0.40552246345E+03  0.41800000000E+01 0.  1.
         -5    1    3    3    0  502  0.58227662229E+01 -0.42517747370E+02 -0.16121642700E+01  0.43147826382E+02  0.41800000000E+01 0.  1.
        -11    1    1    2    0    0 -0.55015503831E+02  0.14562056977E+03  0.44848049688E+03  0.47472814545E+03  0.00000000000E+00 0.  1.
         11    1    1    2    0    0 -0.30606774366E+02  0.12621445965E+03  0.65434203650E+03  0.66710596250E+03  0.00000000000E+00 0. -1.
</event>
<event>
 7    1  0.5109948E-006  0.8693319E+02  0.7561462E-02  0.1310453E+00
          3   -1    0    0  501    0  0.00000000000E+00  0.00000000000E+00  0.13563656358E+03  0.13563656358E+03  0.00000000000E+00 0. -1.
         -3   -1    0    0    0  501 -0.00000000000E+00 -0.00000000000E+00 -0.89429390883E+02  0.89429390883E+02  0.00000000000E+00 0.  1.
         23    2    1    2    0    0 -0.15461803566E+01  0.20398479597E+02  0.18366867855E+02  0.12806764267E+03  0.12508193563E+03 0.  0.
          5    1    3    3  502    0  0.37584882788E+02  0.16993583388E+02 -0.39987529942E+02  0.57601043753E+02  0.41800000000E+01 0. -1.
         -5    1    3    3    0  502 -0.39131063145E+02  0.34048962085E+01  0.58354397797E+02  0.70466598919E+02  0.41800000000E+01 0. -1.
        -11    1    1    2    0    0 -0.29437741620E+02  0.24537933392E+02  0.10756977953E+02  0.39804564832E+02  0.00000000000E+00 0.  1.
         11    1    1    2    0    0  0.30983921976E+02 -0.44936412989E+02  0.17083326887E+02  0.57193746956E+02  0.00000000000E+00 0. -1.
</event>
<event>
 7    1  0.5109948E-006  0.7607937E+02  0.7561462E-02  0.1340561E+00
          2   -1    0    0  501    0  0.00000000000E+00  0.00000000000E+00  0.60964007672E+02  0.60964007672E+02  0.00000000000E+00 0.  1.
         -2   -1    0    0    0  501 -0.00000000000E+00 -0.00000000000E+00 -0.98350267817E+02  0.98350267817E+02  0.00000000000E+00 0. -1.
         23    2    1    2    0    0  0.21142635837E+02 -0.14533559019E+02 -0.41338906884E+02  0.12852776180E+03  0.11896320836E+03 0.  0.
          5    1    3    3  502    0  0.54941614670E+02 -0.48636662030E+02 -0.25629442723E+02  0.77836024117E+02  0.41800000000E+01 0. -1.
         -5    1    3    3    0  502 -0.33798978833E+02  0.34103103011E+02 -0.15709464161E+02  0.50691737684E+02  0.41800000000E+01 0.  1.
        -11    1    1    2    0    0 -0.19817563027E+02  0.44682549601E+01  0.35759757515E+01  0.20627377664E+02  0.00000000000E+00 0.  1.
         11    1    1    2    0    0 -0.13250728105E+01  0.10065304059E+02  0.37667098710E+00  0.10159136026E+02  0.00000000000E+00 0. -1.
</event>
<event>
 7    1  0.5109948E-006  0.7494263E+02  0.7561462E-02  0.1344049E+00
         -1   -1    0    0    0  501 -0.00000000000E+00  0.00000000000E+00  0.84224993755E+02  0.84224993755E+02  0.00000000000E+00 0.  1.
          1   -1    0    0  501    0  0.00000000000E+00 -0.00000000000E+00 -0.25928814647E+03  0.25928814647E+03  0.00000000000E+00 0. -1.
         23    2    1    2    0    0 -0.60019891939E+02 -0.33481508025E+02 -0.87497982145E+01  0.14299308492E+03  0.12508822709E+03 0.  0.
          5    1    3    3  502    0 -0.12649698954E+02 -0.30009525368E+02 -0.62831881536E+02  0.70893612080E+02  0.41800000000E+01 0.  1.
         -5    1    3    3    0  502 -0.47370192985E+02 -0.34719826571E+01  0.54082083322E+02  0.72099472837E+02  0.41800000000E+01 0.  1.
        -11    1    1    2    0    0  0.10768927622E+02  0.10430790792E+02  0.86447555158E+01  0.17306154876E+02  0.00000000000E+00 0.  1.
         11    1    1    2    0    0  0.49250964317E+02  0.23050717233E+02 -0.17495811002E+03  0.18321390044E+03  0.00000000000E+00 0. -1.
</event>
<event>
 7    1  0.5109948E-006  0.8071100E+02  0.7561462E-02  0.1327046E+00
         -1   -1    0    0    0  501 -0.00000000000E+00  0.00000000000E+00  0.25812580500E+03  0.25812580500E+03  0.00000000000E+00 0.  1.
          1   -1    0    0  501    0  0.00000000000E+00 -0.00000000000E+00 -0.60596956173E+02  0.60596956173E+02  0.00000000000E+00 0. -1.
         23    2    1    2    0    0 -0.29235648622E+02 -0.25045978157E+02  0.17149914761E+03  0.21573474621E+03  0.12508996330E+03 0.  0.
          5    1    3    3  502    0 -0.20499406446E+02  0.35879338653E+02  0.98092658770E+01  0.42676067109E+02  0.41800000000E+01 0. -1.
         -5    1    3    3    0  502 -0.87362421759E+01 -0.60925316810E+02  0.16168988174E+03  0.17305867910E+03  0.41800000000E+01 0. -1.
        -11    1    1    2    0    0  0.22168534314E+02 -0.86297753499E+01  0.53764784505E+02  0.58792592978E+02  0.00000000000E+00 0.  1.
         11    1    1    2    0    0  0.70671143081E+01  0.33675753507E+02 -0.27735083294E+02  0.44195421983E+02  0.00000000000E+00 0. -1.
</event>
<event>
 7    1  0.5109948E-006  0.1154561E+03  0.7561462E-02  0.1250787E+00
         -1   -1    0    0    0  501 -0.00000000000E+00  0.00000000000E+00  0.47241058809E+02  0.47241058809E+02  0.00000000000E+00 0.  1.
          1   -1    0    0  501    0  0.00000000000E+00 -0.00000000000E+00 -0.59381192478E+03  0.59381192478E+03  0.00000000000E+00 0. -1.
         23    2    1    2    0    0 -0.37800540998E+01  0.89485554849E+02 -0.11856029036E+03  0.19425019883E+03  0.12511851965E+03 0.  0.
          5    1    3    3  502    0  0.28433298112E+02  0.43510867539E+02  0.10729047714E+02  0.53237514033E+02  0.41800000000E+01 0. -1.
         -5    1    3    3    0  502 -0.32213352212E+02  0.45974687310E+02 -0.12928933808E+03  0.14101268480E+03  0.41800000000E+01 0. -1.
        -11    1    1    2    0    0 -0.39674214443E+02 -0.49355921287E+02 -0.28673824295E+03  0.29364752720E+03  0.00000000000E+00 0.  1.
         11    1    1    2    0    0  0.43454268543E+02 -0.40129633561E+02 -0.14127233265E+03  0.15315525756E+03  0.00000000000E+00 0. -1.
</event>
<event>
 7    1  0.5109948E-006  0.1105148E+03  0.7561462E-02  0.1259620E+00
         -1   -1    0    0    0  501 -0.00000000000E+00  0.00000000000E+00  0.84945263885E+02  0.84945263885E+02  0.00000000000E+00 0.  1.
          1   -1    0    0  501    0  0.00000000000E+00 -0.00000000000E+00 -0.26679534795E+03  0.26679534795E+03  0.00000000000E+00 0. -1.
         23    2    1    2    0    0  0.44725878397E+02 -0.89168897981E+02 -0.68937700069E+02  0.17421809564E+03  0.12509213322E+03 0.  0.
          5    1    3    3  502    0  0.55098987351E+02 -0.34415571483E+02  0.20939945151E+02  0.68383358141E+02  0.41800000000E+01 0. -1.
         -5    1    3    3    0  502 -0.10373108955E+02 -0.54753326498E+02 -0.89877645220E+02  0.10583473750E+03  0.41800000000E+01 0. -1.
        -11    1    1    2    0    0 -0.20342108187E+02  0.49029981434E+02 -0.11886757640E+03  0.13018156999E+03  0.00000000000E+00 0. -1.
         11    1    1    2    0    0 -0.24383770210E+02  0.40138916547E+02  0.59551924014E+01  0.47340946207E+02  0.00000000000E+00 0.  1.
</event>
<event>
 7    1  0.5109948E-006  0.1156869E+03  0.7561462E-02  0.1250387E+00
          2   -1    0    0  501    0  0.00000000000E+00  0.00000000000E+00  0.16890042204E+03  0.16890042204E+03  0.00000000000E+00 0.  1.
         -2   -1    0    0    0  501 -0.00000000000E+00 -0.00000000000E+00 -0.10335636149E+03  0.10335636149E+03  0.00000000000E+00 0. -1.
         23    2    1    2    0    0 -0.16491227482E+02 -0.70573228342E+02  0.20120167305E+02  0.14596149584E+03  0.12508955189E+03 0.  0.
          5    1    3    3  502    0 -0.16115236137E+02 -0.10679787610E+03  0.15906946103E+02  0.10925195883E+03  0.41800000000E+01 0. -1.
         -5    1    3    3    0  502 -0.37599134536E+00  0.36224647753E+02  0.42132212013E+01  0.36709537006E+02  0.41800000000E+01 0. -1.
        -11    1    1    2    0    0  0.30671433598E+02  0.64444506802E+02 -0.69329515294E+01  0.71707022758E+02  0.00000000000E+00 0. -1.
         11    1    1    2    0    0 -0.14180206116E+02  0.61287215405E+01  0.52356844774E+02  0.54588264928E+02  0.00000000000E+00 0.  1.
</event>
<event>
 6    1  0.5109948E-006  0.7758352E+02  0.7561462E-02  0.1336052E+00
          2   -1    0    0  501    0  0.00000000000E+00  0.00000000000E+00  0.19179392932E+03  0.19179392932E+03  0.00000000000E+00 0. -1.
         -2   -1    0    0    0  501 -0.00000000000E+00 -0.00000000000E+00 -0.12542804094E+03  0.12542804094E+03  0.00000000000E+00 0.  1.
          5    1    1    2  502    0  0.62880826070E+01  0.42737317648E+02  0.84093897355E+02  0.94632310946E+02  0.41800000000E+01 0. -1.
         -5    1    1    2    0  502 -0.21433521628E+02 -0.39714680242E+02 -0.91951367700E+02  0.10251428241E+03  0.41800000000E+01 0.  1.
        -11    1    1    2    0    0 -0.12962043146E+02  0.24113294969E+02  0.76187721246E+02  0.80956991208E+02  0.00000000000E+00 0.  1.
         11    1    1    2    0    0  0.28107482167E+02 -0.27135932376E+02 -0.19643625224E+01  0.39118385700E+02  0.00000000000E+00 0. -1.
</event>
<event>
 7    1  0.5109948E-006  0.1963884E+03  0.7561462E-02  0.1152822E+00
         -1   -1    0    0    0  501 -0.00000000000E+00  0.00000000000E+00  0.19442138012E+03  0.19442138012E+03  0.00000000000E+00 0.  1.
          1   -1    0    0  501    0  0.00000000000E+00 -0.00000000000E+00 -0.29387802276E+03  0.29387802276E+03  0.00000000000E+00 0. -1.
         23    2    1    2    0    0 -0.71149967781E+02  0.15281153880E+03  0.80861897145E+02  0.22494463527E+03  0.12509099977E+03 0.  0.
          5    1    3    3  502    0 -0.40297793398E+02 -0.83566270016E+01 -0.12898461613E+01  0.41386972234E+02  0.41800000000E+01 0. -1.
         -5    1    3    3    0  502 -0.30852174383E+02  0.16116816580E+03  0.82151743306E+02  0.18355766304E+03  0.41800000000E+01 0. -1.
        -11    1    1    2    0    0  0.86107240118E+02 -0.14856280237E+03 -0.17852522644E+03  0.24770268373E+03  0.00000000000E+00 0. -1.
         11    1    1    2    0    0 -0.14957272337E+02 -0.42487364246E+01 -0.17933133418E+01  0.15652083877E+02  0.00000000000E+00 0.  1.
</event>
<event>
 7    1  0.5109948E-006  0.1288993E+03  0.7561462E-02  0.1229098E+00
         -1   -1    0    0    0  501 -0.00000000000E+00  0.00000000000E+00  0.92350660835E+03  0.92350660835E+03  0.00000000000E+00 0.  1.
          1   -1    0    0  501    0  0.00000000000E+00 -0.00000000000E+00 -0.21842673089E+02  0.21842673089E+02  0.00000000000E+00 0. -1.
         23    2    1    2    0    0  0.10836247558E+02  0.80385268465E+02  0.55911626660E+03  0.57864998268E+03  0.12508232185E+03 0.  0.
          5    1    3    3  502    0  0.67193480295E+02  0.43495773150E+02  0.34306899978E+03  0.35230761712E+03  0.41800000000E+01 0. -1.
         -5    1    3    3    0  502 -0.56357232737E+02  0.36889495315E+02  0.21604726682E+03  0.22634236556E+03  0.41800000000E+01 0. -1.
        -11    1    1    2    0    0 -0.42855878083E+02 -0.40012120619E+02  0.27795204176E+03  0.28406853680E+03  0.00000000000E+00 0.  1.
         11    1    1    2    0    0  0.32019630526E+02 -0.40373147846E+02  0.64595626910E+02  0.82630761959E+02  0.00000000000E+00 0. -1.
</event>
<event>
 7    1  0.5109948E-006  0.1139310E+03  0.7561462E-02  0.1253459E+00
         -2   -1    0    0    0  501 -0.00000000000E+00  0.00000000000E+00  0.61777801516E+02  0.61777801516E+02  0.00000000000E+00 0.  1.
          2   -1    0    0  501    0  0.00000000000E+00 -0.00000000000E+00 -0.47223008838E+03  0.47223008838E+03  0.00000000000E+00 0. -1.
         23    2    1    2    0    0 -0.74340243807E+02 -0.25798238401E+02 -0.53664276002E+02  0.15722345604E+03  0.12508932671E+03 0.  0.
          5    1    3    3  502    0  0.54212450168E+01 -0.26601006130E+02 -0.70439837943E+02  0.75605863490E+02  0.41800000000E+01 0. -1.
         -5    1    3    3    0  502 -0.79761488824E+02  0.80276772880E+00  0.16775561941E+02  0.81617592551E+02  0.41800000000E+01 0. -1.
        -11    1    1    2    0    0  0.55732600489E+02 -0.28873466674E+02 -0.16710244242E+03  0.17850217393E+03  0.00000000000E+00 0.  1.
         11    1    1    2    0    0  0.18607643318E+02  0.54671705075E+02 -0.18968556844E+03  0.19828225992E+03  0.00000000000E+00 0. -1.
</event>
<event>
 7    1  0.5109948E-006  0.7564388E+02  0.7561462E-02  0.1341889E+00
         -2   -1    0    0    0  501 -0.00000000000E+00  0.00000000000E+00  0.48227107694E+02  0.48227107694E+02  0.00000000000E+00 0.  1.
          2   -1    0    0  501    0  0.00000000000E+00 -0.00000000000E+00 -0.28093887093E+03  0.28093887093E+03  0.00000000000E+00 0. -1.
         23    2    1    2    0    0 -0.12803104980E+01  0.58391309586E+02 -0.13928463899E+03  0.19611080311E+03  0.12509217485E+03 0.  0.
          5    1    3    3  502    0  0.83630299055E-01  0.38143452874E+02 -0.16134540992E+03  0.16584554167E+03  0.41800000000E+01 0.  1.
         -5    1    3    3    0  502 -0.13639407970E+01  0.20247856712E+02  0.22060770929E+02  0.30265261438E+02  0.41800000000E+01 0.  1.
        -11    1    1    2    0    0  0.35764560441E+02 -0.21651249244E+02 -0.27355089080E+02  0.49961798166E+02  0.00000000000E+00 0.  1.
         11    1    1    2    0    0 -0.34484249943E+02 -0.36740060342E+02 -0.66072035166E+02  0.83093377348E+02  0.00000000000E+00 0. -1.
</event>
<event>
 7    1  0.5109948E-006  0.9278551E+02  0.7561462E-02  0.1296243E+00
         -1   -1    0    0    0  501 -0.00000000000E+00  0.00000000000E+00  0.70425575392E+02  0.70425575392E+02  0.00000000000E+00 0.  1.
          1   -1    0    0  501    0  0.00000000000E+00 -0.00000000000E+00 -0.17419123189E+03  0.17419123189E+03  0.00000000000E+00 0. -1.
         23    2    1    2    0    0  0.22473035400E+02  0.53272440903E+01 -0.54656455440E+02  0.13844713221E+03  0.12508742322E+03 0.  0.
          5    1    3    3  502    0 -0.29090921706E+02 -0.28435085433E+02 -0.64019820932E+02  0.75966082441E+02  0.41800000000E+01 0. -1.
         -5    1    3    3    0  502  0.51563957106E+02  0.33762329524E+02  0.93633654922E+01  0.62481049772E+02  0.41800000000E+01 0. -1.
        -11    1    1    2    0    0 -0.33702839250E+02 -0.36552267594E+02 -0.53105254463E+02  0.72746942831E+02  0.00000000000E+00 0. -1.
         11    1    1    2    0    0  0.11229803849E+02  0.31225023504E+02  0.39960534058E+01  0.33422732236E+02  0.00000000000E+00 0.  1.
</event>
<event>
 7    1  0.5109948E-006  0.9884524E+02  0.7561462E-02  0.1282743E+00
          1   -1    0    0  501    0  0.00000000000E+00  0.00000000000E+00  0.70549602270E+02  0.70549602270E+02  0.00000000000E+00 0. -1.
         -1   -1    0    0    0  501 -0.00000000000E+00 -0.00000000000E+00 -0.18322023703E+03  0.18322023703E+03  0.00000000000E+00 0.  1.
         23    2    1    2    0    0 -0.43538598948E+02  0.68294122630E+01 -0.78717995485E+02  0.15422805533E+03  0.12509004664E+03 0.  0.
          5    1    3    3  502    0 -0.43749618459E+01  0.63357939425E+02 -0.40538000494E+02  0.75459728752E+02  0.41800000000E+01 0. -1.
         -5    1    3    3    0  502 -0.39163637102E+02 -0.56528527162E+02 -0.38179994991E+02  0.78768326577E+02  0.41800000000E+01 0. -1.
        -11    1    1    2    0    0 -0.97350071924E+01  0.44326915164E+01  0.20130591289E+02  0.22796048446E+02  0.00000000000E+00 0. -1.
         11    1    1    2    0    0  0.53273606140E+02 -0.11262103779E+02 -0.54083230560E+02  0.76745735520E+02  0.00000000000E+00 0.  1.
</event>
<event>
 7    1  0.5109948E-006  0.1847726E+03  0.7561462E-02  0.1163262E+00
          3   -1    0    0  501    0  0.00000000000E+00  0.00000000000E+00  0.15777892811E+03  0.15777892811E+03  0.00000000000E+00 0. -1.
         -3   -1    0    0    0  501 -0.00000000000E+00 -0.00000000000E+00 -0.23894584243E+03  0.23894584243E+03  0.00000000000E+00 0.  1.
         23    2    1    2    0    0 -0.97187267198E+02  0.12600126710E+03 -0.64130699978E+02  0.21235273639E+03  0.12513694002E+03 0.  0.
          5    1    3    3  502    0 -0.90114309135E+02  0.32546047622E+02 -0.69415388037E+02  0.11838835425E+03  0.41800000000E+01 0.  1.
         -5    1    3    3    0  502 -0.70729580631E+01  0.93455219473E+02  0.52846880588E+01  0.93964382137E+02  0.41800000000E+01 0.  1.
        -11    1    1    2    0    0  0.22373628993E+01 -0.69092594730E+02 -0.24699758535E+02  0.73408926643E+02  0.00000000000E+00 0.  1.
         11    1    1    2    0    0  0.94949904299E+02 -0.56908672366E+02  0.76635441898E+01  0.11096310750E+03  0.00000000000E+00 0. -1.
</event>
<event>
 7    1  0.5109948E-006  0.1299127E+03  0.7561462E-02  0.1227585E+00
          1   -1    0    0  501    0  0.00000000000E+00  0.00000000000E+00  0.57440030451E+02  0.57440030451E+02  0.00000000000E+00 0. -1.
         -1   -1    0    0    0  501 -0.00000000000E+00 -0.00000000000E+00 -0.39790104232E+03  0.39790104232E+03  0.00000000000E+00 0.  1.
         23    2    1    2    0    0 -0.65777547912E+02  0.53205794937E+02 -0.27787015408E+03  0.31623973977E+03  0.12505282105E+03 0.  0.
          5    1    3    3  502    0 -0.76858019738E+02  0.81822236701E+02 -0.25193093307E+03  0.27584180440E+03  0.41800000000E+01 0.  1.
         -5    1    3    3    0  502  0.11080471825E+02 -0.28616441764E+02 -0.25939221009E+02  0.40397935364E+02  0.41800000000E+01 0.  1.
        -11    1    1    2    0    0 -0.13866865654E+02 -0.30807866509E+02 -0.41891349768E+02  0.53817281493E+02  0.00000000000E+00 0.  1.
         11    1    1    2    0    0  0.79644413566E+02 -0.22397928428E+02 -0.20699508018E+02  0.85284051512E+02  0.00000000000E+00 0. -1.
</event>
<event>
 7    1  0.5109948E-006  0.1026111E+03  0.7561462E-02  0.1274899E+00
          2   -1    0    0  501    0  0.00000000000E+00  0.00000000000E+00  0.26194688668E+03  0.26194688668E+03  0.00000000000E+00 0. -1.
         -2   -1    0    0    0  501 -0.00000000000E+00 -0.00000000000E+00 -0.53992308187E+02  0.53992308187E+02  0.00000000000E+00 0.  1.
         23    2    1    2    0    0  0.37200710770E+02 -0.29489520484E+02  0.12568966967E+03  0.18357361507E+03  0.12509138414E+03 0.  0.
          5    1    3    3  502    0 -0.12546907292E+02 -0.48856268322E+02  0.11936603270E+03  0.12965370029E+03  0.41800000000E+01 0. -1.
         -5    1    3    3    0  502  0.49747618062E+02  0.19366747838E+02  0.63236369688E+01  0.53919914774E+02  0.41800000000E+01 0. -1.
        -11    1    1    2    0    0  0.28661030228E+02 -0.56089498908E+00  0.37677481855E+02  0.47343023730E+02  0.00000000000E+00 0.  1.
         11    1    1    2    0    0 -0.65861740998E+02  0.30050415473E+02  0.44587426969E+02  0.85022556073E+02  0.00000000000E+00 0. -1.
</event>
<event>
 7    1  0.5109948E-006  0.1747397E+03  0.7561462E-02  0.1172993E+00
         -1   -1    0    0    0  501 -0.00000000000E+00  0.00000000000E+00  0.32763570063E+03  0.32763570063E+03  0.00000000000E+00 0. -1.
          1   -1    0    0  501    0  0.00000000000E+00 -0.00000000000E+00 -0.98364807411E+02  0.98364807411E+02  0.00000000000E+00 0.  1.
         23    2    1    2    0    0 -0.36937977272E+02  0.13019203184E+03  0.13954095005E+03  0.23115685523E+03  0.12508971044E+03 0.  0.
          5    1    3    3  502    0 -0.61724682211E+02  0.11651398936E+02  0.52274597166E+02  0.81827852227E+02  0.41800000000E+01 0. -1.
         -5    1    3    3    0  502  0.24786704940E+02  0.11854063291E+03  0.87266352889E+02  0.14932900300E+03  0.41800000000E+01 0. -1.
        -11    1    1    2    0    0 -0.24760037890E+01 -0.12565016748E+03  0.41407258808E+02  0.13232027911E+03  0.00000000000E+00 0.  1.
         11    1    1    2    0    0  0.39413981061E+02 -0.45418643608E+01  0.48322684354E+02  0.62523373694E+02  0.00000000000E+00 0. -1.
</event>
<event>
 7    1  0.5109948E-006  0.1129811E+03  0.7561462E-02  0.1255147E+00
         -3   -1    0    0    0  501 -0.00000000000E+00  0.00000000000E+00  0.57311671083E+03  0.57311671083E+03  0.00000000000E+00 0.  1.
          3   -1    0    0  501    0  0.00000000000E+00 -0.00000000000E+00 -0.55745258413E+02  0.55745258413E+02  0.00000000000E+00 0. -1.
         23    2    1    2    0    0  0.19125441072E+02 -0.70324369352E+02  0.48835875669E+03  0.50936485590E+03  0.12508789618E+03 0.  0.
          5    1    3    3  502    0  0.22603742445E+02 -0.10278681117E+03  0.29532183501E+03  0.31354188932E+03  0.41800000000E+01 0. -1.
         -5    1    3    3    0  502 -0.34783013726E+01  0.32462441821E+02  0.19303692168E+03  0.19582296658E+03  0.41800000000E+01 0. -1.
        -11    1    1    2    0    0 -0.35452781372E+02  0.54266477625E+02 -0.17939721521E+02  0.67257593691E+02  0.00000000000E+00 0. -1.
         11    1    1    2    0    0  0.16327340299E+02  0.16057891727E+02  0.46952417246E+02  0.52239519649E+02  0.00000000000E+00 0.  1.
</event>
<event>
 7    1  0.5109948E-006  0.1341196E+03  0.7561462E-02  0.1221468E+00
         -1   -1    0    0    0  501 -0.00000000000E+00  0.00000000000E+00  0.18969736059E+03  0.18969736059E+03  0.00000000000E+00 0.  1.
          1   -1    0    0  501    0  0.00000000000E+00 -0.00000000000E+00 -0.28744909437E+03  0.28744909437E+03  0.00000000000E+00 0. -1.
         23    2    1    2    0    0 -0.27400508503E+02  0.91941470457E+02  0.13581144323E+03  0.20807776823E+03  0.12509031801E+03 0.  0.
          5    1    3    3  502    0 -0.53086573713E+02  0.75988394492E+01  0.10507884732E+02  0.54807068076E+02  0.41800000000E+01 0.  1.
         -5    1    3    3    0  502  0.25686065209E+02  0.84342631008E+02  0.12530355850E+03  0.15327070015E+03  0.41800000000E+01 0.  1.
        -11    1    1    2    0    0  0.56818119150E+02 -0.64445098679E+02 -0.19599003798E+03  0.21399430926E+03  0.00000000000E+00 0. -1.
         11    1    1    2    0    0 -0.29417610647E+02 -0.27496371778E+02 -0.37573139037E+02  0.55074377474E+02  0.00000000000E+00 0.  1.
</event>
<event>
 7    1  0.5109948E-006  0.7583841E+02  0.7561462E-02  0.1341294E+00
          1   -1    0    0  501    0  0.00000000000E+00  0.00000000000E+00  0.19197751295E+03  0.19197751295E+03  0.00000000000E+00 0. -1.
         -1   -1    0    0    0  501 -0.00000000000E+00 -0.00000000000E+00 -0.88478628522E+02  0.88478628522E+02  0.00000000000E+00 0.  1.
         23    2    1    2    0    0 -0.49847181313E+02  0.29494747441E+02  0.16335243433E+02  0.13881475088E+03  0.12509201922E+03 0.  0.
          5    1    3    3  502    0 -0.38389914763E+02  0.34067216545E+02 -0.49663960015E+02  0.71542589574E+02  0.41800000000E+01 0. -1.
         -5    1    3    3    0  502 -0.11457266551E+02 -0.45724691036E+01  0.65999203448E+02  0.67272161303E+02  0.41800000000E+01 0. -1.
        -11    1    1    2    0    0  0.55873553475E+02  0.11887793802E+01  0.94254955907E+02  0.10957766144E+03  0.00000000000E+00 0. -1.
         11    1    1    2    0    0 -0.60263721621E+01 -0.30683526822E+02 -0.70913149156E+01  0.32063729148E+02  0.00000000000E+00 0.  1.
</event>
<event>
 7    1  0.5109948E-006  0.7328911E+02  0.7561462E-02  0.1349252E+00
         -2   -1    0    0    0  501 -0.00000000000E+00  0.00000000000E+00  0.86403595584E+02  0.86403595584E+02  0.00000000000E+00 0. -1.
          2   -1    0    0  501    0  0.00000000000E+00 -0.00000000000E+00 -0.16405551659E+03  0.16405551659E+03  0.00000000000E+00 0.  1.
         23    2    1    2    0    0  0.13117402051E+02 -0.44029253509E+02 -0.69682347625E+02  0.15024893832E+03  0.12493387249E+03 0.  0.
          5    1    3    3  502    0  0.17135170578E+02 -0.47808447690E+01 -0.99155304715E+02  0.10082518237E+03  0.41800000000E+01 0. -1.
         -5    1    3    3    0  502 -0.40177685269E+01 -0.39248408740E+02  0.29472957090E+02  0.49423755950E+02  0.41800000000E+01 0. -1.
        -11    1    1    2    0    0 -0.13842135455E+02  0.65601200138E+02 -0.26174497019E+02  0.71973790144E+02  0.00000000000E+00 0. -1.
         11    1    1    2    0    0  0.72473340347E+00 -0.21571946628E+02  0.18204923642E+02  0.28236383704E+02  0.00000000000E+00 0.  1.
</event>
<event>
 7    1  0.5109948E-006  0.1203735E+03  0.7561462E-02  0.1242482E+00
          2   -1    0    0  501    0  0.00000000000E+00  0.00000000000E+00  0.15700915903E+02  0.15700915903E+02  0.00000000000E+00 0. -1.
         -2   -1    0    0    0  501 -0.00000000000E+00 -0.00000000000E+00 -0.92750508128E+03  0.92750508128E+03  0.00000000000E+00 0.  1.
         23    2    1    2    0    0  0.46984267846E+02  0.19730356748E+02 -0.54082568902E+03  0.55743738335E+03  0.12508877669E+03 0.  0.
          5    1    3    3  502    0  0.37263273652E+02 -0.51094535248E+02 -0.24423792017E+03  0.25232684587E+03  0.41800000000E+01 0.  1.
         -5    1    3    3    0  502  0.97209941943E+01  0.70824891996E+02 -0.29658776884E+03  0.30511053748E+03  0.41800000000E+01 0.  1.
        -11    1    1    2    0    0  0.28457577477E+02 -0.57335029376E+01 -0.10633872385E+03  0.11022990049E+03  0.00000000000E+00 0.  1.
         11    1    1    2    0    0 -0.75441845323E+02 -0.13996853811E+02 -0.26463975251E+03  0.27553871334E+03  0.00000000000E+00 0. -1.
</event>
<event>
 7    1  0.5109948E-006  0.1058361E+03  0.7561462E-02  0.1268481E+00
          1   -1    0    0  501    0  0.00000000000E+00  0.00000000000E+00  0.56212872759E+03  0.56212872759E+03  0.00000000000E+00 0. -1.
         -1   -1    0    0    0  501 -0.00000000000E+00 -0.00000000000E+00 -0.25995708520E+02  0.25995708520E+02  0.00000000000E+00 0.  1.
         23    2    1    2    0    0 -0.64762274936E+01  0.51994275764E+02  0.31383634935E+03  0.34188115272E+03  0.12507646531E+03 0.  0.
          5    1    3    3  502    0 -0.61985516797E+02  0.48586355586E+02  0.20354738244E+03  0.21829303136E+03  0.41800000000E+01 0.  1.
         -5    1    3    3    0  502  0.55509289303E+02  0.34079201785E+01  0.11028896691E+03  0.12358812136E+03  0.41800000000E+01 0.  1.
        -11    1    1    2    0    0 -0.17531935486E+02  0.22856751462E+01  0.16543491801E+01  0.17757532035E+02  0.00000000000E+00 0.  1.
         11    1    1    2    0    0  0.24008162980E+02 -0.54279950911E+02  0.22064232054E+03  0.22848575136E+03  0.00000000000E+00 0. -1.
</event>
<event>
 7    1  0.5109948E-006  0.2686705E+03  0.7561462E-02  0.1102043E+00
          1   -1    0    0  501    0  0.00000000000E+00  0.00000000000E+00  0.53751138637E+03  0.53751138637E+03  0.00000000000E+00 0. -1.
         -1   -1    0    0    0  501 -0.00000000000E+00 -0.00000000000E+00 -0.32262555406E+03  0.32262555406E+03  0.00000000000E+00 0.  1.
         23    2    1    2    0    0 -0.37211450534E+02 -0.25865196057E+03 -0.20698030221E+03  0.35605263839E+03  0.12508839690E+03 0.  0.
          5    1    3    3  502    0 -0.22770344466E+02 -0.10085858984E+02  0.86039264492E+01  0.26677951362E+02  0.41800000000E+01 0. -1.
         -5    1    3    3    0  502 -0.14441106068E+02 -0.24856610159E+03 -0.21558422866E+03  0.32937468702E+03  0.41800000000E+01 0. -1.
        -11    1    1    2    0    0  0.75993423585E+01  0.15718339801E+03  0.17391950551E+03  0.23454714880E+03  0.00000000000E+00 0.  1.
         11    1    1    2    0    0  0.29612108176E+02  0.10146856256E+03  0.24794662902E+03  0.26953715325E+03  0.00000000000E+00 0. -1.
</event>
<event>
 7    1  0.5109948E-006  0.1411225E+03  0.7561462E-02  0.1211827E+00
          2   -1    0    0  501    0  0.00000000000E+00  0.00000000000E+00  0.16195801492E+03  0.16195801492E+03  0.00000000000E+00 0. -1.
         -2   -1    0    0    0  501 -0.00000000000E+00 -0.00000000000E+00 -0.17033949676E+03  0.17033949676E+03  0.00000000000E+00 0.  1.
         23    2    1    2    0    0  0.29935842955E+02  0.87642138398E+02 -0.84544413333E+02  0.17712487311E+03  0.12509262061E+03 0.  0.
          5    1    3    3  502    0  0.35965159203E+02  0.11818513969E+03 -0.73606791621E+02  0.14386331044E+03  0.41800000000E+01 0.  1.
         -5    1    3    3    0  502 -0.60293162484E+01 -0.30543001288E+02 -0.10937621712E+02  0.33261562663E+02  0.41800000000E+01 0.  1.
        -11    1    1    2    0    0  0.27235350338E+02 -0.65586850930E+01  0.41518300197E+02  0.50085426118E+02  0.00000000000E+00 0. -1.
         11    1    1    2    0    0 -0.57171193293E+02 -0.81083453305E+02  0.34644631294E+02  0.10508721245E+03  0.00000000000E+00 0.  1.
</event>
<event>
 7    1  0.5109948E-006  0.6680997E+02  0.7561462E-02  0.1371290E+00
          1   -1    0    0  501    0  0.00000000000E+00  0.00000000000E+00  0.33954828092E+03  0.33954828092E+03  0.00000000000E+00 0.  1.
         -1   -1    0    0    0  501 -0.00000000000E+00 -0.00000000000E+00 -0.35328196145E+02  0.35328196145E+02  0.00000000000E+00 0. -1.
         23    2    1    2    0    0  0.13422658997E+02 -0.12855524399E+02  0.17100488281E+03  0.21268553588E+03  0.12508810873E+03 0.  0.
          5    1    3    3  502    0  0.37575452647E+02  0.69422573952E+01  0.17655584622E+03  0.18069186151E+03  0.41800000000E+01 0. -1.
         -5    1    3    3    0  502 -0.24152793649E+02 -0.19797781795E+02 -0.55509634119E+01  0.31993674372E+02  0.41800000000E+01 0. -1.
        -11    1    1    2    0    0  0.70718675757E+01 -0.22071196146E+02  0.11582182082E+03  0.11811792069E+03  0.00000000000E+00 0.  1.
         11    1    1    2    0    0 -0.20494526573E+02  0.34926720545E+02  0.17393381135E+02  0.44073020487E+02  0.00000000000E+00 0. -1.
</event>
<event>
 7    1  0.5109948E-006  0.1419446E+03  0.7561462E-02  0.1210736E+00
          2   -1    0    0  501    0  0.00000000000E+00  0.00000000000E+00  0.90154384663E+02  0.90154384663E+02  0.00000000000E+00 0. -1.
         -2   -1    0    0    0  501 -0.00000000000E+00 -0.00000000000E+00 -0.23589412963E+03  0.23589412963E+03  0.00000000000E+00 0.  1.
         23    2    1    2    0    0 -0.25507040925E+02  0.95858573308E+02 -0.59810675349E+02  0.16738212849E+03  0.12083039699E+03 0.  0.
          5    1    3    3  502    0 -0.60725036083E+02  0.80133673438E+01 -0.27702917166E+02  0.67354792576E+02  0.41800000000E+01 0. -1.
         -5    1    3    3    0  502  0.35217995158E+02  0.87845205964E+02 -0.32107758183E+02  0.10002733591E+03  0.41800000000E+01 0.  1.
        -11    1    1    2    0    0 -0.29425174133E+02 -0.30425785267E+02 -0.80965921393E+01  0.43094362580E+02  0.00000000000E+00 0. -1.
         11    1    1    2    0    0  0.54932215058E+02 -0.65432788040E+02 -0.77832477475E+02  0.11557202322E+03  0.00000000000E+00 0.  1.
</event>
<event>
 7    1  0.5109948E-006  0.1257462E+03  0.7561462E-02  0.1233908E+00
          4   -1    0    0  501    0  0.00000000000E+00  0.00000000000E+00  0.29500098403E+03  0.29500098403E+03  0.00000000000E+00 0. -1.
         -4   -1    0    0    0  501 -0.00000000000E+00 -0.00000000000E+00 -0.74606130433E+02  0.74606130433E+02  0.00000000000E+00 0.  1.
         23    2    1    2    0    0 -0.38334637282E+02 -0.78325895173E+02  0.55229579615E+02  0.16218120018E+03  0.12509174617E+03 0.  0.
          5    1    3    3  502    0  0.39576253306E+02 -0.13026798717E+01  0.91475408721E+00  0.39828205780E+02  0.41800000000E+01 0. -1.
         -5    1    3    3    0  502 -0.77910890588E+02 -0.77023215302E+02  0.54314825528E+02  0.12235299440E+03  0.41800000000E+01 0. -1.
        -11    1    1    2    0    0  0.51864558894E+02  0.61708966049E+02  0.16748319618E+03  0.18587240237E+03  0.00000000000E+00 0. -1.
         11    1    1    2    0    0 -0.13529921612E+02  0.16616929125E+02 -0.23179221956E+01  0.21553511910E+02  0.00000000000E+00 0.  1.
</event>
<event>
 6    1  0.5109948E-006  0.9816461E+02  0.7561462E-02  0.1284204E+00
         -2   -1    0    0    0  501 -0.00000000000E+00  0.00000000000E+00  0.20454949881E+02  0.20454949881E+02  0.00000000000E+00 0.  1.
          2   -1    0    0  501    0  0.00000000000E+00 -0.00000000000E+00 -0.92530675591E+03  0.92530675591E+03  0.00000000000E+00 0. -1.
          5    1    1    2  502    0  0.49348327985E+02  0.10782070571E+02 -0.54593440414E+03  0.54828218696E+03  0.41800000000E+01 0. -1.
         -5    1    1    2    0  502 -0.12176705144E+02  0.46875873626E+02 -0.57707763007E+02  0.75453813605E+02  0.41800000000E+01 0.  1.
        -11    1    1    2    0    0 -0.56333768503E+02 -0.31300063354E+02 -0.26744686965E+03  0.27510182755E+03  0.00000000000E+00 0.  1.
         11    1    1    2    0    0  0.19162145661E+02 -0.26357880844E+02 -0.33762769241E+02  0.46923877672E+02  0.00000000000E+00 0. -1.
</event>
<event>
 6    1  0.5109948E-006  0.1180260E+03  0.7561462E-02  0.1246390E+00
          1   -1    0    0  501    0  0.00000000000E+00  0.00000000000E+00  0.49245090683E+03  0.49245090683E+03  0.00000000000E+00 0. -1.
         -1   -1    0    0    0  501 -0.00000000000E+00 -0.00000000000E+00 -0.70474798504E+02  0.70474798504E+02  0.00000000000E+00 0.  1.
          5    1    1    2  502    0  0.92350311315E+01 -0.56287160526E+02  0.14959350794E+03  0.16015373944E+03  0.41800000000E+01 0. -1.
         -5    1    1    2    0  502 -0.58206717832E+02  0.67345811763E+02 -0.20778793438E+02  0.91502519198E+02  0.41800000000E+01 0.  1.
        -11    1    1    2    0    0  0.36127334565E+02  0.29853719577E+02  0.71447976130E+02  0.85447306385E+02  0.00000000000E+00 0.  1.
         11    1    1    2    0    0  0.12844352135E+02 -0.40912370815E+02  0.22171341770E+03  0.22582214031E+03  0.00000000000E+00 0. -1.
</event>
<event>
 7    1  0.5109948E-006  0.1137810E+03  0.7561462E-02  0.1253724E+00
          2   -1    0    0  501    0  0.00000000000E+00  0.00000000000E+00  0.12613594729E+03  0.12613594729E+03  0.00000000000E+00 0. -1.
         -2   -1    0    0    0  501 -0.00000000000E+00 -0.00000000000E+00 -0.16193229443E+03  0.16193229443E+03  0.00000000000E+00 0.  1.
         23    2    1    2    0    0  0.36450263567E+02 -0.85967770660E+02 -0.22507301922E+02  0.15771248764E+03  0.12509025066E+03 0.  0.
          5    1    3    3  502    0  0.15565003544E+02 -0.98157983834E+02  0.26467203528E+02  0.10293320353E+03  0.41800000000E+01 0.  1.
         -5    1    3    3    0  502  0.20885260023E+02  0.12190213174E+02 -0.48974505450E+02  0.54779284109E+02  0.41800000000E+01 0.  1.
        -11    1    1    2    0    0 -0.19128404295E+02  0.37076220483E+01  0.30021812881E+02  0.35790383636E+02  0.00000000000E+00 0. -1.
         11    1    1    2    0    0 -0.17321859272E+02  0.82260148611E+02 -0.43310858096E+02  0.94565370444E+02  0.00000000000E+00 0.  1.
</event>
<event>
 7    1  0.5109948E-006  0.1683500E+03  0.7561462E-02  0.1179580E+00
         -2   -1    0    0    0  501 -0.00000000000E+00  0.00000000000E+00  0.76737764936E+02  0.76737764936E+02  0.00000000000E+00 0.  1.
          2   -1    0    0  501    0  0.00000000000E+00 -0.00000000000E+00 -0.56686963538E+03  0.56686963538E+03  0.00000000000E+00 0. -1.
         23    2    1    2    0    0  0.99023380163E+02  0.11070551620E+03 -0.10435199872E+03  0.22045191917E+03  0.12509343665E+03 0.  0.
          5    1    3    3  502    0  0.22005449489E+02 -0.68310021127E+01  0.21481066510E+02  0.31777523747E+02  0.41800000000E+01 0.  1.
         -5    1    3    3    0  502  0.77017930674E+02  0.11753651831E+03 -0.12583306523E+03  0.18867439542E+03  0.41800000000E+01 0.  1.
        -11    1    1    2    0    0 -0.30648057816E+02  0.11442553470E+02 -0.94092739062E+02  0.99617664206E+02  0.00000000000E+00 0.  1.
         11    1    1    2    0    0 -0.68375322347E+02 -0.12214806967E+03 -0.29168713266E+03  0.32353781694E+03  0.00000000000E+00 0. -1.
</event>
<event>
 6    1  0.5109948E-006  0.9948808E+02  0.7561462E-02  0.1281376E+00
         -2   -1    0    0    0  501 -0.00000000000E+00  0.00000000000E+00  0.13445213501E+03  0.13445213501E+03  0.00000000000E+00 0.  1.
          2   -1    0    0  501    0  0.00000000000E+00 -0.00000000000E+00 -0.28660561612E+03  0.28660561612E+03  0.00000000000E+00 0. -1.
          5    1    1    2  502    0 -0.52898258330E+01 -0.29973233475E+02 -0.39398845593E+02  0.49961169085E+02  0.41800000000E+01 0. -1.
         -5    1    1    2    0  502  0.50313413723E+02  0.43280665304E+02  0.10197156607E+03  0.12173877064E+03  0.41800000000E+01 0.  1.
        -11    1    1    2    0    0 -0.44090427782E+02  0.33228545896E+02 -0.39060007610E+02  0.67629773613E+02  0.00000000000E+00 0.  1.
         11    1    1    2    0    0 -0.93316010804E+00 -0.46535977725E+02 -0.17566619399E+03  0.18172803779E+03  0.00000000000E+00 0. -1.
</event>
<event>
 7    1  0.5109948E-006  0.2114864E+03  0.7561462E-02  0.1140394E+00
          2   -1    0    0  501    0  0.00000000000E+00  0.00000000000E+00  0.13011329313E+03  0.13011329313E+03  0.00000000000E+00 0. -1.
         -2   -1    0    0    0  501 -0.00000000000E+00 -0.00000000000E+00 -0.48099320498E+03  0.48099320498E+03  0.00000000000E+00 0.  1.
         23    2    1    2    0    0 -0.18174828348E+03  0.52483684051E+02 -0.32561202685E+03  0.39681015969E+03  0.12509250642E+03 0.  0.
          5    1    3    3  502    0 -0.15424283454E+03 -0.35251405600E+01 -0.17276794660E+03  0.23166681764E+03  0.41800000000E+01 0.  1.
         -5    1    3    3    0  502 -0.27505448941E+02  0.56008824611E+02 -0.15284408025E+03  0.16514334205E+03  0.41800000000E+01 0.  1.
        -11    1    1    2    0    0  0.47644563478E+02  0.22238290516E+02 -0.30324607779E+02  0.60697016657E+02  0.00000000000E+00 0.  1.
         11    1    1    2    0    0  0.13410372000E+03 -0.74721974567E+02  0.50567227768E+01  0.15359932177E+03  0.00000000000E+00 0. -1.
</event>
<event>
 7    1  0.5109948E-006  0.1644002E+03  0.7561462E-02  0.1183817E+00
         -2   -1    0    0    0  501 -0.00000000000E+00  0.00000000000E+00  0.25004585461E+03  0.25004585461E+03  0.00000000000E+00 0.  1.
          2   -1    0    0  501    0  0.00000000000E+00 -0.00000000000E+00 -0.14010707964E+03  0.14010707964E+03  0.00000000000E+00 0. -1.
         23    2    1    2    0    0  0.48625102903E+02 -0.13520510895E+03  0.10908220226E+03  0.21952741038E+03  0.12509410434E+03 0.  0.
          5    1    3    3  502    0  0.26174922856E+02  0.90749900145E+01 -0.11328688090E+02  0.30220747908E+02  0.41800000000E+01 0.  1.
         -5    1    3    3    0  502  0.22450180047E+02 -0.14428009897E+03  0.12041089035E+03  0.18930666248E+03  0.41800000000E+01 0.  1.
        -11    1    1    2    0    0 -0.61506377632E+02  0.10224278918E+03  0.31945354725E+02  0.12351974788E+03  0.00000000000E+00 0.  1.
         11    1    1    2    0    0  0.12881274729E+02  0.32962319775E+02 -0.31088782017E+02  0.47105775982E+02  0.00000000000E+00 0. -1.
</event>
<event>
 6    1  0.5109948E-006  0.1436163E+03  0.7561462E-02  0.1208544E+00
          1   -1    0    0  501    0  0.00000000000E+00  0.00000000000E+00  0.16562459397E+03  0.16562459397E+03  0.00000000000E+00 0. -1.
         -1   -1    0    0    0  501 -0.00000000000E+00 -0.00000000000E+00 -0.15025894844E+03  0.15025894844E+03  0.00000000000E+00 0.  1.
          5    1    1    2  502    0  0.89239989251E+02 -0.83370690281E+02 -0.36892930692E+02  0.12764406925E+03  0.41800000000E+01 0. -1.
         -5    1    1    2    0  502 -0.26119621681E+02  0.47227648428E+02 -0.11953380439E+02  0.55435017063E+02  0.41800000000E+01 0.  1.
        -11    1    1    2    0    0 -0.75767773325E+02  0.51046156002E+02  0.66677404230E+02  0.11310323493E+03  0.00000000000E+00 0.  1.
         11    1    1    2    0    0  0.12647405756E+02 -0.14903114148E+02 -0.24654475647E+01  0.19701221164E+02  0.00000000000E+00 0. -1.
</event>
<event>
 7    1  0.5109948E-006  0.7637761E+02  0.7561462E-02  0.1339657E+00
          1   -1    0    0  501    0  0.00000000000E+00  0.00000000000E+00  0.50225573288E+03  0.50225573288E+03  0.00000000000E+00 0. -1.
         -1   -1    0    0    0  501 -0.00000000000E+00 -0.00000000000E+00 -0.31583377608E+02  0.31583377608E+02  0.00000000000E+00 0.  1.
         23    2    1    2    0    0 -0.28764695747E+02  0.56981555802E+02  0.25706845692E+03  0.29293167573E+03  0.12510183723E+03 0.  0.
          5    1    3    3  502    0 -0.29303323075E+02  0.66856101335E+02  0.26788954950E+03  0.27768814551E+03  0.41800000000E+01 0. -1.
         -5    1    3    3    0  502  0.53862732775E+00 -0.98745455332E+01 -0.10821092577E+02  0.15243530216E+02  0.41800000000E+01 0. -1.
        -11    1    1    2    0    0  0.15619258625E+02 -0.68119957030E+01 -0.37531787659E+01  0.17448520748E+02  0.00000000000E+00 0.  1.
         11    1    1    2    0    0  0.13145437122E+02 -0.50169560099E+02  0.21735707711E+03  0.22345891401E+03  0.00000000000E+00 0. -1.
</event>
<event>
 7    1  0.5109948E-006  0.1117523E+03  0.7561462E-02  0.1257359E+00
          2   -1    0    0  501    0  0.00000000000E+00  0.00000000000E+00  0.21998245758E+03  0.21998245758E+03  0.00000000000E+00 0. -1.
         -2   -1    0    0    0  501 -0.00000000000E+00 -0.00000000000E+00 -0.72932901298E+02  0.72932901298E+02  0.00000000000E+00 0.  1.
         23    2    1    2    0    0  0.35376988525E+01  0.44449503089E+02  0.27531664143E+02  0.13562238177E+03  0.12508862566E+03 0.  0.
          5    1    3    3  502    0  0.47334612233E+02  0.67444272651E+02  0.23661058055E+02  0.85828978189E+02  0.41800000000E+01 0. -1.
         -5    1    3    3    0  502 -0.43796913380E+02 -0.22994769562E+02  0.38706060881E+01  0.49793403582E+02  0.41800000000E+01 0. -1.
        -11    1    1    2    0    0  0.37222048404E+02 -0.11534115508E+02  0.17726935163E+02  0.42810757272E+02  0.00000000000E+00 0.  1.
         11    1    1    2    0    0 -0.40759747257E+02 -0.32915387581E+02  0.10179095698E+03  0.11448221983E+03  0.00000000000E+00 0. -1.
</event>
<event>
 7    1  0.5109948E-006  0.5839854E+02  0.7561462E-02  0.1404678E+00
          1   -1    0    0  501    0  0.00000000000E+00  0.00000000000E+00  0.32430547097E+03  0.32430547097E+03  0.00000000000E+00 0. -1.
         -1   -1    0    0    0  501 -0.00000000000E+00 -0.00000000000E+00 -0.45089420365E+02  0.45089420365E+02  0.00000000000E+00 0.  1.
         23    2    1    2    0    0  0.32826399227E+02  0.20154607940E+02  0.98672179724E+02  0.16391596255E+03  0.12509381688E+03 0.  0.
          5    1    3    3  502    0  0.20123341942E+02  0.21037466697E+02 -0.25558460312E+02  0.38964486259E+02  0.41800000000E+01 0. -1.
         -5    1    3    3    0  502  0.12703057285E+02 -0.88285875730E+00  0.12423064004E+03  0.12495147629E+03  0.41800000000E+01 0. -1.
        -11    1    1    2    0    0 -0.45945565157E+02  0.43884416845E+01  0.36698840463E+02  0.58966586041E+02  0.00000000000E+00 0.  1.
         11    1    1    2    0    0  0.13119165930E+02 -0.24543049624E+02  0.14384503041E+03  0.14651234274E+03  0.00000000000E+00 0. -1.
</event>
<event>
 7    1  0.5109948E-006  0.1368064E+03  0.7561462E-02  0.1217692E+00
          1   -1    0    0  501    0  0.00000000000E+00  0.00000000000E+00  0.56937199225E+03  0.56937199225E+03  0.00000000000E+00 0. -1.
         -1   -1    0    0    0  501 -0.00000000000E+00 -0.00000000000E+00 -0.46660515755E+02  0.46660515755E+02  0.00000000000E+00 0.  1.
         23    2    1    2    0    0  0.10776786383E+03  0.45808636973E+02  0.34118227133E+03  0.38179173699E+03  0.12508894621E+03 0.  0.
          5    1    3    3  502    0  0.31542178913E+02  0.44392358015E+02  0.31957489798E+02  0.63279886654E+02  0.41800000000E+01 0.  1.
         -5    1    3    3    0  502  0.76225684921E+02  0.14162789575E+01  0.30922478154E+03  0.31851185034E+03  0.41800000000E+01 0.  1.
        -11    1    1    2    0    0 -0.39784400233E+01 -0.38381658733E+02  0.80197243245E+02  0.88997626577E+02  0.00000000000E+00 0. -1.
         11    1    1    2    0    0 -0.10378942381E+03 -0.74269782395E+01  0.10133196191E+03  0.14524314444E+03  0.00000000000E+00 0.  1.
</event>
<event>
 7    1  0.5109948E-006  0.1381884E+03  0.7561462E-02  0.1215788E+00
         -1   -1    0    0    0  501 -0.00000000000E+00  0.00000000000E+00  0.14361970280E+03  0.14361970280E+03  0.00000000000E+00 0.  1.
          1   -1    0    0  501    0  0.00000000000E+00 -0.00000000000E+00 -0.13563431586E+03  0.13563431586E+03  0.00000000000E+00 0. -1.
         23    2    1    2    0    0 -0.53905116593E+01  0.85835075746E+02  0.19887242998E+02  0.15306407163E+03  0.12504555069E+03 0.  0.
          5    1    3    3  502    0  0.37201605734E+02 -0.15780051899E+02  0.12725483248E+02  0.42572054578E+02  0.41800000000E+01 0.  1.
         -5    1    3    3    0  502 -0.42592117393E+02  0.10161512765E+03  0.71617597502E+01  0.11049201706E+03  0.41800000000E+01 0.  1.
        -11    1    1    2    0    0 -0.35977414261E+02 -0.72753169905E+01 -0.61560211529E+01  0.37218290808E+02  0.00000000000E+00 0.  1.
         11    1    1    2    0    0  0.41367925920E+02 -0.78559758756E+02 -0.57458349018E+01  0.88971656214E+02  0.00000000000E+00 0. -1.
</event>
<event>
 6    1  0.5109948E-006  0.9498884E+02  0.7561462E-02  0.1291201E+00
          3   -1    0    0  501    0  0.00000000000E+00  0.00000000000E+00  0.13363644746E+03  0.13363644746E+03  0.00000000000E+00 0. -1.
         -3   -1    0    0    0  501 -0.00000000000E+00 -0.00000000000E+00 -0.10326672867E+03  0.10326672867E+03  0.00000000000E+00 0.  1.
          5    1    1    2  502    0  0.14769203204E+02  0.66781987468E+02  0.34411650919E+02  0.76678532409E+02  0.41800000000E+01 0. -1.
         -5    1    1    2    0  502 -0.28240508577E+02 -0.27037062759E+02 -0.49372116435E+02  0.63115825025E+02  0.41800000000E+01 0.  1.
        -11    1    1    2    0    0  0.18087290616E+02 -0.59323639298E+02  0.20864081806E+02  0.65435114205E+02  0.00000000000E+00 0.  1.
         11    1    1    2    0    0 -0.46159852435E+01  0.19578714590E+02  0.24466102502E+02  0.31673704494E+02  0.00000000000E+00 0. -1.
</event>
<event>
 6    1  0.5109948E-006  0.1094274E+03  0.7561462E-02  0.1261634E+00
         -2   -1    0    0    0  501 -0.00000000000E+00  0.00000000000E+00  0.18694328313E+03  0.18694328313E+03  0.00000000000E+00 0.  1.
          2   -1    0    0  501    0  0.00000000000E+00 -0.00000000000E+00 -0.20471862717E+03  0.20471862717E+03  0.00000000000E+00 0. -1.
          5    1    1    2  502    0 -0.19781971828E+02  0.19702861158E+02 -0.60778368132E+02  0.67015010109E+02  0.41800000000E+01 0. -1.
         -5    1    1    2    0  502  0.72330464009E+02  0.24968375070E+02  0.14968890813E+03  0.16816467345E+03  0.41800000000E+01 0.  1.
        -11    1    1    2    0    0 -0.15398831546E+02  0.28237267837E+02 -0.23812859662E+02  0.40018990406E+02  0.00000000000E+00 0.  1.
         11    1    1    2    0    0 -0.37149660635E+02 -0.72908504065E+02 -0.82873024377E+02  0.11646323634E+03  0.00000000000E+00 0. -1.
</event>
<event>
 7    1  0.5109948E-006  0.2326774E+03  0.7561462E-02  0.1124769E+00
         -2   -1    0    0    0  501 -0.00000000000E+00  0.00000000000E+00  0.23161404614E+03  0.23161404614E+03  0.00000000000E+00 0.  1.
          2   -1    0    0  501    0  0.00000000000E+00 -0.00000000000E+00 -0.29886113320E+03  0.29886113320E+03  0.00000000000E+00 0. -1.
         23    2    1    2    0    0  0.98263290892E+02 -0.18591848852E+03  0.80544245332E+02  0.25760884561E+03  0.12511428044E+03 0.  0.
          5    1    3    3  502    0  0.12162568238E+03 -0.18251146504E+03  0.64110185941E+02  0.22854065246E+03  0.41800000000E+01 0. -1.
         -5    1    3    3    0  502 -0.23362391485E+02 -0.34070234763E+01  0.16434059390E+02  0.29068193148E+02  0.41800000000E+01 0. -1.
        -11    1    1    2    0    0 -0.48294819373E+02  0.26797060633E+02 -0.91494969543E+01  0.55983795257E+02  0.00000000000E+00 0.  1.
         11    1    1    2    0    0 -0.49968471520E+02  0.15912142789E+03 -0.13864183544E+03  0.21688253847E+03  0.00000000000E+00 0. -1.
</event>
<event>
 7    1  0.5109948E-006  0.2354143E+03  0.7561462E-02  0.1122886E+00
         -1   -1    0    0    0  501 -0.00000000000E+00  0.00000000000E+00  0.10264574133E+04  0.10264574133E+04  0.00000000000E+00 0.  1.
          1   -1    0    0  501    0  0.00000000000E+00 -0.00000000000E+00 -0.10872121224E+03  0.10872121224E+03  0.00000000000E+00 0. -1.
         23    2    1    2    0    0  0.16340711895E+02  0.21750211451E+03  0.85413721711E+03  0.89037714826E+03  0.12508753655E+03 0.  0.
          5    1    3    3  502    0  0.35222676947E+02  0.22088562056E+03  0.69711766528E+03  0.73213496432E+03  0.41800000000E+01 0. -1.
         -5    1    3    3    0  502 -0.18881965052E+02 -0.33835060528E+01  0.15701955184E+03  0.15824218393E+03  0.41800000000E+01 0. -1.
        -11    1    1    2    0    0  0.22923824934E+02 -0.12346410412E+03  0.67993708369E+02  0.14280066923E+03  0.00000000000E+00 0. -1.
         11    1    1    2    0    0 -0.39264536829E+02 -0.94038010387E+02 -0.43947243798E+01  0.10200080810E+03  0.00000000000E+00 0.  1.
</event>
<event>
 7    1  0.5109948E-006  0.2050827E+03  0.7561462E-02  0.1145520E+00
          1   -1    0    0  501    0  0.00000000000E+00  0.00000000000E+00  0.10669252309E+03  0.10669252309E+03  0.00000000000E+00 0. -1.
         -1   -1    0    0    0  501 -0.00000000000E+00 -0.00000000000E+00 -0.61660963947E+03  0.61660963947E+03  0.00000000000E+00 0.  1.
         23    2    1    2    0    0  0.17948082822E+03  0.86361408205E+02 -0.43313591284E+03  0.49287456313E+03  0.12508779102E+03 0.  0.
          5    1    3    3  502    0  0.40325163681E+02  0.15573837500E+02 -0.24284202705E+03  0.24669492443E+03  0.41800000000E+01 0.  1.
         -5    1    3    3    0  502  0.13915566453E+03  0.70787570706E+02 -0.19029388579E+03  0.24617963870E+03  0.41800000000E+01 0.  1.
        -11    1    1    2    0    0 -0.20665989760E+02 -0.40143967994E+02  0.58573235695E+01  0.45529435956E+02  0.00000000000E+00 0. -1.
         11    1    1    2    0    0 -0.15881483846E+03 -0.46217440212E+02 -0.82638527108E+02  0.18489816347E+03  0.00000000000E+00 0.  1.
</event>
<event>
 7    1  0.5109948E-006  0.1348078E+03  0.7561462E-02  0.1220491E+00
         -1   -1    0    0    0  501 -0.00000000000E+00  0.00000000000E+00  0.30795410132E+03  0.30795410132E+03  0.00000000000E+00 0.  1.
          1   -1    0    0  501    0  0.00000000000E+00 -0.00000000000E+00 -0.68931351105E+02  0.68931351105E+02  0.00000000000E+00 0. -1.
         23    2    1    2    0    0  0.81928073017E+02 -0.50910191514E+02  0.14648120111E+03  0.21542724771E+03  0.12509236598E+03 0.  0.
          5    1    3    3  502    0  0.24050459252E+02 -0.85359749855E+02  0.98612273808E+02  0.13268972994E+03  0.41800000000E+01 0.  1.
         -5    1    3    3    0  502  0.57877613765E+02  0.34449558340E+02  0.47868927306E+02  0.82737517768E+02  0.41800000000E+01 0.  1.
        -11    1    1    2    0    0 -0.26628576588E+02  0.51578269740E+02  0.88721199056E+02  0.10602287566E+03  0.00000000000E+00 0.  1.
         11    1    1    2    0    0 -0.55299496430E+02 -0.66807822569E+00  0.38203500452E+01  0.55435329063E+02  0.00000000000E+00 0. -1.
</event>
<event>
 7    1  0.5467084E-006  0.1561236E+03  0.7561462E-02  0.1193144E+00
         -2   -1    0    0    0  501 -0.00000000000E+00  0.00000000000E+00  0.27478315173E+02  0.27478315173E+02  0.00000000000E+00 0.  1.
          2   -1    0    0  501    0  0.00000000000E+00 -0.00000000000E+00 -0.10898502488E+04  0.10898502488E+04  0.00000000000E+00 0. -1.
         23    2    1    2    0    0 -0.52962424305E+02 -0.12141387193E+03 -0.48349879115E+03  0.51668648366E+03  0.12508994632E+03 0.  0.
          5    1    3    3  502    0  0.18834943984E+02 -0.99453997153E+02 -0.33869593840E+03  0.35352264956E+03  0.41800000000E+01 0.  1.
         -5    1    3    3    0  502 -0.71797368289E+02 -0.21959874779E+02 -0.14480285275E+03  0.16316383410E+03  0.41800000000E+01 0.  1.
        -11    1    1    2    0    0 -0.31488590629E+01  0.16179741593E+02 -0.97353705647E+01  0.19143583558E+02  0.00000000000E+00 0.  1.
         11    1    1    2    0    0  0.56111283368E+02  0.10523413034E+03 -0.56913777196E+03  0.58149849680E+03  0.00000000000E+00 0. -1.
</event>
<event>
 7    1  0.5109948E-006  0.9163073E+02  0.7561462E-02  0.1298950E+00
         -2   -1    0    0    0  501 -0.00000000000E+00  0.00000000000E+00  0.14503505848E+03  0.14503505848E+03  0.00000000000E+00 0.  1.
          2   -1    0    0  501    0  0.00000000000E+00 -0.00000000000E+00 -0.13588980919E+03  0.13588980919E+03  0.00000000000E+00 0. -1.
         23    2    1    2    0    0 -0.29110148562E+02  0.40945960474E+02  0.74546021746E+02  0.15376222453E+03  0.12474670299E+03 0.  0.
          5    1    3    3  502    0 -0.46510354041E+02  0.88193460163E+01  0.98851292529E+02  0.10968155876E+03  0.41800000000E+01 0. -1.
         -5    1    3    3    0  502  0.17400205479E+02  0.32126614458E+02 -0.24305270784E+02  0.44080665774E+02  0.41800000000E+01 0. -1.
        -11    1    1    2    0    0  0.56767814320E+02 -0.43021821864E+02 -0.20038641288E+02  0.73993304047E+02  0.00000000000E+00 0.  1.
         11    1    1    2    0    0 -0.27657665758E+02  0.20758613897E+01 -0.45362131166E+02  0.53169339093E+02  0.00000000000E+00 0. -1.
</event>
<event>
 7    1  0.5109948E-006  0.8983452E+02  0.7561462E-02  0.1303253E+00
          2   -1    0    0  501    0  0.00000000000E+00  0.00000000000E+00  0.32029875635E+03  0.32029875635E+03  0.00000000000E+00 0. -1.
         -2   -1    0    0    0  501 -0.00000000000E+00 -0.00000000000E+00 -0.39050251330E+02  0.39050251330E+02  0.00000000000E+00 0.  1.
         23    2    1    2    0    0  0.20072387833E+02 -0.21907795880E+02  0.14790789177E+03  0.19597662030E+03  0.12508892431E+03 0.  0.
          5    1    3    3  502    0  0.48736460580E+02 -0.59213234992E+02  0.65264536817E+02  0.10078879875E+03  0.41800000000E+01 0.  1.
         -5    1    3    3    0  502 -0.28664072747E+02  0.37305439113E+02  0.82643354952E+02  0.95187821551E+02  0.41800000000E+01 0.  1.
        -11    1    1    2    0    0 -0.14198013266E+02  0.36896803230E+02  0.14035134263E+03  0.14581308943E+03  0.00000000000E+00 0. -1.
         11    1    1    2    0    0 -0.58743745674E+01 -0.14989007350E+02 -0.70107293844E+01  0.17559297947E+02  0.00000000000E+00 0.  1.
</event>
<event>
 6    1  0.5109948E-006  0.9415916E+02  0.7561462E-02  0.1293081E+00
         -2   -1    0    0    0  501 -0.00000000000E+00  0.00000000000E+00  0.24975420246E+02  0.24975420246E+02  0.00000000000E+00 0.  1.
          2   -1    0    0  501    0  0.00000000000E+00 -0.00000000000E+00 -0.10132215880E+04  0.10132215880E+04  0.00000000000E+00 0. -1.
          5    1    1    2  502    0 -0.84322888525E+02 -0.21793514796E+01 -0.70622766087E+03  0.71125950291E+03  0.41800000000E+01 0. -1.
         -5    1    1    2    0  502  0.39674188159E+02 -0.21310617518E+02 -0.72858893504E+01  0.45812009438E+02  0.41800000000E+01 0.  1.
        -11    1    1    2    0    0  0.25999305827E+02  0.29232216067E+02 -0.15787984485E+03  0.16265463956E+03  0.00000000000E+00 0.  1.
         11    1    1    2    0    0  0.18649394539E+02 -0.57422470694E+01 -0.11685277266E+03  0.11847085631E+03  0.00000000000E+00 0. -1.
</event>
<event>
 7    1  0.5109948E-006  0.7351396E+02  0.7561462E-02  0.1348536E+00
         -2   -1    0    0    0  501 -0.00000000000E+00  0.00000000000E+00  0.17223768181E+03  0.17223768181E+03  0.00000000000E+00 0.  1.
          2   -1    0    0  501    0  0.00000000000E+00 -0.00000000000E+00 -0.74634381950E+02  0.74634381950E+02  0.00000000000E+00 0. -1.
         23    2    1    2    0    0  0.15429614607E+02 -0.16673876395E+02  0.93265228252E+02  0.15768460463E+03  0.12509972253E+03 0.  0.
          5    1    3    3  502    0 -0.25850401820E+02 -0.56493157624E+02  0.21840639037E+02  0.65986408041E+02  0.41800000000E+01 0.  1.
         -5    1    3    3    0  502  0.41280016427E+02  0.39819281230E+02  0.71424589214E+02  0.91698196592E+02  0.41800000000E+01 0.  1.
        -11    1    1    2    0    0 -0.27406420613E+01  0.14025965704E+02 -0.40271866939E+02  0.42732447853E+02  0.00000000000E+00 0. -1.
         11    1    1    2    0    0 -0.12688972546E+02  0.26479106910E+01  0.44609938546E+02  0.46455011273E+02  0.00000000000E+00 0.  1.
</event>
<event>
 7    1  0.5109948E-006  0.2488958E+03  0.7561462E-02  0.1114005E+00
          1   -1    0    0  501    0  0.00000000000E+00  0.00000000000E+00  0.33879993745E+03  0.33879993745E+03  0.00000000000E+00 0. -1.
         -1   -1    0    0    0  501 -0.00000000000E+00 -0.00000000000E+00 -0.20477115686E+03  0.20477115686E+03  0.00000000000E+00 0.  1.
         23    2    1    2    0    0 -0.13893833511E+03 -0.18488024650E+03  0.38561220769E+01  0.26295128085E+03  0.12507573671E+03 0.  0.
          5    1    3    3  502    0 -0.14556515508E+03 -0.10317065410E+03  0.19017318304E+02  0.17947849185E+03  0.41800000000E+01 0. -1.
         -5    1    3    3    0  502  0.66268199668E+01 -0.81709592402E+02 -0.15161196227E+02  0.83472789006E+02  0.41800000000E+01 0. -1.
        -11    1    1    2    0    0  0.52940325799E+02  0.11437718659E+03  0.26932810891E+02  0.12888054628E+03  0.00000000000E+00 0.  1.
         11    1    1    2    0    0  0.85998009311E+02  0.70503059914E+02  0.10323984763E+03  0.15173926717E+03  0.00000000000E+00 0. -1.
</event>
<event>
 7    1  0.5109948E-006  0.1221209E+03  0.7561462E-02  0.1239639E+00
          2   -1    0    0  501    0  0.00000000000E+00  0.00000000000E+00  0.25700514221E+03  0.25700514221E+03  0.00000000000E+00 0. -1.
         -2   -1    0    0    0  501 -0.00000000000E+00 -0.00000000000E+00 -0.61326848292E+02  0.61326848292E+02  0.00000000000E+00 0.  1.
         23    2    1    2    0    0 -0.61134625081E+02 -0.19025757241E+02  0.11108036372E+03  0.17912537372E+03  0.12509048918E+03 0.  0.
          5    1    3    3  502    0  0.33798788229E+02 -0.26187224079E+02  0.50065831954E+02  0.65971120348E+02  0.41800000000E+01 0. -1.
         -5    1    3    3    0  502 -0.94933413309E+02  0.71614668378E+01  0.61014531765E+02  0.11315425337E+03  0.41800000000E+01 0. -1.
        -11    1    1    2    0    0 -0.18162134951E+01  0.39689375385E+02  0.51786460110E+02  0.65271606389E+02  0.00000000000E+00 0. -1.
         11    1    1    2    0    0  0.62950838576E+02 -0.20663618144E+02  0.32811470089E+02  0.73935010392E+02  0.00000000000E+00 0.  1.
</event>
<event>
 7    1  0.5109948E-006  0.1050486E+03  0.7561462E-02  0.1270024E+00
          1   -1    0    0  501    0  0.00000000000E+00  0.00000000000E+00  0.38850398128E+02  0.38850398128E+02  0.00000000000E+00 0. -1.
         -1   -1    0    0    0  501 -0.00000000000E+00 -0.00000000000E+00 -0.44991216256E+03  0.44991216256E+03  0.00000000000E+00 0.  1.
         23    2    1    2    0    0 -0.43213442606E+02 -0.58186625526E+02 -0.21138095955E+03  0.25609025926E+03  0.12508887166E+03 0.  0.
          5    1    3    3  502    0 -0.56140490202E+02 -0.48206744602E+02 -0.40654313807E+02  0.84533369129E+02  0.41800000000E+01 0. -1.
         -5    1    3    3    0  502  0.12927047596E+02 -0.99798809248E+01 -0.17072664575E+03  0.17155689013E+03  0.41800000000E+01 0. -1.
        -11    1    1    2    0    0 -0.32674598392E+01  0.70868789290E+02 -0.12701540532E+03  0.14548530778E+03  0.00000000000E+00 0.  1.
         11    1    1    2    0    0  0.46480902445E+02 -0.12682163764E+02 -0.72665399552E+02  0.87186993651E+02  0.00000000000E+00 0. -1.
</event>
<event>
 6    1  0.5109948E-006  0.1668569E+03  0.7561462E-02  0.1181166E+00
         -2   -1    0    0    0  501 -0.00000000000E+00  0.00000000000E+00  0.26630048340E+02  0.26630048340E+02  0.00000000000E+00 0.  1.
          2   -1    0    0  501    0  0.00000000000E+00 -0.00000000000E+00 -0.13328502611E+04  0.13328502611E+04  0.00000000000E+00 0. -1.
          5    1    1    2  502    0 -0.27417717700E+02  0.83044367321E+02 -0.63410423568E+03  0.64012010771E+03  0.41800000000E+01 0. -1.
         -5    1    1    2    0  502  0.92026490528E+02  0.19888583539E+02 -0.16697545132E+03  0.19173602807E+03  0.41800000000E+01 0.  1.
        -11    1    1    2    0    0 -0.37609131208E+02  0.73982997326E+01 -0.11029928878E+03  0.11676949385E+03  0.00000000000E+00 0.  1.
         11    1    1    2    0    0 -0.26999641620E+02 -0.11033125059E+03 -0.39484123698E+03  0.41085467981E+03  0.00000000000E+00 0. -1.
</event>
<event>
 7    1  0.5109948E-006  0.7981344E+02  0.7561462E-02  0.1329582E+00
          1   -1    0    0  501    0  0.00000000000E+00  0.00000000000E+00  0.25223642152E+03  0.25223642152E+03  0.00000000000E+00 0. -1.
         -1   -1    0    0    0  501 -0.00000000000E+00 -0.00000000000E+00 -0.53530701024E+02  0.53530701024E+02  0.00000000000E+00 0.  1.
         23    2    1    2    0    0 -0.39420069386E+02 -0.49039770988E+01  0.91931797972E+02  0.16024191238E+03  0.12509206267E+03 0.  0.
          5    1    3    3  502    0 -0.68396491644E+02 -0.16396405853E+02  0.10478081899E+03  0.12626723495E+03  0.41800000000E+01 0. -1.
         -5    1    3    3    0  502  0.28976422258E+02  0.11492428754E+02 -0.12849021014E+02  0.33974677431E+02  0.41800000000E+01 0. -1.
        -11    1    1    2    0    0  0.81574997654E+00  0.17186629403E+02 -0.11373558946E+02  0.20625312637E+02  0.00000000000E+00 0.  1.
         11    1    1    2    0    0  0.38604319409E+02 -0.12282652305E+02  0.11814748147E+03  0.12489989753E+03  0.00000000000E+00 0. -1.
</event>
<event>
 7    1  0.5109948E-006  0.7898514E+02  0.7561462E-02  0.1331956E+00
          2   -1    0    0  501    0  0.00000000000E+00  0.00000000000E+00  0.36395387691E+02  0.36395387691E+02  0.00000000000E+00 0. -1.
         -2   -1    0    0    0  501 -0.00000000000E+00 -0.00000000000E+00 -0.55947483955E+03  0.55947483955E+03  0.00000000000E+00 0.  1.
         23    2    1    2    0    0  0.14403572968E+02 -0.42347669566E+01 -0.47963246633E+03  0.49445949761E+03  0.11923714124E+03 0.  0.
          5    1    3    3  502    0 -0.15605004738E+02  0.22416067180E+02 -0.22730370989E+02  0.35779021870E+02  0.41800000000E+01 0. -1.
         -5    1    3    3    0  502  0.30008577706E+02 -0.26650834137E+02 -0.45690209534E+03  0.45868047574E+03  0.41800000000E+01 0.  1.
        -11    1    1    2    0    0  0.13580985683E+02 -0.37418418450E+02 -0.28810493794E+02  0.49138841705E+02  0.00000000000E+00 0.  1.
         11    1    1    2    0    0 -0.27984558651E+02  0.41653185407E+02 -0.14636491737E+02  0.52271887930E+02  0.00000000000E+00 0. -1.
</event>
<event>
 6    1  0.5109948E-006  0.1322416E+03  0.7561462E-02  0.1224167E+00
          2   -1    0    0  501    0  0.00000000000E+00  0.00000000000E+00  0.73939557529E+03  0.73939557529E+03  0.00000000000E+00 0. -1.
         -2   -1    0    0    0  501 -0.00000000000E+00 -0.00000000000E+00 -0.32061426901E+02  0.32061426901E+02  0.00000000000E+00 0.  1.
          5    1    1    2  502    0 -0.80882791825E+02  0.55631120116E+02  0.32226319234E+03  0.33690931284E+03  0.41800000000E+01 0. -1.
         -5    1    1    2    0  502  0.63306380275E+02 -0.15144933269E+02  0.43650187053E+02  0.78484890374E+02  0.41800000000E+01 0.  1.
        -11    1    1    2    0    0  0.55021586398E+02 -0.22248164436E+02  0.20649395298E+03  0.21485369071E+03  0.00000000000E+00 0.  1.
         11    1    1    2    0    0 -0.37445174847E+02 -0.18238022411E+02  0.13492681601E+03  0.14120910827E+03  0.00000000000E+00 0. -1.
</event>
<event>
 7    1  0.5109948E-006  0.1320757E+03  0.7561462E-02  0.1224408E+00
         -2   -1    0    0    0  501 -0.00000000000E+00  0.00000000000E+00  0.10014626084E+03  0.10014626084E+03  0.00000000000E+00 0.  1.
          2   -1    0    0  501    0  0.00000000000E+00 -0.00000000000E+00 -0.29853534325E+03  0.29853534325E+03  0.00000000000E+00 0. -1.
         23    2    1    2    0    0  0.54391328560E+02 -0.89213219016E+02 -0.83987113056E+01  0.16319717525E+03  0.12508143183E+03 0.  0.
          5    1    3    3  502    0  0.87821136197E+02 -0.36196712782E+02 -0.24828986869E+02  0.98268534985E+02  0.41800000000E+01 0. -1.
         -5    1    3    3    0  502 -0.33429807637E+02 -0.53016506234E+02  0.16430275564E+02  0.64928640268E+02  0.41800000000E+01 0. -1.
        -11    1    1    2    0    0 -0.12115113334E+02  0.37795190267E+02 -0.15555506829E+03  0.16053856748E+03  0.00000000000E+00 0. -1.
         11    1    1    2    0    0 -0.42276215225E+02  0.51418028750E+02 -0.34435302822E+02  0.74945861358E+02  0.00000000000E+00 0.  1.
</event>
<event>
 7    1  0.5109948E-006  0.9980868E+02  0.7561462E-02  0.1280699E+00
         -1   -1    0    0    0  501 -0.00000000000E+00  0.00000000000E+00  0.32114650802E+02  0.32114650802E+02  0.00000000000E+00 0.  1.
          1   -1    0    0  501    0  0.00000000000E+00 -0.00000000000E+00 -0.46192912350E+03  0.46192912350E+03  0.00000000000E+00 0. -1.
         23    2    1    2    0    0  0.52485204550E+02  0.85943356580E+01 -0.21419867130E+03  0.25368536563E+03  0.12508650864E+03 0.  0.
          5    1    3    3  502    0 -0.85118724547E+01  0.27955468691E+02 -0.17720747771E+03  0.17964944409E+03  0.41800000000E+01 0. -1.
         -5    1    3    3    0  502  0.60997077005E+02 -0.19361133033E+02 -0.36991193584E+02  0.74035921540E+02  0.41800000000E+01 0. -1.
        -11    1    1    2    0    0 -0.46052833961E+02  0.37521207443E+02 -0.12902032369E+03  0.14203854564E+03  0.00000000000E+00 0. -1.
         11    1    1    2    0    0 -0.64323705894E+01 -0.46115543101E+02 -0.86595477717E+02  0.98319863039E+02  0.00000000000E+00 0.  1.
</event>
<event>
 7    1  0.5109948E-006  0.1046836E+03  0.7561462E-02  0.1270744E+00
         -2   -1    0    0    0  501 -0.00000000000E+00  0.00000000000E+00  0.45023101771E+03  0.45023101771E+03  0.00000000000E+00 0.  1.
          2   -1    0    0  501    0  0.00000000000E+00 -0.00000000000E+00 -0.43577712387E+02  0.43577712387E+02  0.00000000000E+00 0. -1.
         23    2    1    2    0    0  0.56911306483E+02  0.66777832265E+02  0.24305492066E+03  0.28709168610E+03  0.12509103118E+03 0.  0.
          5    1    3    3  502    0  0.30193814985E+02  0.31165546977E+01  0.20668811419E+03  0.20894695098E+03  0.41800000000E+01 0.  1.
         -5    1    3    3    0  502  0.26717491497E+02  0.63661277567E+02  0.36366806468E+02  0.78144735115E+02  0.41800000000E+01 0.  1.
        -11    1    1    2    0    0 -0.42113944385E+02 -0.79551699196E+02  0.16409670223E+03  0.18716245574E+03  0.00000000000E+00 0.  1.
         11    1    1    2    0    0 -0.14797362098E+02  0.12773866930E+02 -0.49831757103E+00  0.19554588255E+02  0.00000000000E+00 0. -1.
</event>
<event>
 7    1  0.5109948E-006  0.9868135E+02  0.7561462E-02  0.1283094E+00
          1   -1    0    0  501    0  0.00000000000E+00  0.00000000000E+00  0.12265358868E+04  0.12265358868E+04  0.00000000000E+00 0. -1.
         -1   -1    0    0    0  501 -0.00000000000E+00 -0.00000000000E+00 -0.11000155910E+02  0.11000155910E+02  0.00000000000E+00 0.  1.
         23    2    1    2    0    0 -0.28412669472E+02 -0.33194474035E+02  0.77373059943E+03  0.78499392462E+03  0.12508904148E+03 0.  0.
          5    1    3    3  502    0 -0.25721627234E+02  0.27936351075E+02  0.81041667304E+02  0.89595011348E+02  0.41800000000E+01 0. -1.
         -5    1    3    3    0  502 -0.26910422383E+01 -0.61130825110E+02  0.69268893213E+03  0.69539891327E+03  0.41800000000E+01 0. -1.
        -11    1    1    2    0    0  0.40092824614E+02 -0.18981501477E+02  0.21352646027E+03  0.21808549062E+03  0.00000000000E+00 0.  1.
         11    1    1    2    0    0 -0.11680155142E+02  0.52175975512E+02  0.22827867116E+03  0.23445662744E+03  0.00000000000E+00 0. -1.
</event>
<event>
 7    1  0.5109948E-006  0.1139016E+03  0.7561462E-02  0.1253511E+00
          1   -1    0    0  501    0  0.00000000000E+00  0.00000000000E+00  0.71590925019E+02  0.71590925019E+02  0.00000000000E+00 0. -1.
         -1   -1    0    0    0  501 -0.00000000000E+00 -0.00000000000E+00 -0.29824159411E+03  0.29824159411E+03  0.00000000000E+00 0.  1.
         23    2    1    2    0    0 -0.48177680878E+02 -0.69833515515E+02 -0.18506568237E+03  0.23893522808E+03  0.12507168986E+03 0.  0.
          5    1    3    3  502    0  0.37003380793E+02 -0.13427271489E+02 -0.94066449629E+02  0.10205641163E+03  0.41800000000E+01 0.  1.
         -5    1    3    3    0  502 -0.85181061671E+02 -0.56406244026E+02 -0.90999232737E+02  0.13687881644E+03  0.41800000000E+01 0.  1.
        -11    1    1    2    0    0  0.22979965628E+02  0.45322550871E+02 -0.69439327396E+02  0.86046688646E+02  0.00000000000E+00 0.  1.
         11    1    1    2    0    0  0.25197715251E+02  0.24510964644E+02  0.27854340673E+02  0.44850602403E+02  0.00000000000E+00 0. -1.
</event>
<event>
 7    1  0.5109948E-006  0.2243853E+03  0.7561462E-02  0.1130655E+00
          2   -1    0    0  501    0  0.00000000000E+00  0.00000000000E+00  0.32308268760E+03  0.32308268760E+03  0.00000000000E+00 0. -1.
         -2   -1    0    0    0  501 -0.00000000000E+00 -0.00000000000E+00 -0.17195454979E+03  0.17195454979E+03  0.00000000000E+00 0.  1.
         23    2    1    2    0    0 -0.65147967239E+02 -0.19417020665E+03  0.12031844395E+03  0.26845930301E+03  0.12509013801E+03 0.  0.
          5    1    3    3  502    0 -0.93266501534E+02 -0.18506057718E+03  0.11801646660E+03  0.23851921583E+03  0.41800000000E+01 0.  1.
         -5    1    3    3    0  502  0.28118534295E+02 -0.91096294762E+01  0.23019773537E+01  0.29940087172E+02  0.41800000000E+01 0.  1.
        -11    1    1    2    0    0  0.14649594681E+02  0.12577444554E+03  0.55195533978E+02  0.13813170797E+03  0.00000000000E+00 0. -1.
         11    1    1    2    0    0  0.50498372558E+02  0.68395761114E+02 -0.24385840117E+02  0.88446226418E+02  0.00000000000E+00 0.  1.
</event>
<event>
 7    1  0.5109948E-006  0.1095822E+03  0.7561462E-02  0.1261345E+00
         -1   -1    0    0    0  501 -0.00000000000E+00  0.00000000000E+00  0.14980391218E+03  0.14980391218E+03  0.00000000000E+00 0.  1.
          1   -1    0    0  501    0  0.00000000000E+00 -0.00000000000E+00 -0.14394936337E+03  0.14394936337E+03  0.00000000000E+00 0. -1.
         23    2    1    2    0    0 -0.59070789112E+02 -0.68150563633E+02  0.40347255588E+02  0.15941691915E+03  0.12510793591E+03 0.  0.
          5    1    3    3  502    0  0.35826824092E+01 -0.55394351648E+02  0.69479840122E+02  0.89029716338E+02  0.41800000000E+01 0. -1.
         -5    1    3    3    0  502 -0.62653471521E+02 -0.12756211985E+02 -0.29132584534E+02  0.70387202811E+02  0.41800000000E+01 0. -1.
        -11    1    1    2    0    0  0.23727282789E+02  0.12512538559E+01  0.27628295815E+02  0.36439982360E+02  0.00000000000E+00 0.  1.
         11    1    1    2    0    0  0.35343506323E+02  0.66899309777E+02 -0.62121002590E+02  0.97896374042E+02  0.00000000000E+00 0. -1.
</event>
<event>
 7    1  0.5109948E-006  0.6717182E+02  0.7561462E-02  0.1369983E+00
         -1   -1    0    0    0  501 -0.00000000000E+00  0.00000000000E+00  0.26337824900E+02  0.26337824900E+02  0.00000000000E+00 0.  1.
          1   -1    0    0  501    0  0.00000000000E+00 -0.00000000000E+00 -0.53313894923E+03  0.53313894923E+03  0.00000000000E+00 0. -1.
         23    2    1    2    0    0 -0.20732381394E+01  0.39764084156E+02 -0.33213274587E+03  0.35713577297E+03  0.12509324023E+03 0.  0.
          5    1    3    3  502    0  0.14277186511E+02  0.47593413421E+02 -0.38715929081E+02  0.63129760180E+02  0.41800000000E+01 0.  1.
         -5    1    3    3    0  502 -0.16350424651E+02 -0.78293292645E+01 -0.29341681679E+03  0.29400601279E+03  0.41800000000E+01 0.  1.
        -11    1    1    2    0    0 -0.22298907263E+02 -0.34279061999E+02 -0.17248235287E+03  0.17726380738E+03  0.00000000000E+00 0. -1.
         11    1    1    2    0    0  0.24372145403E+02 -0.54850221571E+01 -0.21860255868E+01  0.25077193772E+02  0.00000000000E+00 0.  1.
</event>
<event>
 7    1  0.5109948E-006  0.1186205E+03  0.7561462E-02  0.1245390E+00
          3   -1    0    0  501    0  0.00000000000E+00  0.00000000000E+00  0.60360536597E+03  0.60360536597E+03  0.00000000000E+00 0. -1.
         -3   -1    0    0    0  501 -0.00000000000E+00 -0.00000000000E+00 -0.35144840751E+02  0.35144840751E+02  0.00000000000E+00 0.  1.
         23    2    1    2    0    0 -0.71484927759E+01  0.83067001129E+02  0.19804447474E+03  0.24863811073E+03  0.12509223999E+03 0.  0.
          5    1    3    3  502    0  0.16547724640E+02 -0.92980005274E+01 -0.84178617594E+01  0.21180481608E+02  0.41800000000E+01 0.  1.
         -5    1    3    3    0  502 -0.23696217416E+02  0.92365001656E+02  0.20646233650E+03  0.22745762912E+03  0.41800000000E+01 0.  1.
        -11    1    1    2    0    0 -0.41044800691E+02 -0.45297694588E+02  0.18957899281E+03  0.19919023901E+03  0.00000000000E+00 0.  1.
         11    1    1    2    0    0  0.48193293467E+02 -0.37769306541E+02  0.18083705766E+03  0.19092185699E+03  0.00000000000E+00 0. -1.
</event>
<event>
 7    1  0.5109948E-006  0.1275291E+03  0.7561462E-02  0.1231169E+00
         -1   -1    0    0    0  501 -0.00000000000E+00  0.00000000000E+00  0.14613527214E+03  0.14613527214E+03  0.00000000000E+00 0.  1.
          1   -1    0    0  501    0  0.00000000000E+00 -0.00000000000E+00 -0.11809483612E+03  0.11809483612E+03  0.00000000000E+00 0. -1.
         23    2    1    2    0    0  0.67274526797E+02  0.35628453313E+02  0.20584943944E+02  0.14785058295E+03  0.12506320930E+03 0.  0.
          5    1    3    3  502    0  0.85881041572E+02 -0.14388607451E+02 -0.73188813033E+01  0.87484991566E+02  0.41800000000E+01 0.  1.
         -5    1    3    3    0  502 -0.18606514775E+02  0.50017060764E+02  0.27903825247E+02  0.60365591382E+02  0.41800000000E+01 0.  1.
        -11    1    1    2    0    0 -0.85153112581E+02 -0.42533685288E+02  0.13823708246E+02  0.96183480266E+02  0.00000000000E+00 0. -1.
         11    1    1    2    0    0  0.17878585784E+02  0.69052319747E+01 -0.63682161739E+01  0.20196045046E+02  0.00000000000E+00 0.  1.
</event>
<event>
 7    1  0.5109948E-006  0.1322376E+03  0.7561462E-02  0.1224173E+00
         -1   -1    0    0    0  501 -0.00000000000E+00  0.00000000000E+00  0.10653831833E+04  0.10653831833E+04  0.00000000000E+00 0.  1.
          1   -1    0    0  501    0  0.00000000000E+00 -0.00000000000E+00 -0.22780002773E+02  0.22780002773E+02  0.00000000000E+00 0. -1.
         23    2    1    2    0    0  0.40438853255E+02 -0.67826061286E+02  0.83695538674E+03  0.84992810379E+03  0.12509111390E+03 0.  0.
          5    1    3    3  502    0 -0.67687566907E+00  0.34025725072E+02  0.29136887384E+03  0.29337944912E+03  0.41800000000E+01 0. -1.
         -5    1    3    3    0  502  0.41115728924E+02 -0.10185178636E+03  0.54558651291E+03  0.55654865467E+03  0.41800000000E+01 0. -1.
        -11    1    1    2    0    0  0.28940397442E+02  0.12467816653E+02  0.54114725190E+02  0.62621055074E+02  0.00000000000E+00 0.  1.
         11    1    1    2    0    0 -0.69379250697E+02  0.55358244633E+02  0.15153306864E+03  0.17561402725E+03  0.00000000000E+00 0. -1.
</event>
<event>
 7    1  0.5109948E-006  0.1323474E+03  0.7561462E-02  0.1224014E+00
         -4   -1    0    0    0  501 -0.00000000000E+00  0.00000000000E+00  0.39054797925E+03  0.39054797925E+03  0.00000000000E+00 0.  1.
          4   -1    0    0  501    0  0.00000000000E+00 -0.00000000000E+00 -0.10000342557E+03  0.10000342557E+03  0.00000000000E+00 0. -1.
         23    2    1    2    0    0  0.11207633061E+03 -0.12899035835E+01  0.30107939617E+03  0.34475969456E+03  0.12509067296E+03 0.  0.
          5    1    3    3  502    0 -0.35704896060E+01  0.27718490371E+02  0.14803942498E+03  0.15071233146E+03  0.41800000000E+01 0. -1.
         -5    1    3    3    0  502  0.11564682022E+03 -0.29008393955E+02  0.15303997119E+03  0.19404736310E+03  0.41800000000E+01 0. -1.
        -11    1    1    2    0    0 -0.91072854551E+02 -0.12618230570E+02  0.31158577556E+02  0.97079047863E+02  0.00000000000E+00 0.  1.
         11    1    1    2    0    0 -0.21003476059E+02  0.13908134153E+02 -0.41693420050E+02  0.48712662395E+02  0.00000000000E+00 0. -1.
</event>
<event>
 7    1  0.5109948E-006  0.1271507E+03  0.7561462E-02  0.1231746E+00
          3   -1    0    0  501    0  0.00000000000E+00  0.00000000000E+00  0.18014312164E+03  0.18014312164E+03  0.00000000000E+00 0. -1.
         -3   -1    0    0    0  501 -0.00000000000E+00 -0.00000000000E+00 -0.10465136807E+03  0.10465136807E+03  0.00000000000E+00 0.  1.
         23    2    1    2    0    0 -0.23917877684E+02 -0.83619423519E+02  0.34170240219E+02  0.15614007572E+03  0.12509134689E+03 0.  0.
          5    1    3    3  502    0 -0.13438236474E+02 -0.11303966468E+03  0.45489219895E+02  0.12265925777E+03  0.41800000000E+01 0.  1.
         -5    1    3    3    0  502 -0.10479641210E+02  0.29420241160E+02 -0.11318979676E+02  0.33480817952E+02  0.41800000000E+01 0.  1.
        -11    1    1    2    0    0  0.28907497575E+02  0.40917603376E+01  0.39283068916E+02  0.48944309395E+02  0.00000000000E+00 0.  1.
         11    1    1    2    0    0 -0.49896198917E+01  0.79527663182E+02  0.20384444288E+01  0.79710104588E+02  0.00000000000E+00 0. -1.
</event>
<event>
 7    1  0.5109948E-006  0.1279097E+03  0.7561462E-02  0.1230591E+00
          1   -1    0    0  501    0  0.00000000000E+00  0.00000000000E+00  0.62655310865E+02  0.62655310865E+02  0.00000000000E+00 0. -1.
         -1   -1    0    0    0  501 -0.00000000000E+00 -0.00000000000E+00 -0.37441167117E+03  0.37441167117E+03  0.00000000000E+00 0.  1.
         23    2    1    2    0    0  0.23442736326E+02 -0.83237353606E+02 -0.25700901004E+03  0.29862843397E+03  0.12508913386E+03 0.  0.
          5    1    3    3  502    0 -0.82293247612E+01  0.24964662784E+02 -0.12623082685E+02  0.29457949528E+02  0.41800000000E+01 0. -1.
         -5    1    3    3    0  502  0.31672061087E+02 -0.10820201639E+03 -0.24438592736E+03  0.26917048444E+03  0.41800000000E+01 0. -1.
        -11    1    1    2    0    0 -0.19554480520E+01  0.92831137372E+02 -0.17660806162E+02  0.94516389675E+02  0.00000000000E+00 0. -1.
         11    1    1    2    0    0 -0.21487288274E+02 -0.95937837663E+01 -0.37086544106E+02  0.43922158395E+02  0.00000000000E+00 0.  1.
</event>
<event>
 7    1  0.5109948E-006  0.8372146E+02  0.7561462E-02  0.1318810E+00
          1   -1    0    0  501    0  0.00000000000E+00  0.00000000000E+00  0.25181346072E+02  0.25181346072E+02  0.00000000000E+00 0. -1.
         -1   -1    0    0    0  501 -0.00000000000E+00 -0.00000000000E+00 -0.59354454770E+03  0.59354454770E+03  0.00000000000E+00 0.  1.
         23    2    1    2    0    0 -0.80634881207E+01  0.15708422857E+02 -0.49164291300E+03  0.50761418261E+03  0.12509048765E+03 0.  0.
          5    1    3    3  502    0  0.74436813814E+01 -0.40668163808E+02 -0.66267569194E+02  0.78218738592E+02  0.41800000000E+01 0.  1.
         -5    1    3    3    0  502 -0.15507169502E+02  0.56376586665E+02 -0.42537534381E+03  0.42939544402E+03  0.41800000000E+01 0.  1.
        -11    1    1    2    0    0 -0.37881357511E+01 -0.40032304942E+02 -0.73608510106E+02  0.83875790139E+02  0.00000000000E+00 0.  1.
         11    1    1    2    0    0  0.11851623872E+02  0.24323882085E+02 -0.31117785219E+01  0.27235921017E+02  0.00000000000E+00 0. -1.
</event>
<event>
 7    1  0.5109948E-006  0.1478080E+03  0.7561462E-02  0.1203193E+00
         -2   -1    0    0    0  501 -0.00000000000E+00  0.00000000000E+00  0.91307047191E+02  0.91307047191E+02  0.00000000000E+00 0.  1.
          2   -1    0    0  501    0  0.00000000000E+00 -0.00000000000E+00 -0.28726078448E+03  0.28726078448E+03  0.00000000000E+00 0. -1.
         23    2    1    2    0    0 -0.11293324935E+03 -0.20560737532E+02 -0.60718944771E+02  0.18029839105E+03  0.12507620407E+03 0.  0.
          5    1    3    3  502    0 -0.13256438548E+03 -0.35943263379E+02 -0.68899791712E+02  0.15372016191E+03  0.41800000000E+01 0. -1.
         -5    1    3    3    0  502  0.19631136135E+02  0.15382525847E+02  0.81808469403E+01  0.26578229137E+02  0.41800000000E+01 0. -1.
        -11    1    1    2    0    0  0.59091023962E+02 -0.23248765052E+02 -0.10466710957E+03  0.12242327399E+03  0.00000000000E+00 0. -1.
         11    1    1    2    0    0  0.53842225387E+02  0.43809502584E+02 -0.30567682949E+02  0.75846166628E+02  0.00000000000E+00 0.  1.
</event>
<event>
 7    1  0.5109948E-006  0.1066780E+03  0.7561462E-02  0.1266848E+00
         -1   -1    0    0    0  501 -0.00000000000E+00  0.00000000000E+00  0.52058298068E+02  0.52058298068E+02  0.00000000000E+00 0.  1.
          1   -1    0    0  501    0  0.00000000000E+00 -0.00000000000E+00 -0.22767251985E+03  0.22767251985E+03  0.00000000000E+00 0. -1.
         23    2    1    2    0    0 -0.23887742263E+02 -0.12433126684E+02 -0.87293090678E+02  0.15489586626E+03  0.12508972314E+03 0.  0.
          5    1    3    3  502    0  0.51212591738E+02 -0.11769433820E+01 -0.28522860037E+02  0.58780444817E+02  0.41800000000E+01 0. -1.
         -5    1    3    3    0  502 -0.75100334001E+02 -0.11256183302E+02 -0.58770230641E+02  0.96115421443E+02  0.41800000000E+01 0. -1.
        -11    1    1    2    0    0  0.49286455047E+02 -0.11931202987E+02 -0.65711300350E+02  0.83002911091E+02  0.00000000000E+00 0.  1.
         11    1    1    2    0    0 -0.25398712783E+02  0.24364329671E+02 -0.22609830758E+02  0.41832040570E+02  0.00000000000E+00 0. -1.
</event>
<event>
 7    1  0.5109948E-006  0.1011619E+03  0.7561462E-02  0.1277871E+00
          3   -1    0    0  501    0  0.00000000000E+00  0.00000000000E+00  0.58114575075E+02  0.58114575075E+02  0.00000000000E+00 0. -1.
         -3   -1    0    0    0  501 -0.00000000000E+00 -0.00000000000E+00 -0.48425910600E+03  0.48425910600E+03  0.00000000000E+00 0.  1.
         23    2    1    2    0    0 -0.22280804547E+02  0.39845244800E+02 -0.42285536675E+03  0.44175896620E+03  0.11941626875E+03 0.  0.
          5    1    3    3  502    0  0.36524284146E+02 -0.25943057205E+01 -0.51278306494E+02  0.63148166018E+02  0.41800000000E+01 0. -1.
         -5    1    3    3    0  502 -0.58805088693E+02  0.42439550521E+02 -0.37157706026E+03  0.37861080018E+03  0.41800000000E+01 0.  1.
        -11    1    1    2    0    0  0.23726516795E+02  0.21169355569E+02 -0.19712115898E+02  0.37411986416E+02  0.00000000000E+00 0.  1.
         11    1    1    2    0    0 -0.14457122474E+01 -0.61014600369E+02  0.16422951720E+02  0.63202728464E+02  0.00000000000E+00 0. -1.
</event>
<event>
 7    1  0.5109948E-006  0.1108590E+03  0.7561462E-02  0.1258987E+00
          2   -1    0    0  501    0  0.00000000000E+00  0.00000000000E+00  0.55887420984E+03  0.55887420984E+03  0.00000000000E+00 0. -1.
         -2   -1    0    0    0  501 -0.00000000000E+00 -0.00000000000E+00 -0.24277406521E+02  0.24277406521E+02  0.00000000000E+00 0.  1.
         23    2    1    2    0    0  0.74985824843E+02  0.96245803112E+01  0.31736310329E+03  0.34940294821E+03  0.12509026507E+03 0.  0.
          5    1    3    3  502    0  0.43363500706E+02 -0.52606616864E+02  0.10025867201E+03  0.12131415022E+03  0.41800000000E+01 0. -1.
         -5    1    3    3    0  502  0.31622324137E+02  0.62231197175E+02  0.21710443128E+03  0.22808879799E+03  0.41800000000E+01 0. -1.
        -11    1    1    2    0    0 -0.36255795742E+02 -0.22501196512E+02  0.14048406503E+03  0.14682152123E+03  0.00000000000E+00 0. -1.
         11    1    1    2    0    0 -0.38730029100E+02  0.12876616201E+02  0.76749635001E+02  0.86927146920E+02  0.00000000000E+00 0.  1.
</event>
<event>
 7    1  0.5109948E-006  0.1282591E+03  0.7561462E-02  0.1230062E+00
          1   -1    0    0  501    0  0.00000000000E+00  0.00000000000E+00  0.99436383895E+03  0.99436383895E+03  0.00000000000E+00 0. -1.
         -1   -1    0    0    0  501 -0.00000000000E+00 -0.00000000000E+00 -0.21834448146E+02  0.21834448146E+02  0.00000000000E+00 0.  1.
         23    2    1    2    0    0 -0.68623732402E+02  0.65027638246E+02  0.42612299365E+03  0.45405592058E+03  0.12509261731E+03 0.  0.
          5    1    3    3  502    0 -0.86940467515E+02  0.67934851919E+02  0.21144454055E+03  0.23853732438E+03  0.41800000000E+01 0. -1.
         -5    1    3    3    0  502  0.18316735114E+02 -0.29072136725E+01  0.21467845311E+03  0.21551859619E+03  0.41800000000E+01 0. -1.
        -11    1    1    2    0    0 -0.20228983370E+02 -0.98301939000E+01  0.49860533844E+02  0.54698421508E+02  0.00000000000E+00 0.  1.
         11    1    1    2    0    0  0.88852715771E+02 -0.55197444346E+02  0.49654586331E+03  0.50744394501E+03  0.00000000000E+00 0. -1.
</event>
<event>
 7    1  0.5109948E-006  0.1059481E+03  0.7561462E-02  0.1268263E+00
          1   -1    0    0  501    0  0.00000000000E+00  0.00000000000E+00  0.17835403058E+02  0.17835403058E+02  0.00000000000E+00 0. -1.
         -1   -1    0    0    0  501 -0.00000000000E+00 -0.00000000000E+00 -0.77388188389E+03  0.77388188389E+03  0.00000000000E+00 0.  1.
         23    2    1    2    0    0  0.89449755368E+00 -0.37600165534E+02 -0.52271514288E+03  0.53878968033E+03  0.12509447012E+03 0.  0.
          5    1    3    3  502    0  0.46755832956E+02  0.14258686305E+02 -0.33689750000E+03  0.34045090095E+03  0.41800000000E+01 0. -1.
         -5    1    3    3    0  502 -0.45861335403E+02 -0.51858851839E+02 -0.18581764289E+03  0.19833877938E+03  0.41800000000E+01 0. -1.
        -11    1    1    2    0    0  0.39747715682E+02  0.34653046812E+02 -0.16652102098E+03  0.17467101930E+03  0.00000000000E+00 0.  1.
         11    1    1    2    0    0 -0.40642213236E+02  0.29471187217E+01 -0.66810316975E+02  0.78256587325E+02  0.00000000000E+00 0. -1.
</event>
<event>
 7    1  0.5109948E-006  0.1257296E+03  0.7561462E-02  0.1233933E+00
         -2   -1    0    0    0  501 -0.00000000000E+00  0.00000000000E+00  0.99565510379E+03  0.99565510379E+03  0.00000000000E+00 0. -1.
          2   -1    0    0  501    0  0.00000000000E+00 -0.00000000000E+00 -0.23289022114E+02  0.23289022114E+02  0.00000000000E+00 0.  1.
         23    2    1    2    0    0 -0.79394305390E+01 -0.10138642458E+03  0.62951874037E+03  0.64983330585E+03  0.12508892544E+03 0.  0.
          5    1    3    3  502    0 -0.76070899056E+01 -0.10738226720E+03  0.27661535691E+03  0.29685408403E+03  0.41800000000E+01 0. -1.
         -5    1    3    3    0  502 -0.33234063347E+00  0.59958426211E+01  0.35290338346E+03  0.35297922182E+03  0.41800000000E+01 0. -1.
        -11    1    1    2    0    0 -0.33614193851E+02  0.85294479257E+01  0.98778394553E+02  0.10468923890E+03  0.00000000000E+00 0. -1.
         11    1    1    2    0    0  0.41553624390E+02  0.92856976655E+02  0.24406894676E+03  0.26442158116E+03  0.00000000000E+00 0.  1.
</event>
<event>
 7    1  0.5109948E-006  0.3453741E+03  0.7561462E-02  0.1064530E+00
         -1   -1    0    0    0  501 -0.00000000000E+00  0.00000000000E+00  0.26963110600E+03  0.26963110600E+03  0.00000000000E+00 0.  1.
          1   -1    0    0  501    0  0.00000000000E+00 -0.00000000000E+00 -0.48686144214E+03  0.48686144214E+03  0.00000000000E+00 0. -1.
         23    2    1    2    0    0  0.81971387335E+02 -0.32729215016E+03 -0.30043954417E+02  0.36109452930E+03  0.12508860856E+03 0.  0.
          5    1    3    3  502    0  0.31566681957E+00 -0.11753053818E+03  0.41741784459E+02  0.12479333323E+03  0.41800000000E+01 0.  1.
         -5    1    3    3    0  502  0.81655720515E+02 -0.20976161198E+03 -0.71785738876E+02  0.23630119606E+03  0.41800000000E+01 0.  1.
        -11    1    1    2    0    0 -0.35609079886E+02  0.27825963348E+03 -0.14460757227E+03  0.31560700270E+03  0.00000000000E+00 0.  1.
         11    1    1    2    0    0 -0.46362307448E+02  0.49032516678E+02 -0.42578809448E+02  0.79791016146E+02  0.00000000000E+00 0. -1.
</event>
<event>
 7    1  0.5109948E-006  0.1037813E+03  0.7561462E-02  0.1272539E+00
          1   -1    0    0  501    0  0.00000000000E+00  0.00000000000E+00  0.14679537649E+03  0.14679537649E+03  0.00000000000E+00 0. -1.
         -1   -1    0    0    0  501 -0.00000000000E+00 -0.00000000000E+00 -0.13162485094E+03  0.13162485094E+03  0.00000000000E+00 0.  1.
         23    2    1    2    0    0 -0.23676693096E+02  0.68149643956E+01 -0.81361726376E+02  0.14707410434E+03  0.12001679929E+03 0.  0.
          5    1    3    3  502    0  0.46364935872E+02 -0.11471965173E+02 -0.19494118411E+02  0.51757186129E+02  0.41800000000E+01 0. -1.
         -5    1    3    3    0  502 -0.70041628968E+02  0.18286929568E+02 -0.61867607965E+02  0.95316918209E+02  0.41800000000E+01 0.  1.
        -11    1    1    2    0    0 -0.28309561548E+02 -0.18506789340E+02  0.51329992958E+02  0.61471137160E+02  0.00000000000E+00 0.  1.
         11    1    1    2    0    0  0.51986254644E+02  0.11691824944E+02  0.45202258973E+02  0.69874985930E+02  0.00000000000E+00 0. -1.
</event>
<event>
 7    1  0.5109948E-006  0.1095385E+03  0.7561462E-02  0.1261427E+00
         -2   -1    0    0    0  501 -0.00000000000E+00  0.00000000000E+00  0.28731851885E+02  0.28731851885E+02  0.00000000000E+00 0.  1.
          2   -1    0    0  501    0  0.00000000000E+00 -0.00000000000E+00 -0.45976066441E+03  0.45976066441E+03  0.00000000000E+00 0. -1.
         23    2    1    2    0    0 -0.22755828535E+02  0.27361859078E+02 -0.20560677334E+03  0.24328742650E+03  0.12509247613E+03 0.  0.
          5    1    3    3  502    0  0.38754565096E+02  0.45349576828E+02 -0.13607049466E+03  0.14863092663E+03  0.41800000000E+01 0.  1.
         -5    1    3    3    0  502 -0.61510393631E+02 -0.17987717749E+02 -0.69536278678E+02  0.94656499866E+02  0.41800000000E+01 0.  1.
        -11    1    1    2    0    0 -0.18458019998E+02 -0.46191843878E+02 -0.96761533553E+02  0.10879880201E+03  0.00000000000E+00 0.  1.
         11    1    1    2    0    0  0.41213848533E+02  0.18829984800E+02 -0.12866050563E+03  0.13640628779E+03  0.00000000000E+00 0. -1.
</event>
<event>
 7    1  0.5109948E-006  0.1036137E+03  0.7561462E-02  0.1272875E+00
         -1   -1    0    0    0  501 -0.00000000000E+00  0.00000000000E+00  0.20147544316E+02  0.20147544316E+02  0.00000000000E+00 0.  1.
          1   -1    0    0  501    0  0.00000000000E+00 -0.00000000000E+00 -0.66626282332E+03  0.66626282332E+03  0.00000000000E+00 0. -1.
         23    2    1    2    0    0  0.26152515360E+02 -0.28533674184E+02 -0.35361253873E+03  0.37707902859E+03  0.12509453079E+03 0.  0.
          5    1    3    3  502    0  0.61633516195E+02 -0.43568789074E+02 -0.30838210536E+03  0.31751208639E+03  0.41800000000E+01 0.  1.
         -5    1    3    3    0  502 -0.35481000834E+02  0.15035114890E+02 -0.45230433371E+02  0.59566942199E+02  0.41800000000E+01 0.  1.
        -11    1    1    2    0    0 -0.54067909141E+02  0.16140745601E+01 -0.10790348124E+03  0.12070254885E+03  0.00000000000E+00 0.  1.
         11    1    1    2    0    0  0.27915393780E+02  0.26919599624E+02 -0.18459925903E+03  0.18862879019E+03  0.00000000000E+00 0. -1.
</event>
<event>
 7    1  0.5109948E-006  0.1022600E+03  0.7561462E-02  0.1275614E+00
          1   -1    0    0  501    0  0.00000000000E+00  0.00000000000E+00  0.70733118597E+03  0.70733118597E+03  0.00000000000E+00 0.  1.
         -1   -1    0    0    0  501 -0.00000000000E+00 -0.00000000000E+00 -0.16111690040E+02  0.16111690040E+02  0.00000000000E+00 0. -1.
         23    2    1    2    0    0  0.15808527495E+02 -0.59542919886E+01  0.40509295970E+03  0.42430709832E+03  0.12510333549E+03 0.  0.
          5    1    3    3  502    0  0.65611298024E+02 -0.18446029887E+02  0.16177217529E+03  0.17559273204E+03  0.41800000000E+01 0.  1.
         -5    1    3    3    0  502 -0.49802770529E+02  0.12491737898E+02  0.24332078441E+03  0.24871436628E+03  0.41800000000E+01 0.  1.
        -11    1    1    2    0    0  0.33884111622E+02 -0.37478648404E+01  0.81587807677E+02  0.88423695200E+02  0.00000000000E+00 0. -1.
         11    1    1    2    0    0 -0.49692639117E+02  0.97021568290E+01  0.20453872856E+03  0.21071208249E+03  0.00000000000E+00 0.  1.
</event>
<event>
 7    1  0.5109948E-006  0.1034226E+03  0.7561462E-02  0.1273259E+00
          2   -1    0    0  501    0  0.00000000000E+00  0.00000000000E+00  0.24992806551E+03  0.24992806551E+03  0.00000000000E+00 0. -1.
         -2   -1    0    0    0  501 -0.00000000000E+00 -0.00000000000E+00 -0.79192901537E+02  0.79192901537E+02  0.00000000000E+00 0.  1.
         23    2    1    2    0    0 -0.24606171936E+02 -0.85840672957E+02  0.94600519225E+02  0.18047216605E+03  0.12508740804E+03 0.  0.
          5    1    3    3  502    0 -0.33923122235E+02 -0.57366624802E+02 -0.13578299964E+02  0.68143601998E+02  0.41800000000E+01 0.  1.
         -5    1    3    3    0  502  0.93169502995E+01 -0.28474048155E+02  0.10817881919E+03  0.11232856405E+03  0.41800000000E+01 0.  1.
        -11    1    1    2    0    0 -0.21914274257E+02  0.29651022036E+02 -0.75473263803E+01  0.37634833060E+02  0.00000000000E+00 0.  1.
         11    1    1    2    0    0  0.46520446192E+02  0.56189650920E+02  0.83681971124E+02  0.11101396793E+03  0.00000000000E+00 0. -1.
</event>
<event>
 7    1  0.5109948E-006  0.1302982E+03  0.7561462E-02  0.1227014E+00
         -2   -1    0    0    0  501 -0.00000000000E+00  0.00000000000E+00  0.15922649053E+03  0.15922649053E+03  0.00000000000E+00 0. -1.
          2   -1    0    0  501    0  0.00000000000E+00 -0.00000000000E+00 -0.16492833219E+03  0.16492833219E+03  0.00000000000E+00 0.  1.
         23    2    1    2    0    0  0.11872911565E+03  0.10691203269E+02 -0.18789162632E+02  0.17381662554E+03  0.12509309314E+03 0.  0.
          5    1    3    3  502    0  0.77278577454E+02  0.29326281912E+02  0.45908394588E+02  0.94641758425E+02  0.41800000000E+01 0. -1.
         -5    1    3    3    0  502  0.41450538195E+02 -0.18635078643E+02 -0.64697557221E+02  0.79174867117E+02  0.41800000000E+01 0. -1.
        -11    1    1    2    0    0 -0.76116829215E+02  0.21151105343E+02  0.42338593039E+02  0.89630895385E+02  0.00000000000E+00 0. -1.
         11    1    1    2    0    0 -0.42612286434E+02 -0.31842308612E+02 -0.29251272064E+02  0.60707301787E+02  0.00000000000E+00 0.  1.
</event>
<event>
 7    1  0.5109948E-006  0.1049566E+03  0.7561462E-02  0.1270205E+00
         -2   -1    0    0    0  501 -0.00000000000E+00  0.00000000000E+00  0.22868297238E+03  0.22868297238E+03  0.00000000000E+00 0.  1.
          2   -1    0    0  501    0  0.00000000000E+00 -0.00000000000E+00 -0.61937407285E+02  0.61937407285E+02  0.00000000000E+00 0. -1.
         23    2    1    2    0    0  0.14548617051E+00  0.46503286230E+02  0.95226048222E+02  0.16394208857E+03  0.12508569601E+03 0.  0.
          5    1    3    3  502    0  0.73891470537E+01 -0.31564149100E+02 -0.85747267408E+01  0.33791912365E+02  0.41800000000E+01 0.  1.
         -5    1    3    3    0  502 -0.72436608832E+01  0.78067435330E+02  0.10380077496E+03  0.13015017620E+03  0.41800000000E+01 0.  1.
        -11    1    1    2    0    0  0.37512621217E+02  0.16912404077E+01  0.48476534429E+02  0.61319095190E+02  0.00000000000E+00 0.  1.
         11    1    1    2    0    0 -0.37658107387E+02 -0.48194526638E+02  0.23042982441E+02  0.65359195907E+02  0.00000000000E+00 0. -1.
</event>
<event>
 7    1  0.5109948E-006  0.2650800E+03  0.7561462E-02  0.1104129E+00
          2   -1    0    0  501    0  0.00000000000E+00  0.00000000000E+00  0.10148905319E+04  0.10148905319E+04  0.00000000000E+00 0. -1.
         -2   -1    0    0    0  501 -0.00000000000E+00 -0.00000000000E+00 -0.97677554878E+02  0.97677554878E+02  0.00000000000E+00 0.  1.
         23    2    1    2    0    0  0.18405184875E+03 -0.16521437296E+03  0.18228374278E+03  0.33172880259E+03  0.12508302652E+03 0.  0.
          5    1    3    3  502    0  0.13507233710E+03 -0.45783039246E+02  0.63189879576E+02  0.15604824963E+03  0.41800000000E+01 0.  1.
         -5    1    3    3    0  502  0.48979511649E+02 -0.11943133371E+03  0.11909386321E+03  0.17568055296E+03  0.41800000000E+01 0.  1.
        -11    1    1    2    0    0 -0.68820202744E+02  0.17552909924E+02  0.27985342599E+03  0.28872524135E+03  0.00000000000E+00 0. -1.
         11    1    1    2    0    0 -0.11523164600E+03  0.14766146304E+03  0.45507580820E+03  0.49211404280E+03  0.00000000000E+00 0.  1.
</event>
<event>
 7    1  0.5109948E-006  0.1016421E+03  0.7561462E-02  0.1276880E+00
         -1   -1    0    0    0  501 -0.00000000000E+00  0.00000000000E+00  0.31241301775E+03  0.31241301775E+03  0.00000000000E+00 0.  1.
          1   -1    0    0  501    0  0.00000000000E+00 -0.00000000000E+00 -0.56766583000E+02  0.56766583000E+02  0.00000000000E+00 0. -1.
         23    2    1    2    0    0 -0.47362472332E+02  0.33325580339E+02  0.21409236465E+03  0.25465046117E+03  0.12513000714E+03 0.  0.
          5    1    3    3  502    0  0.39211412095E+02  0.28021857546E+02  0.53824263511E+02  0.72369075449E+02  0.41800000000E+01 0. -1.
         -5    1    3    3    0  502 -0.86573884427E+02  0.53037227931E+01  0.16026810114E+03  0.18228138573E+03  0.41800000000E+01 0. -1.
        -11    1    1    2    0    0  0.51951823256E+02 -0.23085804601E+02  0.66312911206E+02  0.87346141908E+02  0.00000000000E+00 0.  1.
         11    1    1    2    0    0 -0.45893509239E+01 -0.10239775738E+02 -0.24758841106E+02  0.27182997664E+02  0.00000000000E+00 0. -1.
</event>
<event>
 7    1  0.5109948E-006  0.8675630E+02  0.7561462E-02  0.1310902E+00
          1   -1    0    0  501    0  0.00000000000E+00  0.00000000000E+00  0.45611924350E+02  0.45611924350E+02  0.00000000000E+00 0. -1.
         -1   -1    0    0    0  501 -0.00000000000E+00 -0.00000000000E+00 -0.30053055499E+03  0.30053055499E+03  0.00000000000E+00 0.  1.
         23    2    1    2    0    0  0.32396659663E+02 -0.31128973621E+02 -0.15639251655E+03  0.20521569100E+03  0.12504520799E+03 0.  0.
          5    1    3    3  502    0  0.35250289120E+02 -0.69582889725E+02 -0.14514878431E+03  0.16483325943E+03  0.41800000000E+01 0. -1.
         -5    1    3    3    0  502 -0.28536294576E+01  0.38453916104E+02 -0.11243732235E+02  0.40382431569E+02  0.41800000000E+01 0. -1.
        -11    1    1    2    0    0  0.51366411035E+01  0.14828034888E+02  0.14100435651E+02  0.21096871475E+02  0.00000000000E+00 0. -1.
         11    1    1    2    0    0 -0.37533300766E+02  0.16300938733E+02 -0.11262654975E+03  0.11982991687E+03  0.00000000000E+00 0.  1.
</event>
<event>
 7    1  0.5109948E-006  0.9652738E+02  0.7561462E-02  0.1287773E+00
         -1   -1    0    0    0  501 -0.00000000000E+00  0.00000000000E+00  0.84138208769E+02  0.84138208769E+02  0.00000000000E+00 0.  1.
          1   -1    0    0  501    0  0.00000000000E+00 -0.00000000000E+00 -0.38739069429E+03  0.38739069429E+03  0.00000000000E+00 0. -1.
         23    2    1    2    0    0 -0.83254217296E+02 -0.18133267667E+02 -0.85004105561E+01  0.15159452332E+03  0.12509421420E+03 0.  0.
          5    1    3    3  502    0  0.63522968392E+01  0.99817411441E+01 -0.48009917714E+02  0.49622690680E+02  0.41800000000E+01 0.  1.
         -5    1    3    3    0  502 -0.89606514135E+02 -0.28115008811E+02  0.39509507158E+02  0.10197183264E+03  0.41800000000E+01 0.  1.
        -11    1    1    2    0    0  0.20696806342E+02  0.11272010883E+02 -0.58841800344E+01  0.24290730676E+02  0.00000000000E+00 0.  1.
         11    1    1    2    0    0  0.62557410954E+02  0.68612567832E+01 -0.28886789493E+03  0.29564364906E+03  0.00000000000E+00 0. -1.
</event>
<event>
 7    1  0.5109948E-006  0.3669718E+03  0.7561462E-02  0.1055857E+00
         -1   -1    0    0    0  501 -0.00000000000E+00  0.00000000000E+00  0.64145396673E+02  0.64145396673E+02  0.00000000000E+00 0.  1.
          1   -1    0    0  501    0  0.00000000000E+00 -0.00000000000E+00 -0.22539471994E+04  0.22539471994E+04  0.00000000000E+00 0. -1.
         23    2    1    2    0    0  0.29652628358E+03 -0.20188865887E+03 -0.91207208499E+03  0.98803234682E+03  0.12508222383E+03 0.  0.
          5    1    3    3  502    0  0.10757234020E+03 -0.13801226157E+02 -0.19791659347E+03  0.22572268958E+03  0.41800000000E+01 0. -1.
         -5    1    3    3    0  502  0.18895394338E+03 -0.18808743272E+03 -0.71415549152E+03  0.76230965725E+03  0.41800000000E+01 0. -1.
        -11    1    1    2    0    0 -0.17639377264E+03  0.12317539789E+03 -0.91450289747E+03  0.93946926035E+03  0.00000000000E+00 0. -1.
         11    1    1    2    0    0 -0.12013251094E+03  0.78713260989E+02 -0.36322682022E+03  0.39059098885E+03  0.00000000000E+00 0.  1.
</event>
<event>
 7    1  0.5109948E-006  0.1203203E+03  0.7561462E-02  0.1242570E+00
          2   -1    0    0  501    0  0.00000000000E+00  0.00000000000E+00  0.61567107529E+03  0.61567107529E+03  0.00000000000E+00 0. -1.
         -2   -1    0    0    0  501 -0.00000000000E+00 -0.00000000000E+00 -0.24733195580E+02  0.24733195580E+02  0.00000000000E+00 0.  1.
         23    2    1    2    0    0 -0.70880338339E+01 -0.58015755291E+02  0.36750116364E+03  0.39258088235E+03  0.12508627353E+03 0.  0.
          5    1    3    3  502    0  0.73111563147E+01 -0.96283379001E+02  0.26967152309E+03  0.28646840112E+03  0.41800000000E+01 0. -1.
         -5    1    3    3    0  502 -0.14399190149E+02  0.38267623710E+02  0.97829640552E+02  0.10611248123E+03  0.41800000000E+01 0. -1.
        -11    1    1    2    0    0  0.40929606445E+02  0.55492608120E+02  0.11385718745E+03  0.13310943383E+03  0.00000000000E+00 0.  1.
         11    1    1    2    0    0 -0.33841572611E+02  0.25231471702E+01  0.10957952862E+03  0.11471395469E+03  0.00000000000E+00 0. -1.
</event>
<event>
 7    1  0.5109948E-006  0.8679818E+02  0.7561462E-02  0.1310796E+00
         -1   -1    0    0    0  501 -0.00000000000E+00  0.00000000000E+00  0.22433481782E+02  0.22433481782E+02  0.00000000000E+00 0.  1.
          1   -1    0    0  501    0  0.00000000000E+00 -0.00000000000E+00 -0.54897492584E+03  0.54897492584E+03  0.00000000000E+00 0. -1.
         23    2    1    2    0    0  0.10992953154E+02  0.12706293358E+01 -0.26624866446E+03  0.29521026485E+03  0.12703656807E+03 0.  0.
          5    1    3    3  502    0 -0.86376757732E+01  0.43240378971E+02 -0.27862738882E+02  0.52327281931E+02  0.41800000000E+01 0. -1.
         -5    1    3    3    0  502  0.19630628927E+02 -0.41969749635E+02 -0.23838592558E+03  0.24288298291E+03  0.41800000000E+01 0.  1.
        -11    1    1    2    0    0  0.75135723460E+01  0.38335822786E+02 -0.63070751543E+02  0.74189007126E+02  0.00000000000E+00 0.  1.
         11    1    1    2    0    0 -0.18506525500E+02 -0.39606452121E+02 -0.19722202806E+03  0.20200913565E+03  0.00000000000E+00 0. -1.
</event>
<event>
 7    1  0.5109948E-006  0.1593799E+03  0.7561462E-02  0.1189399E+00
          1   -1    0    0  501    0  0.00000000000E+00  0.00000000000E+00  0.62513921342E+03  0.62513921342E+03  0.00000000000E+00 0. -1.
         -1   -1    0    0    0  501 -0.00000000000E+00 -0.00000000000E+00 -0.44997973744E+02  0.44997973744E+02  0.00000000000E+00 0.  1.
         23    2    1    2    0    0  0.71429884874E+02 -0.96421988189E+02  0.22303059994E+03  0.28246942974E+03  0.12508757719E+03 0.  0.
          5    1    3    3  502    0 -0.40032168943E+01  0.27362668863E+02  0.29725439170E+02  0.40814403421E+02  0.41800000000E+01 0.  1.
         -5    1    3    3    0  502  0.75433101768E+02 -0.12378465705E+03  0.19330516077E+03  0.24165502632E+03  0.41800000000E+01 0.  1.
        -11    1    1    2    0    0  0.26326961381E+01  0.65438245328E+02  0.11197781572E+03  0.12972326797E+03  0.00000000000E+00 0. -1.
         11    1    1    2    0    0 -0.74062581012E+02  0.30983742861E+02  0.24513282401E+03  0.25794448945E+03  0.00000000000E+00 0.  1.
</event>
<event>
 7    1  0.5109948E-006  0.1222193E+03  0.7561462E-02  0.1239480E+00
         -3   -1    0    0    0  501 -0.00000000000E+00  0.00000000000E+00  0.16903575946E+03  0.16903575946E+03  0.00000000000E+00 0.  1.
          3   -1    0    0  501    0  0.00000000000E+00 -0.00000000000E+00 -0.11758482653E+03  0.11758482653E+03  0.00000000000E+00 0. -1.
         23    2    1    2    0    0  0.48174855240E+02 -0.37155759768E+02  0.91631951896E+02  0.16657002623E+03  0.12509113426E+03 0.  0.
          5    1    3    3  502    0  0.83027822261E+02  0.28051313581E+00  0.76729207560E+02  0.11313063975E+03  0.41800000000E+01 0. -1.
         -5    1    3    3    0  502 -0.34852967021E+02 -0.37436272904E+02  0.14902744336E+02  0.53439386484E+02  0.41800000000E+01 0. -1.
        -11    1    1    2    0    0 -0.41352516093E+02 -0.24425744222E+02 -0.37462569903E+01  0.48173457520E+02  0.00000000000E+00 0.  1.
         11    1    1    2    0    0 -0.68223391475E+01  0.61581503990E+02 -0.36434761983E+02  0.71877102236E+02  0.00000000000E+00 0. -1.
</event>
<event>
 7    1  0.5109948E-006  0.7341358E+02  0.7561462E-02  0.1348855E+00
         -2   -1    0    0    0  501 -0.00000000000E+00  0.00000000000E+00  0.61127062391E+02  0.61127062391E+02  0.00000000000E+00 0.  1.
          2   -1    0    0  501    0  0.00000000000E+00 -0.00000000000E+00 -0.20748015076E+03  0.20748015076E+03  0.00000000000E+00 0. -1.
         23    2    1    2    0    0 -0.86618511361E+01 -0.22656738066E+02 -0.65096725068E+02  0.14308913283E+03  0.12509420800E+03 0.  0.
          5    1    3    3  502    0 -0.55510549488E+02 -0.14840607655E+02 -0.74817201177E+02  0.94428548289E+02  0.41800000000E+01 0.  1.
         -5    1    3    3    0  502  0.46848698352E+02 -0.78161304115E+01  0.97204761096E+01  0.48660584539E+02  0.41800000000E+01 0.  1.
        -11    1    1    2    0    0 -0.11438583541E+02  0.26002825003E+00  0.18261422954E+02  0.21549672304E+02  0.00000000000E+00 0.  1.
         11    1    1    2    0    0  0.20100434677E+02  0.22396709816E+02 -0.99517786253E+02  0.10396840802E+03  0.00000000000E+00 0. -1.
</event>
<event>
 7    1  0.5109948E-006  0.1012683E+03  0.7561462E-02  0.1277651E+00
          1   -1    0    0  501    0  0.00000000000E+00  0.00000000000E+00  0.68215312980E+03  0.68215312980E+03  0.00000000000E+00 0. -1.
         -1   -1    0    0    0  501 -0.00000000000E+00 -0.00000000000E+00 -0.22458497164E+02  0.22458497164E+02  0.00000000000E+00 0.  1.
         23    2    1    2    0    0  0.37722354555E+02  0.21864740820E+02  0.25168264524E+03  0.28441664335E+03  0.12509048797E+03 0.  0.
          5    1    3    3  502    0 -0.22677108652E+02  0.41387819011E+02  0.18996415133E+03  0.19578318112E+03  0.41800000000E+01 0. -1.
         -5    1    3    3    0  502  0.60399463207E+02 -0.19523078191E+02  0.61718493910E+02  0.88633462238E+02  0.41800000000E+01 0. -1.
        -11    1    1    2    0    0  0.15779518379E+02  0.18652909711E+02  0.46722077959E+02  0.52724537075E+02  0.00000000000E+00 0. -1.
         11    1    1    2    0    0 -0.53501872934E+02 -0.40517650531E+02  0.36128990944E+03  0.36747044653E+03  0.00000000000E+00 0.  1.
</event>
<event>
 7    1  0.5109948E-006  0.1141475E+03  0.7561462E-02  0.1253077E+00
          1   -1    0    0  501    0  0.00000000000E+00  0.00000000000E+00  0.16775957615E+02  0.16775957615E+02  0.00000000000E+00 0. -1.
         -1   -1    0    0    0  501 -0.00000000000E+00 -0.00000000000E+00 -0.14692618834E+04  0.14692618834E+04  0.00000000000E+00 0.  1.
         23    2    1    2    0    0  0.88489052947E+01 -0.63118813786E+02 -0.12296797150E+04  0.12371602877E+04  0.11996286126E+03 0.  0.
          5    1    3    3  502    0  0.47032063328E+02 -0.43518748792E+00 -0.23091049359E+03  0.23568905961E+03  0.41800000000E+01 0. -1.
         -5    1    3    3    0  502 -0.38183158034E+02 -0.62683626298E+02 -0.99876922143E+03  0.10014712281E+04  0.41800000000E+01 0.  1.
        -11    1    1    2    0    0 -0.40153299496E+02  0.64775115899E+02 -0.18281438532E+03  0.19806363265E+03  0.00000000000E+00 0.  1.
         11    1    1    2    0    0  0.31304394201E+02 -0.16563021123E+01 -0.39991825423E+02  0.50813920668E+02  0.00000000000E+00 0. -1.
</event>
<event>
 7    1  0.5109948E-006  0.1532767E+03  0.7561462E-02  0.1196503E+00
         -2   -1    0    0    0  501 -0.00000000000E+00  0.00000000000E+00  0.13088105484E+03  0.13088105484E+03  0.00000000000E+00 0.  1.
          2   -1    0    0  501    0  0.00000000000E+00 -0.00000000000E+00 -0.23430470556E+03  0.23430470556E+03  0.00000000000E+00 0. -1.
         23    2    1    2    0    0  0.65894091824E+02 -0.10587134390E+03  0.46424562193E+01  0.17666095920E+03  0.12504706838E+03 0.  0.
          5    1    3    3  502    0  0.28425337387E+01  0.27691915301E+02 -0.49983521979E+01  0.28589825040E+02  0.41800000000E+01 0. -1.
         -5    1    3    3    0  502  0.63051558085E+02 -0.13356325920E+03  0.96408084171E+01  0.14807113416E+03  0.41800000000E+01 0. -1.
        -11    1    1    2    0    0 -0.49727323240E+02  0.43032445631E+02 -0.10459041115E+03  0.12354655867E+03  0.00000000000E+00 0. -1.
         11    1    1    2    0    0 -0.16166768584E+02  0.62838898266E+02 -0.34756957818E+01  0.64978242535E+02  0.00000000000E+00 0.  1.
</event>
<event>
 7    1  0.5109948E-006  0.1080046E+03  0.7561462E-02  0.1264310E+00
          2   -1    0    0  501    0  0.00000000000E+00  0.00000000000E+00  0.70756224096E+03  0.70756224096E+03  0.00000000000E+00 0. -1.
         -2   -1    0    0    0  501 -0.00000000000E+00 -0.00000000000E+00 -0.16589769532E+02  0.16589769532E+02  0.00000000000E+00 0.  1.
         23    2    1    2    0    0  0.45091479580E+01  0.24780285650E+02  0.40067940788E+03  0.42050681197E+03  0.12509035152E+03 0.  0.
          5    1    3    3  502    0 -0.60062731287E+02  0.10351886991E+02  0.18003969819E+03  0.19012222011E+03  0.41800000000E+01 0. -1.
         -5    1    3    3    0  502  0.64571879245E+02  0.14428398658E+02  0.22063970969E+03  0.23038459186E+03  0.41800000000E+01 0. -1.
        -11    1    1    2    0    0  0.40229013080E+02 -0.14077364986E+02  0.12475777988E+03  0.13183720772E+03  0.00000000000E+00 0.  1.
         11    1    1    2    0    0 -0.44738161038E+02 -0.10702920663E+02  0.16553528367E+03  0.17180799080E+03  0.00000000000E+00 0. -1.
</event>
<event>
 7    1  0.5109948E-006  0.1404497E+03  0.7561462E-02  0.1212725E+00
          1   -1    0    0  501    0  0.00000000000E+00  0.00000000000E+00  0.52758521935E+02  0.52758521935E+02  0.00000000000E+00 0. -1.
         -1   -1    0    0    0  501 -0.00000000000E+00 -0.00000000000E+00 -0.38762100650E+03  0.38762100650E+03  0.00000000000E+00 0.  1.
         23    2    1    2    0    0  0.34959268626E+02 -0.83839278722E+02 -0.20575986604E+03  0.25736340442E+03  0.12509046463E+03 0.  0.
          5    1    3    3  502    0 -0.45243417755E+02 -0.47927438532E+02 -0.99322082656E+02  0.11927428355E+03  0.41800000000E+01 0. -1.
         -5    1    3    3    0  502  0.80202686381E+02 -0.35911840190E+02 -0.10643778339E+03  0.13808912086E+03  0.41800000000E+01 0. -1.
        -11    1    1    2    0    0  0.29854739898E+02  0.20182054986E+02 -0.20620848721E+02  0.41519155095E+02  0.00000000000E+00 0. -1.
         11    1    1    2    0    0 -0.64814008524E+02  0.63657223736E+02 -0.10848176981E+03  0.14149696892E+03  0.00000000000E+00 0.  1.
</event>
<event>
 7    1  0.5109948E-006  0.3200198E+03  0.7561462E-02  0.1075640E+00
         -1   -1    0    0    0  501 -0.00000000000E+00  0.00000000000E+00  0.64181263832E+02  0.64181263832E+02  0.00000000000E+00 0.  1.
          1   -1    0    0  501    0  0.00000000000E+00 -0.00000000000E+00 -0.17252364898E+04  0.17252364898E+04  0.00000000000E+00 0. -1.
         23    2    1    2    0    0  0.29383236381E+03  0.10682424383E+03 -0.94156899397E+03  0.99997411984E+03  0.12508873997E+03 0.  0.
          5    1    3    3  502    0  0.13740355871E+03  0.81651562338E+02 -0.30979110363E+03  0.34861829537E+03  0.41800000000E+01 0.  1.
         -5    1    3    3    0  502  0.15642880510E+03  0.25172681497E+02 -0.63177789034E+03  0.65135582447E+03  0.41800000000E+01 0.  1.
        -11    1    1    2    0    0 -0.17167284922E+03 -0.22324232557E+02 -0.33119070465E+03  0.37370740074E+03  0.00000000000E+00 0. -1.
         11    1    1    2    0    0 -0.12215951459E+03 -0.84500011277E+02 -0.38829552736E+03  0.41573623306E+03  0.00000000000E+00 0.  1.
</event>
<event>
 7    1  0.5109948E-006  0.1019280E+03  0.7561462E-02  0.1276293E+00
          2   -1    0    0  501    0  0.00000000000E+00  0.00000000000E+00  0.33390742064E+03  0.33390742064E+03  0.00000000000E+00 0. -1.
         -2   -1    0    0    0  501 -0.00000000000E+00 -0.00000000000E+00 -0.53781101888E+02  0.53781101888E+02  0.00000000000E+00 0.  1.
         23    2    1    2    0    0  0.10097768016E+02  0.18043166073E+02  0.38909682335E+02  0.13262678913E+03  0.12509348926E+03 0.  0.
          5    1    3    3  502    0 -0.36254285174E+01 -0.50595842923E+02 -0.29110662770E+01  0.50980680262E+02  0.41800000000E+01 0. -1.
         -5    1    3    3    0  502  0.13723196534E+02  0.68639008997E+02  0.41820748612E+02  0.81646108870E+02  0.41800000000E+01 0. -1.
        -11    1    1    2    0    0  0.33537403031E+02 -0.20194741436E+02  0.10936056277E+03  0.11615643621E+03  0.00000000000E+00 0.  1.
         11    1    1    2    0    0 -0.43635171047E+02  0.21515753629E+01  0.13185607365E+03  0.13890529719E+03  0.00000000000E+00 0. -1.
</event>
<event>
 7    1  0.5109948E-006  0.1208485E+03  0.7561462E-02  0.1241704E+00
         -1   -1    0    0    0  501 -0.00000000000E+00  0.00000000000E+00  0.20900389703E+03  0.20900389703E+03  0.00000000000E+00 0.  1.
          1   -1    0    0  501    0  0.00000000000E+00 -0.00000000000E+00 -0.10117423700E+03  0.10117423700E+03  0.00000000000E+00 0. -1.
         23    2    1    2    0    0 -0.33141731434E+02 -0.61453156664E+02  0.13122243518E+03  0.19425917916E+03  0.12506972603E+03 0.  0.
          5    1    3    3  502    0  0.37246446367E+02 -0.84309038292E+00  0.55033203418E+01  0.37891522840E+02  0.41800000000E+01 0. -1.
         -5    1    3    3    0  502 -0.70388177801E+02 -0.60610066281E+02  0.12571911484E+03  0.15636765632E+03  0.41800000000E+01 0. -1.
        -11    1    1    2    0    0 -0.25701585284E+02  0.42019183607E+02 -0.21968092491E+02  0.53933110098E+02  0.00000000000E+00 0.  1.
         11    1    1    2    0    0  0.58843316718E+02  0.19433973056E+02 -0.14246826635E+01  0.61985844770E+02  0.00000000000E+00 0. -1.
</event>
<event>
 7    1  0.5109948E-006  0.8877361E+02  0.7561462E-02  0.1305849E+00
         -2   -1    0    0    0  501 -0.00000000000E+00  0.00000000000E+00  0.13727973397E+03  0.13727973397E+03  0.00000000000E+00 0.  1.
          2   -1    0    0  501    0  0.00000000000E+00 -0.00000000000E+00 -0.91479351599E+02  0.91479351599E+02  0.00000000000E+00 0. -1.
         23    2    1    2    0    0  0.58371173192E+01 -0.46299568089E+02  0.28790875622E+02  0.13658008922E+03  0.12508990490E+03 0.  0.
          5    1    3    3  502    0  0.50600952987E+02 -0.62817774334E+02  0.14681113892E+00  0.80771425449E+02  0.41800000000E+01 0. -1.
         -5    1    3    3    0  502 -0.44763835668E+02  0.16518206245E+02  0.28644064483E+02  0.55808663767E+02  0.41800000000E+01 0. -1.
        -11    1    1    2    0    0  0.22754834449E+01  0.34410781371E+02 -0.28317054504E+02  0.44622138847E+02  0.00000000000E+00 0. -1.
         11    1    1    2    0    0 -0.81126007641E+01  0.11888786717E+02  0.45326561256E+02  0.47556857509E+02  0.00000000000E+00 0.  1.
</event>
<event>
 7    1  0.5109948E-006  0.2066801E+03  0.7561462E-02  0.1144222E+00
          1   -1    0    0  501    0  0.00000000000E+00  0.00000000000E+00  0.34888094885E+02  0.34888094885E+02  0.00000000000E+00 0. -1.
         -1   -1    0    0    0  501 -0.00000000000E+00 -0.00000000000E+00 -0.13859302084E+04  0.13859302084E+04  0.00000000000E+00 0.  1.
         23    2    1    2    0    0  0.56786106183E+02 -0.16880650333E+03 -0.92271773449E+03  0.94803848838E+03  0.12509460611E+03 0.  0.
          5    1    3    3  502    0  0.30169558807E+02  0.10265427248E+02 -0.22129741250E+03  0.22361931592E+03  0.41800000000E+01 0. -1.
         -5    1    3    3    0  502  0.26616547376E+02 -0.17907193058E+03 -0.70142032199E+03  0.72441917245E+03  0.41800000000E+01 0. -1.
        -11    1    1    2    0    0 -0.65383081015E+02  0.53436796091E+02 -0.17778625121E+03  0.19682070414E+03  0.00000000000E+00 0.  1.
         11    1    1    2    0    0  0.85969748321E+01  0.11536970724E+03 -0.25053812777E+03  0.27595911072E+03  0.00000000000E+00 0. -1.
</event>
<event>
 7    1  0.5109948E-006  0.9838682E+02  0.7561462E-02  0.1283725E+00
          1   -1    0    0  501    0  0.00000000000E+00  0.00000000000E+00  0.20668366429E+03  0.20668366429E+03  0.00000000000E+00 0. -1.
         -1   -1    0    0    0  501 -0.00000000000E+00 -0.00000000000E+00 -0.10791178124E+03  0.10791178124E+03  0.00000000000E+00 0.  1.
         23    2    1    2    0    0  0.15732997131E+02  0.41849826026E+02 -0.43324613702E+02  0.13974393393E+03  0.12510959108E+03 0.  0.
          5    1    3    3  502    0 -0.34040036492E+02  0.12345005796E+01 -0.63584074237E+02  0.72254100040E+02  0.41800000000E+01 0.  1.
         -5    1    3    3    0  502  0.49773033622E+02  0.40615325447E+02  0.20259460535E+02  0.67489833888E+02  0.41800000000E+01 0.  1.
        -11    1    1    2    0    0  0.35084866827E+02 -0.53026734954E+01  0.30014924781E+02  0.46475390650E+02  0.00000000000E+00 0.  1.
         11    1    1    2    0    0 -0.50817863957E+02 -0.36547152531E+02  0.11208157198E+03  0.12837612096E+03  0.00000000000E+00 0. -1.
</event>
<event>
 7    1  0.5109948E-006  0.6653434E+02  0.7561462E-02  0.1372291E+00
         -2   -1    0    0    0  501 -0.00000000000E+00  0.00000000000E+00  0.25062397442E+02  0.25062397442E+02  0.00000000000E+00 0.  1.
          2   -1    0    0  501    0  0.00000000000E+00 -0.00000000000E+00 -0.48108720078E+03  0.48108720078E+03  0.00000000000E+00 0. -1.
         23    2    1    2    0    0  0.97735639493E+01 -0.79388213548E+01 -0.22555153613E+03  0.25822378813E+03  0.12508989515E+03 0.  0.
          5    1    3    3  502    0  0.22353611237E+00 -0.32469547002E+02 -0.16908330835E+01  0.32781896947E+02  0.41800000000E+01 0. -1.
         -5    1    3    3    0  502  0.95500278370E+01  0.24530725647E+02 -0.22386070304E+03  0.22544189118E+03  0.41800000000E+01 0. -1.
        -11    1    1    2    0    0  0.26081179080E+02  0.23012314936E+02 -0.18430313017E+03  0.18755649371E+03  0.00000000000E+00 0. -1.
         11    1    1    2    0    0 -0.35854743029E+02 -0.15073493582E+02 -0.46170137037E+02  0.60369316382E+02  0.00000000000E+00 0.  1.
</event>
<event>
 7    1  0.5109948E-006  0.1044770E+03  0.7561462E-02  0.1271153E+00
          3   -1    0    0  501    0  0.00000000000E+00  0.00000000000E+00  0.22366069027E+03  0.22366069027E+03  0.00000000000E+00 0. -1.
         -3   -1    0    0    0  501 -0.00000000000E+00 -0.00000000000E+00 -0.70099725403E+02  0.70099725403E+02  0.00000000000E+00 0.  1.
         23    2    1    2    0    0 -0.53719302596E+02 -0.46010649241E+01  0.49993291005E+02  0.14510189344E+03  0.12509315355E+03 0.  0.
          5    1    3    3  502    0 -0.23538796096E+02  0.42187580705E+02  0.70546359961E+02  0.85604486980E+02  0.41800000000E+01 0. -1.
         -5    1    3    3    0  502 -0.30180506500E+02 -0.46788645629E+02 -0.20553068956E+02  0.59497406463E+02  0.41800000000E+01 0. -1.
        -11    1    1    2    0    0  0.68872124673E+02 -0.23443118764E+02  0.57971622658E+02  0.93025041833E+02  0.00000000000E+00 0.  1.
         11    1    1    2    0    0 -0.15152822077E+02  0.28044183688E+02  0.45596051202E+02  0.55633480395E+02  0.00000000000E+00 0. -1.
</event>
<event>
 7    1  0.5109948E-006  0.1469029E+03  0.7561462E-02  0.1204331E+00
          2   -1    0    0  501    0  0.00000000000E+00  0.00000000000E+00  0.16690821607E+03  0.16690821607E+03  0.00000000000E+00 0. -1.
         -2   -1    0    0    0  501 -0.00000000000E+00 -0.00000000000E+00 -0.15527524338E+03  0.15527524338E+03  0.00000000000E+00 0.  1.
         23    2    1    2    0    0 -0.10679058202E+03  0.39494894140E+02 -0.24846518425E+02  0.17096783968E+03  0.12509427507E+03 0.  0.
          5    1    3    3  502    0 -0.10077555775E+01 -0.29603402862E+02  0.20936550865E+02  0.36512855194E+02  0.41800000000E+01 0.  1.
         -5    1    3    3    0  502 -0.10578282645E+03  0.69098297002E+02 -0.45783069290E+02  0.13445498449E+03  0.41800000000E+01 0.  1.
        -11    1    1    2    0    0  0.11821842070E+03 -0.28482117992E+02  0.12203159011E+02  0.12221187801E+03  0.00000000000E+00 0.  1.
         11    1    1    2    0    0 -0.11427838675E+02 -0.11012776149E+02  0.24276332109E+02  0.29003741758E+02  0.00000000000E+00 0. -1.
</event>
<event>
 7    1  0.5109948E-006  0.1035644E+03  0.7561462E-02  0.1272974E+00
          4   -1    0    0  501    0  0.00000000000E+00  0.00000000000E+00  0.23975338989E+03  0.23975338989E+03  0.00000000000E+00 0.  1.
         -4   -1    0    0    0  501 -0.00000000000E+00 -0.00000000000E+00 -0.56345346077E+02  0.56345346077E+02  0.00000000000E+00 0. -1.
         23    2    1    2    0    0  0.96274427575E+00 -0.41389095221E+02  0.95713475261E+02  0.16285706211E+03  0.12508944502E+03 0.  0.
          5    1    3    3  502    0 -0.29557721345E+02  0.28252715695E+02  0.72337821689E+02  0.83199204816E+02  0.41800000000E+01 0.  1.
         -5    1    3    3    0  502  0.30520465621E+02 -0.69641810916E+02  0.23375653572E+02  0.79657857298E+02  0.41800000000E+01 0.  1.
        -11    1    1    2    0    0 -0.32507207853E+02  0.47683493643E+02  0.25235206209E+02  0.62986107681E+02  0.00000000000E+00 0.  1.
         11    1    1    2    0    0  0.31544463577E+02 -0.62943984216E+01  0.62459362342E+02  0.70255566171E+02  0.00000000000E+00 0. -1.
</event>
<event>
 7    1  0.5109948E-006  0.1695843E+03  0.7561462E-02  0.1178282E+00
          1   -1    0    0  501    0  0.00000000000E+00  0.00000000000E+00  0.32863804695E+03  0.32863804695E+03  0.00000000000E+00 0. -1.
         -1   -1    0    0    0  501 -0.00000000000E+00 -0.00000000000E+00 -0.11447507672E+03  0.11447507672E+03  0.00000000000E+00 0.  1.
         23    2    1    2    0    0  0.12321332752E+03  0.61052294385E+02  0.17115321216E+02  0.18667959248E+03  0.12508968503E+03 0.  0.
          5    1    3    3  502    0  0.14502360934E+03  0.67176739191E+02  0.26014949689E+02  0.16198398551E+03  0.41800000000E+01 0.  1.
         -5    1    3    3    0  502 -0.21810281813E+02 -0.61244448058E+01 -0.88996284737E+01  0.24695606976E+02  0.41800000000E+01 0.  1.
        -11    1    1    2    0    0 -0.13336399833E+03 -0.53952811200E+02  0.15022873042E+03  0.20800368586E+03  0.00000000000E+00 0.  1.
         11    1    1    2    0    0  0.10150670810E+02 -0.70994831852E+01  0.46818918594E+02  0.48429845320E+02  0.00000000000E+00 0. -1.
</event>
<event>
 7    1  0.5109948E-006  0.1029466E+03  0.7561462E-02  0.1274219E+00
         -1   -1    0    0    0  501 -0.00000000000E+00  0.00000000000E+00  0.66332403483E+02  0.66332403483E+02  0.00000000000E+00 0.  1.
          1   -1    0    0  501    0  0.00000000000E+00 -0.00000000000E+00 -0.19744323979E+03  0.19744323979E+03  0.00000000000E+00 0. -1.
         23    2    1    2    0    0  0.14235236611E+02 -0.37343373164E+02 -0.74488997376E+02  0.15097146063E+03  0.12508637701E+03 0.  0.
          5    1    3    3  502    0 -0.40083047123E+02  0.23162095413E+02 -0.44081317967E+02  0.64060661286E+02  0.41800000000E+01 0.  1.
         -5    1    3    3    0  502  0.54318283734E+02 -0.60505468578E+02 -0.30407679409E+02  0.86910799344E+02  0.41800000000E+01 0.  1.
        -11    1    1    2    0    0 -0.12659081248E+02 -0.18341471051E+02  0.11277643816E+02  0.24976932326E+02  0.00000000000E+00 0.  1.
         11    1    1    2    0    0 -0.15761553627E+01  0.55684844215E+02 -0.67899482742E+02  0.87827250313E+02  0.00000000000E+00 0. -1.
</event>
<event>
 7    1  0.5109948E-006  0.1109453E+03  0.7561462E-02  0.1258829E+00
          2   -1    0    0  501    0  0.00000000000E+00  0.00000000000E+00  0.29919533236E+03  0.29919533236E+03  0.00000000000E+00 0. -1.
         -2   -1    0    0    0  501 -0.00000000000E+00 -0.00000000000E+00 -0.45790148499E+02  0.45790148499E+02  0.00000000000E+00 0.  1.
         23    2    1    2    0    0 -0.29283368726E+02  0.20393887009E+02  0.97617011648E+02  0.16263431239E+03  0.12508961704E+03 0.  0.
          5    1    3    3  502    0 -0.63273305233E+02 -0.26771475725E+02  0.69873220879E+02  0.98081407329E+02  0.41800000000E+01 0.  1.
         -5    1    3    3    0  502  0.33989936507E+02  0.47165362734E+02  0.27743790769E+02  0.64552905061E+02  0.41800000000E+01 0.  1.
        -11    1    1    2    0    0 -0.46315222204E+01 -0.49721094248E+02  0.81757147256E+02  0.95801196959E+02  0.00000000000E+00 0. -1.
         11    1    1    2    0    0  0.33914890946E+02  0.29327207239E+02  0.74031024960E+02  0.86549971514E+02  0.00000000000E+00 0.  1.
</event>
<event>
 7    1  0.5109948E-006  0.9217447E+02  0.7561462E-02  0.1297670E+00
         -2   -1    0    0    0  501 -0.00000000000E+00  0.00000000000E+00  0.27968248593E+02  0.27968248593E+02  0.00000000000E+00 0.  1.
          2   -1    0    0  501    0  0.00000000000E+00 -0.00000000000E+00 -0.58422710797E+03  0.58422710797E+03  0.00000000000E+00 0. -1.
         23    2    1    2    0    0  0.57941798921E+02  0.30854852905E+02 -0.29548747003E+03  0.32752086090E+03  0.12509114824E+03 0.  0.
          5    1    3    3  502    0  0.73518440634E+02  0.28877662237E+02 -0.83885030969E+02  0.11529549562E+03  0.41800000000E+01 0. -1.
         -5    1    3    3    0  502 -0.15576641713E+02  0.19771906679E+01 -0.21160243906E+03  0.21222536528E+03  0.41800000000E+01 0. -1.
        -11    1    1    2    0    0 -0.29689919444E+02 -0.47645181552E+02 -0.23839408850E+03  0.24491487515E+03  0.00000000000E+00 0. -1.
         11    1    1    2    0    0 -0.28251879477E+02  0.16790328647E+02 -0.22377300852E+02  0.39759620515E+02  0.00000000000E+00 0.  1.
</event>
<event>
 6    1  0.5109948E-006  0.1013779E+03  0.7561462E-02  0.1277425E+00
          1   -1    0    0  501    0  0.00000000000E+00  0.00000000000E+00  0.53231692001E+03  0.53231692001E+03  0.00000000000E+00 0. -1.
         -1   -1    0    0    0  501 -0.00000000000E+00 -0.00000000000E+00 -0.37811076990E+02  0.37811076990E+02  0.00000000000E+00 0.  1.
          5    1    1    2  502    0  0.60518029181E+02 -0.26867219982E+02  0.35437442823E+03  0.36053153419E+03  0.41800000000E+01 0. -1.
         -5    1    1    2    0  502 -0.17920754442E+02  0.29648709372E+02 -0.18647574478E+01  0.34944944234E+02  0.41800000000E+01 0.  1.
        -11    1    1    2    0    0 -0.27614192151E+02 -0.47174108378E+02  0.81502951899E+02  0.98135983602E+02  0.00000000000E+00 0.  1.
         11    1    1    2    0    0 -0.14983082588E+02  0.44392618988E+02  0.60493220339E+02  0.76515534968E+02  0.00000000000E+00 0. -1.
</event>
<event>
 7    1  0.5109948E-006  0.1023084E+03  0.7561462E-02  0.1275515E+00
          3   -1    0    0  501    0  0.00000000000E+00  0.00000000000E+00  0.43037954541E+03  0.43037954541E+03  0.00000000000E+00 0. -1.
         -3   -1    0    0    0  501 -0.00000000000E+00 -0.00000000000E+00 -0.30632202338E+02  0.30632202338E+02  0.00000000000E+00 0.  1.
         23    2    1    2    0    0 -0.32459547177E+02 -0.29679209935E+01  0.18452695594E+03  0.22522210868E+03  0.12494946984E+03 0.  0.
          5    1    3    3  502    0  0.12193090224E+02 -0.50408983180E+02  0.13047207510E+03  0.14046413000E+03  0.41800000000E+01 0. -1.
         -5    1    3    3    0  502 -0.44652637400E+02  0.47441062187E+02  0.54054880837E+02  0.84757978683E+02  0.41800000000E+01 0. -1.
        -11    1    1    2    0    0  0.47694802850E+02 -0.26183741377E+02  0.80858494384E+02  0.97460138752E+02  0.00000000000E+00 0.  1.
         11    1    1    2    0    0 -0.15235255674E+02  0.29151662371E+02  0.13436189275E+03  0.13832950032E+03  0.00000000000E+00 0. -1.
</event>
<event>
 7    1  0.5109948E-006  0.8999833E+02  0.7561462E-02  0.1302856E+00
          3   -1    0    0  501    0  0.00000000000E+00  0.00000000000E+00  0.37886729100E+02  0.37886729100E+02  0.00000000000E+00 0. -1.
         -3   -1    0    0    0  501 -0.00000000000E+00 -0.00000000000E+00 -0.36828289642E+03  0.36828289642E+03  0.00000000000E+00 0.  1.
         23    2    1    2    0    0  0.12408410869E+02 -0.29020097349E+02 -0.24315795233E+03  0.27526218605E+03  0.12508935438E+03 0.  0.
          5    1    3    3  502    0  0.41649566245E+02  0.11418278723E+02 -0.21175136863E+03  0.21615082228E+03  0.41800000000E+01 0. -1.
         -5    1    3    3    0  502 -0.29241155376E+02 -0.40438376072E+02 -0.31406583699E+02  0.59111363770E+02  0.41800000000E+01 0. -1.
        -11    1    1    2    0    0  0.30636477556E+02 -0.57814633823E+01 -0.47043727310E+01  0.31530147457E+02  0.00000000000E+00 0. -1.
         11    1    1    2    0    0 -0.43044888425E+02  0.34801560731E+02 -0.82533842264E+02  0.99377292012E+02  0.00000000000E+00 0.  1.
</event>
<event>
 7    1  0.5109948E-006  0.1076108E+03  0.7561462E-02  0.1265059E+00
          1   -1    0    0  501    0  0.00000000000E+00  0.00000000000E+00  0.23046936760E+03  0.23046936760E+03  0.00000000000E+00 0. -1.
         -1   -1    0    0    0  501 -0.00000000000E+00 -0.00000000000E+00 -0.16787354212E+03  0.16787354212E+03  0.00000000000E+00 0.  1.
         23    2    1    2    0    0 -0.65042066446E+02  0.14078175924E+02 -0.11337355302E+03  0.17858449049E+03  0.12087262832E+03 0.  0.
          5    1    3    3  502    0 -0.63765855000E+02  0.27426027566E+02 -0.54520712968E+01  0.69752912006E+02  0.41800000000E+01 0. -1.
         -5    1    3    3    0  502 -0.12762114459E+01 -0.13347851641E+02 -0.10792148172E+03  0.10883157849E+03  0.41800000000E+01 0.  1.
        -11    1    1    2    0    0  0.97272776344E+02 -0.22328257327E+01  0.13044913393E+03  0.16273891689E+03  0.00000000000E+00 0. -1.
         11    1    1    2    0    0 -0.32230709898E+02 -0.11845350191E+02  0.45520244559E+02  0.57019502333E+02  0.00000000000E+00 0.  1.
</event>
<event>
 7    1  0.5109948E-006  0.1579074E+03  0.7561462E-02  0.1191080E+00
          1   -1    0    0  501    0  0.00000000000E+00  0.00000000000E+00  0.73208776943E+02  0.73208776943E+02  0.00000000000E+00 0. -1.
         -1   -1    0    0    0  501 -0.00000000000E+00 -0.00000000000E+00 -0.42622945671E+03  0.42622945671E+03  0.00000000000E+00 0.  1.
         23    2    1    2    0    0 -0.10796185224E+03  0.87564884554E+02 -0.20235395143E+03  0.27552423931E+03  0.12507243597E+03 0.  0.
          5    1    3    3  502    0  0.15895406840E+02  0.24863017205E+02  0.34681309808E+00  0.29806480209E+02  0.41800000000E+01 0.  1.
         -5    1    3    3    0  502 -0.12385725908E+03  0.62701867349E+02 -0.20270076453E+03  0.24571775910E+03  0.41800000000E+01 0.  1.
        -11    1    1    2    0    0  0.54681902506E+02 -0.14277032250E+02 -0.11189831822E+03  0.12536019198E+03  0.00000000000E+00 0. -1.
         11    1    1    2    0    0  0.53279949731E+02 -0.73287852304E+02 -0.38768410113E+02  0.98553802369E+02  0.00000000000E+00 0.  1.
</event>
<event>
 7    1  0.5109948E-006  0.1142786E+03  0.7561462E-02  0.1252846E+00
          2   -1    0    0  501    0  0.00000000000E+00  0.00000000000E+00  0.55014083179E+02  0.55014083179E+02  0.00000000000E+00 0. -1.
         -2   -1    0    0    0  501 -0.00000000000E+00 -0.00000000000E+00 -0.26801796915E+03  0.26801796915E+03  0.00000000000E+00 0.  1.
         23    2    1    2    0    0 -0.29507183885E+02 -0.24270466556E+02 -0.13796465718E+03  0.19011099094E+03  0.12509281673E+03 0.  0.
          5    1    3    3  502    0  0.31533797058E+02 -0.52476719956E+02 -0.82649041577E+02  0.10293941406E+03  0.41800000000E+01 0. -1.
         -5    1    3    3    0  502 -0.61040980943E+02  0.28206253400E+02 -0.55315615599E+02  0.87171576872E+02  0.41800000000E+01 0. -1.
        -11    1    1    2    0    0  0.51791235139E+02 -0.15647041006E+02 -0.67629980857E+02  0.86608176520E+02  0.00000000000E+00 0. -1.
         11    1    1    2    0    0 -0.22284051255E+02  0.39917507561E+02 -0.74092479395E+01  0.46312884873E+02  0.00000000000E+00 0.  1.
</event>
<event>
 7    1  0.5109948E-006  0.8393540E+02  0.7561462E-02  0.1318240E+00
          1   -1    0    0  501    0  0.00000000000E+00  0.00000000000E+00  0.13763076888E+03  0.13763076888E+03  0.00000000000E+00 0. -1.
         -1   -1    0    0    0  501 -0.00000000000E+00 -0.00000000000E+00 -0.93316881708E+02  0.93316881708E+02  0.00000000000E+00 0.  1.
         23    2    1    2    0    0  0.19643960030E+02  0.20132360438E+02 -0.19304763916E+01  0.12822825362E+03  0.12509021219E+03 0.  0.
          5    1    3    3  502    0 -0.46701540789E+01  0.70171850025E+02  0.10053765763E+02  0.71164945592E+02  0.41800000000E+01 0. -1.
         -5    1    3    3    0  502  0.24314114109E+02 -0.50039489587E+02 -0.11984242155E+02  0.57063308027E+02  0.41800000000E+01 0. -1.
        -11    1    1    2    0    0 -0.92748319429E+01  0.76194305830E+01  0.66018368209E+02  0.67100694266E+02  0.00000000000E+00 0. -1.
         11    1    1    2    0    0 -0.10369128087E+02 -0.27751791021E+02 -0.19774004649E+02  0.35618702700E+02  0.00000000000E+00 0.  1.
</event>
<event>
 7    1  0.5109948E-006  0.1394727E+03  0.7561462E-02  0.1214040E+00
         -2   -1    0    0    0  501 -0.00000000000E+00  0.00000000000E+00  0.50623482631E+02  0.50623482631E+02  0.00000000000E+00 0. -1.
          2   -1    0    0  501    0  0.00000000000E+00 -0.00000000000E+00 -0.44080026211E+03  0.44080026211E+03  0.00000000000E+00 0.  1.
         23    2    1    2    0    0  0.57293878556E+02  0.68953963175E+02 -0.13338211275E+03  0.20387681284E+03  0.12545010663E+03 0.  0.
          5    1    3    3  502    0 -0.13076622661E+02 -0.29358465602E+02 -0.20058304901E+02  0.38114637060E+02  0.41800000000E+01 0.  1.
         -5    1    3    3    0  502  0.70370501216E+02  0.98312428777E+02 -0.11332380785E+03  0.16576217578E+03  0.41800000000E+01 0.  1.
        -11    1    1    2    0    0 -0.58231402585E+02 -0.88529076907E+02 -0.18575072768E+03  0.21384954182E+03  0.00000000000E+00 0. -1.
         11    1    1    2    0    0  0.93752402962E+00  0.19575113732E+02 -0.71043939051E+02  0.73697390082E+02  0.00000000000E+00 0.  1.
</event>
<event>
 6    1  0.5109948E-006  0.1657272E+03  0.7561462E-02  0.1182378E+00
          1   -1    0    0  501    0  0.00000000000E+00  0.00000000000E+00  0.23300049394E+03  0.23300049394E+03  0.00000000000E+00 0. -1.
         -1   -1    0    0    0  501 -0.00000000000E+00 -0.00000000000E+00 -0.15699555648E+03  0.15699555648E+03  0.00000000000E+00 0.  1.
          5    1    1    2  502    0  0.50798616772E+02 -0.71368772811E+01  0.83797186072E+02  0.98340608483E+02  0.41800000000E+01 0. -1.
         -5    1    1    2    0  502 -0.77940391031E+01 -0.12080483835E+03 -0.35924322947E+02  0.12634312563E+03  0.41800000000E+01 0.  1.
        -11    1    1    2    0    0 -0.62079294894E+02  0.12498917825E+03  0.36536080896E+02  0.14426024658E+03  0.00000000000E+00 0. -1.
         11    1    1    2    0    0  0.19074717226E+02  0.29525373751E+01 -0.84040065583E+01  0.21052069742E+02  0.00000000000E+00 0.  1.
</event>
<event>
 7    1  0.5109948E-006  0.9882444E+02  0.7561462E-02  0.1282788E+00
         -4   -1    0    0    0  501 -0.00000000000E+00  0.00000000000E+00  0.21056044453E+03  0.21056044453E+03  0.00000000000E+00 0.  1.
          4   -1    0    0  501    0  0.00000000000E+00 -0.00000000000E+00 -0.70669958401E+02  0.70669958401E+02  0.00000000000E+00 0. -1.
         23    2    1    2    0    0  0.41587629964E+02  0.20719863711E+02  0.11467075380E+03  0.17594182625E+03  0.12508917111E+03 0.  0.
          5    1    3    3  502    0  0.35907111576E+02 -0.28297773905E+02  0.11769053434E+03  0.12632742752E+03  0.41800000000E+01 0. -1.
         -5    1    3    3    0  502  0.56805183875E+01  0.49017637616E+02 -0.30197805443E+01  0.49614398728E+02  0.41800000000E+01 0. -1.
        -11    1    1    2    0    0 -0.33768682882E+02 -0.56375501636E+02  0.16721508816E+02  0.67809512499E+02  0.00000000000E+00 0.  1.
         11    1    1    2    0    0 -0.78189470818E+01  0.35655637925E+02  0.84982235158E+01  0.37479064186E+02  0.00000000000E+00 0. -1.
</event>
<event>
 7    1  0.5109948E-006  0.1270707E+03  0.7561462E-02  0.1231868E+00
         -2   -1    0    0    0  501 -0.00000000000E+00  0.00000000000E+00  0.60067742709E+02  0.60067742709E+02  0.00000000000E+00 0.  1.
          2   -1    0    0  501    0  0.00000000000E+00 -0.00000000000E+00 -0.50491716565E+03  0.50491716565E+03  0.00000000000E+00 0. -1.
         23    2    1    2    0    0 -0.26110017214E+02 -0.78473311874E+02 -0.49293235996E+02  0.15058254274E+03  0.11578205988E+03 0.  0.
          5    1    3    3  502    0  0.44863450627E+02 -0.27779498143E+02 -0.31085086695E+02  0.61385541735E+02  0.41800000000E+01 0. -1.
         -5    1    3    3    0  502 -0.70973467842E+02 -0.50693813731E+02 -0.18208149301E+02  0.89197001009E+02  0.41800000000E+01 0.  1.
        -11    1    1    2    0    0  0.41332763272E+02  0.83946869330E+01 -0.76202127357E+02  0.87095535489E+02  0.00000000000E+00 0.  1.
         11    1    1    2    0    0 -0.15222746058E+02  0.70078624941E+02 -0.31935405959E+03  0.32730683012E+03  0.00000000000E+00 0. -1.
</event>
<event>
 7    1  0.5109948E-006  0.1071407E+03  0.7561462E-02  0.1265958E+00
          1   -1    0    0  501    0  0.00000000000E+00  0.00000000000E+00  0.98976165139E+02  0.98976165139E+02  0.00000000000E+00 0. -1.
         -1   -1    0    0    0  501 -0.00000000000E+00 -0.00000000000E+00 -0.15147612959E+03  0.15147612959E+03  0.00000000000E+00 0.  1.
         23    2    1    2    0    0 -0.25754476082E+02 -0.23673651193E+02 -0.75664522762E+02  0.15032078887E+03  0.12508990671E+03 0.  0.
          5    1    3    3  502    0 -0.39471046590E+02 -0.70097118117E+02 -0.39287617904E+02  0.89624543557E+02  0.41800000000E+01 0. -1.
         -5    1    3    3    0  502  0.13716570508E+02  0.46423466924E+02 -0.36376904858E+02  0.60696245311E+02  0.41800000000E+01 0. -1.
        -11    1    1    2    0    0  0.44148238661E+01 -0.28463526248E+02 -0.14616552193E+02  0.32300256876E+02  0.00000000000E+00 0.  1.
         11    1    1    2    0    0  0.21339652216E+02  0.52137177441E+02  0.37781110503E+02  0.67831248986E+02  0.00000000000E+00 0. -1.
</event>
<event>
 7    1  0.5109948E-006  0.1032268E+03  0.7561462E-02  0.1273653E+00
          1   -1    0    0  501    0  0.00000000000E+00  0.00000000000E+00  0.35939587859E+03  0.35939587859E+03  0.00000000000E+00 0.  1.
         -1   -1    0    0    0  501 -0.00000000000E+00 -0.00000000000E+00 -0.37435350581E+02  0.37435350581E+02  0.00000000000E+00 0. -1.
         23    2    1    2    0    0  0.12906062390E+02 -0.35560474725E+02  0.19784562208E+03  0.23711041105E+03  0.12508934025E+03 0.  0.
          5    1    3    3  502    0 -0.42408466290E+02 -0.55248082525E+02  0.12789116770E+03  0.14568614145E+03  0.41800000000E+01 0. -1.
         -5    1    3    3    0  502  0.55314528680E+02  0.19687607799E+02  0.69954454374E+02  0.91424269593E+02  0.41800000000E+01 0. -1.
        -11    1    1    2    0    0 -0.36196666947E+01 -0.20589554651E+02 -0.23527239541E+01  0.21037277812E+02  0.00000000000E+00 0. -1.
         11    1    1    2    0    0 -0.92863956948E+01  0.56150029377E+02  0.12646762988E+03  0.13868354031E+03  0.00000000000E+00 0.  1.
</event>
<event>
 7    1  0.5109948E-006  0.1263056E+03  0.7561462E-02  0.1233043E+00
          2   -1    0    0  501    0  0.00000000000E+00  0.00000000000E+00  0.20355775854E+03  0.20355775854E+03  0.00000000000E+00 0. -1.
         -2   -1    0    0    0  501 -0.00000000000E+00 -0.00000000000E+00 -0.14197596625E+03  0.14197596625E+03  0.00000000000E+00 0.  1.
         23    2    1    2    0    0  0.18264919731E+02  0.11965702526E+03 -0.19088372695E+02  0.17510962859E+03  0.12509038758E+03 0.  0.
          5    1    3    3  502    0  0.68515188206E+01  0.31347933415E+00  0.40412555650E+02  0.41203017288E+02  0.41800000000E+01 0. -1.
         -5    1    3    3    0  502  0.11413400910E+02  0.11934354593E+03 -0.59500928345E+02  0.13390661130E+03  0.41800000000E+01 0. -1.
        -11    1    1    2    0    0  0.51887355614E+01 -0.64150138428E+02  0.88746126627E+02  0.10962681346E+03  0.00000000000E+00 0. -1.
         11    1    1    2    0    0 -0.23453655293E+02 -0.55506886837E+02 -0.80759616478E+01  0.60797282747E+02  0.00000000000E+00 0.  1.
</event>
<event>
 7    1  0.5109948E-006  0.1473256E+03  0.7561462E-02  0.1203798E+00
         -3   -1    0    0    0  501 -0.00000000000E+00  0.00000000000E+00  0.51045873272E+02  0.51045873272E+02  0.00000000000E+00 0.  1.
          3   -1    0    0  501    0  0.00000000000E+00 -0.00000000000E+00 -0.63910158296E+03  0.63910158296E+03  0.00000000000E+00 0. -1.
         23    2    1    2    0    0 -0.11604942478E+02  0.11144908420E+03 -0.12422494127E+03  0.20468514340E+03  0.11793472278E+03 0.  0.
          5    1    3    3  502    0 -0.77468643444E+01 -0.24742368435E+02 -0.17397260509E+02  0.31501361497E+02  0.41800000000E+01 0. -1.
         -5    1    3    3    0  502 -0.38580781334E+01  0.13619145263E+03 -0.10682768076E+03  0.17318378190E+03  0.41800000000E+01 0.  1.
        -11    1    1    2    0    0  0.16663568732E+01  0.10043593070E+02 -0.63024897822E+01  0.11973799916E+02  0.00000000000E+00 0.  1.
         11    1    1    2    0    0  0.99385856046E+01 -0.12149267727E+03 -0.45752827863E+03  0.47348851292E+03  0.00000000000E+00 0. -1.
</event>
<event>
 7    1  0.5109948E-006  0.8602503E+02  0.7561462E-02  0.1312774E+00
         -2   -1    0    0    0  501 -0.00000000000E+00  0.00000000000E+00  0.18088770586E+03  0.18088770586E+03  0.00000000000E+00 0.  1.
          2   -1    0    0  501    0  0.00000000000E+00 -0.00000000000E+00 -0.10057092037E+03  0.10057092037E+03  0.00000000000E+00 0. -1.
         23    2    1    2    0    0  0.66008570923E+02  0.30036460443E+02  0.81609290805E+02  0.16606377453E+03  0.12513105320E+03 0.  0.
          5    1    3    3  502    0  0.53632016502E+02 -0.11754993866E+02 -0.17446842586E+02  0.57761906055E+02  0.41800000000E+01 0. -1.
         -5    1    3    3    0  502  0.12376554421E+02  0.41791454309E+02  0.99056133390E+02  0.10830186847E+03  0.41800000000E+01 0. -1.
        -11    1    1    2    0    0 -0.37142026738E+02 -0.11446306659E+02 -0.45228936401E+02  0.59633923016E+02  0.00000000000E+00 0. -1.
         11    1    1    2    0    0 -0.28866544186E+02 -0.18590153784E+02  0.43936431083E+02  0.55760928680E+02  0.00000000000E+00 0.  1.
</event>
<event>
 7    1  0.5109948E-006  0.1116602E+03  0.7561462E-02  0.1257526E+00
         -2   -1    0    0    0  501 -0.00000000000E+00  0.00000000000E+00  0.27954819982E+02  0.27954819982E+02  0.00000000000E+00 0.  1.
          2   -1    0    0  501    0  0.00000000000E+00 -0.00000000000E+00 -0.50391708104E+03  0.50391708104E+03  0.00000000000E+00 0. -1.
         23    2    1    2    0    0 -0.12090701956E+02 -0.41284906564E+02 -0.22775831398E+03  0.26339672397E+03  0.12511337268E+03 0.  0.
          5    1    3    3  502    0 -0.31050166916E+02  0.38188645627E+02 -0.10261100526E+03  0.11388141341E+03  0.41800000000E+01 0.  1.
         -5    1    3    3    0  502  0.18959464960E+02 -0.79473552191E+02 -0.12514730872E+03  0.14951531055E+03  0.41800000000E+01 0.  1.
        -11    1    1    2    0    0  0.37464466695E+02 -0.64866523692E+01 -0.48793592228E+02  0.61858528645E+02  0.00000000000E+00 0.  1.
         11    1    1    2    0    0 -0.25373764739E+02  0.47771558934E+02 -0.19941035485E+03  0.20661664841E+03  0.00000000000E+00 0. -1.
</event>
<event>
 6    1  0.5109948E-006  0.1838389E+03  0.7561462E-02  0.1164139E+00
          1   -1    0    0  501    0  0.00000000000E+00  0.00000000000E+00  0.61633774325E+03  0.61633774325E+03  0.00000000000E+00 0. -1.
         -1   -1    0    0    0  501 -0.00000000000E+00 -0.00000000000E+00 -0.58736638943E+02  0.58736638943E+02  0.00000000000E+00 0.  1.
          5    1    1    2  502    0  0.12512204495E+03  0.10046133770E+03  0.24308349662E+03  0.29129892762E+03  0.41800000000E+01 0. -1.
         -5    1    1    2    0  502 -0.40929503007E+02  0.66806800444E+01  0.22668141440E+02  0.47446525042E+02  0.41800000000E+01 0.  1.
        -11    1    1    2    0    0  0.17877736898E+02 -0.53145383611E+00  0.18844639128E+02  0.25981076645E+02  0.00000000000E+00 0. -1.
         11    1    1    2    0    0 -0.10207027884E+03 -0.10661056391E+03  0.27300482712E+03  0.31034785288E+03  0.00000000000E+00 0.  1.
</event>
<event>
 6    1  0.5109948E-006  0.1270018E+03  0.7561462E-02  0.1231974E+00
          1   -1    0    0  501    0  0.00000000000E+00  0.00000000000E+00  0.43173977072E+03  0.43173977072E+03  0.00000000000E+00 0. -1.
         -1   -1    0    0    0  501 -0.00000000000E+00 -0.00000000000E+00 -0.66670008297E+02  0.66670008297E+02  0.00000000000E+00 0.  1.
          5    1    1    2  502    0 -0.25192829311E+02  0.18645568590E+01  0.74470231877E+02  0.78749241626E+02  0.41800000000E+01 0. -1.
         -5    1    1    2    0  502  0.78794880913E+02  0.67075603599E+02  0.82312516384E+00  0.10356601659E+03  0.41800000000E+01 0.  1.
        -11    1    1    2    0    0 -0.40940157509E+02  0.12195506653E+02  0.12280289847E+03  0.13002068586E+03  0.00000000000E+00 0. -1.
         11    1    1    2    0    0 -0.12661894093E+02 -0.81135667111E+02  0.16697350691E+03  0.18607383494E+03  0.00000000000E+00 0.  1.
</event>
<event>
 7    1  0.5109948E-006  0.6471145E+02  0.7561462E-02  0.1379060E+00
          1   -1    0    0  501    0  0.00000000000E+00  0.00000000000E+00  0.75991705339E+02  0.75991705339E+02  0.00000000000E+00 0. -1.
         -1   -1    0    0    0  501 -0.00000000000E+00 -0.00000000000E+00 -0.19143126349E+03  0.19143126349E+03  0.00000000000E+00 0.  1.
         23    2    1    2    0    0  0.29100266490E+01 -0.32486416909E+02 -0.11192617126E+03  0.17099413221E+03  0.12509072667E+03 0.  0.
          5    1    3    3  502    0  0.34120461884E+01 -0.41378766564E+02 -0.13744732656E+03  0.14364220954E+03  0.41800000000E+01 0.  1.
         -5    1    3    3    0  502 -0.50201953944E+00  0.88923496546E+01  0.25521155304E+02  0.27351922675E+02  0.41800000000E+01 0.  1.
        -11    1    1    2    0    0  0.14042544323E+02 -0.19013424992E+02 -0.28249893705E+02  0.36834221525E+02  0.00000000000E+00 0.  1.
         11    1    1    2    0    0 -0.16952570972E+02  0.51499841902E+02  0.24736506814E+02  0.59594615091E+02  0.00000000000E+00 0. -1.
</event>
<event>
 7    1  0.5109948E-006  0.9791233E+02  0.7561462E-02  0.1284748E+00
         -1   -1    0    0    0  501 -0.00000000000E+00  0.00000000000E+00  0.18314648760E+03  0.18314648760E+03  0.00000000000E+00 0.  1.
          1   -1    0    0  501    0  0.00000000000E+00 -0.00000000000E+00 -0.68099751909E+02  0.68099751909E+02  0.00000000000E+00 0. -1.
         23    2    1    2    0    0  0.13312836130E+01 -0.19768387450E+02  0.81595325221E+02  0.15065856703E+03  0.12509054826E+03 0.  0.
          5    1    3    3  502    0 -0.37282708734E+02  0.36345926774E+02  0.12852119913E+02  0.53792900553E+02  0.41800000000E+01 0. -1.
         -5    1    3    3    0  502  0.38613992347E+02 -0.56114314224E+02  0.68743205308E+02  0.96865666476E+02  0.41800000000E+01 0. -1.
        -11    1    1    2    0    0  0.22614282760E+02  0.38697786210E+02 -0.11480839973E+02  0.46268068134E+02  0.00000000000E+00 0. -1.
         11    1    1    2    0    0 -0.23945566373E+02 -0.18929398760E+02  0.44932250440E+02  0.54319604343E+02  0.00000000000E+00 0.  1.
</event>
<event>
 7    1  0.5109948E-006  0.1211124E+03  0.7561462E-02  0.1241273E+00
         -1   -1    0    0    0  501 -0.00000000000E+00  0.00000000000E+00  0.16801996640E+03  0.16801996640E+03  0.00000000000E+00 0.  1.
          1   -1    0    0  501    0  0.00000000000E+00 -0.00000000000E+00 -0.10782468110E+03  0.10782468110E+03  0.00000000000E+00 0. -1.
         23    2    1    2    0    0 -0.58875304862E+02 -0.48350079527E+02  0.34976968365E+02  0.15057928280E+03  0.12508677141E+03 0.  0.
          5    1    3    3  502    0 -0.95588149264E+02 -0.45049112225E+02  0.10811790079E+02  0.10630561602E+03  0.41800000000E+01 0. -1.
         -5    1    3    3    0  502  0.36712844402E+02 -0.33009673020E+01  0.24165178286E+02  0.44273666787E+02  0.41800000000E+01 0. -1.
        -11    1    1    2    0    0  0.60437314716E+02  0.61444209473E+02  0.48215045256E+02  0.98756014889E+02  0.00000000000E+00 0.  1.
         11    1    1    2    0    0 -0.15620098536E+01 -0.13094129945E+02 -0.22996728316E+02  0.26509349804E+02  0.00000000000E+00 0. -1.
</event>
<event>
 7    1  0.6255633E-006  0.2142443E+03  0.7561462E-02  0.1138248E+00
          2   -1    0    0  501    0  0.00000000000E+00  0.00000000000E+00  0.88035778097E+03  0.88035778097E+03  0.00000000000E+00 0. -1.
         -2   -1    0    0    0  501 -0.00000000000E+00 -0.00000000000E+00 -0.63388870279E+02  0.63388870279E+02  0.00000000000E+00 0.  1.
         23    2    1    2    0    0  0.16553412840E+03  0.12774570434E+03  0.42685856904E+03  0.49150374784E+03  0.12508870268E+03 0.  0.
          5    1    3    3  502    0  0.97633272015E+02  0.75035633917E+02  0.11697462909E+03  0.16989154897E+03  0.41800000000E+01 0.  1.
         -5    1    3    3    0  502  0.67900856383E+02  0.52710070423E+02  0.30988393995E+03  0.32161219887E+03  0.41800000000E+01 0.  1.
        -11    1    1    2    0    0 -0.12163898763E+03 -0.53313298453E+02  0.29627960183E+03  0.32468439070E+03  0.00000000000E+00 0. -1.
         11    1    1    2    0    0 -0.43895140765E+02 -0.74432405887E+02  0.93830739830E+02  0.12755851271E+03  0.00000000000E+00 0.  1.
</event>
<event>
 7    1  0.5109948E-006  0.1154919E+03  0.7561462E-02  0.1250725E+00
         -3   -1    0    0    0  501 -0.00000000000E+00  0.00000000000E+00  0.91906512037E+02  0.91906512037E+02  0.00000000000E+00 0.  1.
          3   -1    0    0  501    0  0.00000000000E+00 -0.00000000000E+00 -0.16945389194E+03  0.16945389194E+03  0.00000000000E+00 0. -1.
         23    2    1    2    0    0 -0.59510069004E+02  0.11306889518E+02 -0.48554752725E+02  0.14722900290E+03  0.12509804643E+03 0.  0.
          5    1    3    3  502    0  0.36643756066E+02 -0.16029544942E+01  0.34440488137E+01  0.37076518094E+02  0.41800000000E+01 0.  1.
         -5    1    3    3    0  502 -0.96153825070E+02  0.12909844012E+02 -0.51998801539E+02  0.11015248481E+03  0.41800000000E+01 0.  1.
        -11    1    1    2    0    0  0.73558505002E+01 -0.37768336633E+02  0.14635955388E+02  0.41167547640E+02  0.00000000000E+00 0.  1.
         11    1    1    2    0    0  0.52154218503E+02  0.26461447115E+02 -0.43628582565E+02  0.72963853433E+02  0.00000000000E+00 0. -1.
</event>
<event>
 7    1  0.5109948E-006  0.6811750E+02  0.7561462E-02  0.1366614E+00
         -3   -1    0    0    0  501 -0.00000000000E+00  0.00000000000E+00  0.26288927128E+03  0.26288927128E+03  0.00000000000E+00 0.  1.
          3   -1    0    0  501    0  0.00000000000E+00 -0.00000000000E+00 -0.62034181330E+02  0.62034181330E+02  0.00000000000E+00 0. -1.
         23    2    1    2    0    0 -0.31361439823E+00 -0.11021842755E+02  0.20048430034E+03  0.23656571626E+03  0.12509118296E+03 0.  0.
          5    1    3    3  502    0  0.28402471667E+02 -0.41794610130E+02  0.25911278583E+02  0.56941694659E+02  0.41800000000E+01 0. -1.
         -5    1    3    3    0  502 -0.28716086065E+02  0.30772767375E+02  0.17457302176E+03  0.17962402160E+03  0.41800000000E+01 0. -1.
        -11    1    1    2    0    0 -0.20632414950E+02  0.32241832178E+01 -0.38339835725E+02  0.43658159690E+02  0.00000000000E+00 0. -1.
         11    1    1    2    0    0  0.20946029348E+02  0.77976595374E+01  0.38710625340E+02  0.44699576664E+02  0.00000000000E+00 0.  1.
</event>
<event>
 7    1  0.5109948E-006  0.1577928E+03  0.7561462E-02  0.1191211E+00
         -1   -1    0    0    0  501 -0.00000000000E+00  0.00000000000E+00  0.33417059250E+03  0.33417059250E+03  0.00000000000E+00 0.  1.
          1   -1    0    0  501    0  0.00000000000E+00 -0.00000000000E+00 -0.87094357472E+02  0.87094357472E+02  0.00000000000E+00 0. -1.
         23    2    1    2    0    0 -0.70138766059E+02  0.10271326263E+03  0.10243711006E+03  0.20398273946E+03  0.12508451405E+03 0.  0.
          5    1    3    3  502    0  0.62238261122E+01  0.76176050013E+02  0.95995269917E+02  0.12277658919E+03  0.41800000000E+01 0. -1.
         -5    1    3    3    0  502 -0.76362592171E+02  0.26537212612E+02  0.64418401422E+01  0.81206150264E+02  0.41800000000E+01 0. -1.
        -11    1    1    2    0    0  0.93990411710E+02 -0.68152192054E+02  0.12601864745E+03  0.17134648605E+03  0.00000000000E+00 0.  1.
         11    1    1    2    0    0 -0.23851645651E+02 -0.34561070571E+02  0.18620477513E+02  0.45935724465E+02  0.00000000000E+00 0. -1.
</event>
<event>
 7    1  0.5109948E-006  0.1057675E+03  0.7561462E-02  0.1268615E+00
         -1   -1    0    0    0  501 -0.00000000000E+00  0.00000000000E+00  0.37619571327E+03  0.37619571327E+03  0.00000000000E+00 0.  1.
          1   -1    0    0  501    0  0.00000000000E+00 -0.00000000000E+00 -0.68086340514E+02  0.68086340514E+02  0.00000000000E+00 0. -1.
         23    2    1    2    0    0  0.51118942415E+02  0.83116645941E+02  0.25525590810E+03  0.30054150053E+03  0.12509233315E+03 0.  0.
          5    1    3    3  502    0  0.52604990761E+02  0.73596502406E+02  0.26865999440E+03  0.28351260150E+03  0.41800000000E+01 0. -1.
         -5    1    3    3    0  502 -0.14860483457E+01  0.95201435348E+01 -0.13404086298E+02  0.17028899027E+02  0.41800000000E+01 0. -1.
        -11    1    1    2    0    0  0.10400693335E+02 -0.18698070059E+02  0.50263069718E+02  0.54627542717E+02  0.00000000000E+00 0.  1.
         11    1    1    2    0    0 -0.61519635750E+02 -0.64418575882E+02  0.25903949375E+01  0.89113010540E+02  0.00000000000E+00 0. -1.
</event>
<event>
 7    1  0.5109948E-006  0.1182969E+03  0.7561462E-02  0.1245933E+00
         -1   -1    0    0    0  501 -0.00000000000E+00  0.00000000000E+00  0.34690873190E+02  0.34690873190E+02  0.00000000000E+00 0.  1.
          1   -1    0    0  501    0  0.00000000000E+00 -0.00000000000E+00 -0.46359064584E+03  0.46359064584E+03  0.00000000000E+00 0. -1.
         23    2    1    2    0    0  0.18973699660E+02  0.51572062908E+02 -0.16639665716E+03  0.21530295966E+03  0.12509131853E+03 0.  0.
          5    1    3    3  502    0  0.47072209179E+02  0.78884225026E+02 -0.86643946280E+02  0.12634539826E+03  0.41800000000E+01 0.  1.
         -5    1    3    3    0  502 -0.28098509519E+02 -0.27312162118E+02 -0.79752710882E+02  0.88957561397E+02  0.41800000000E+01 0.  1.
        -11    1    1    2    0    0  0.89074934601E+01  0.23508576251E+02 -0.74483741368E+02  0.78611858681E+02  0.00000000000E+00 0.  1.
         11    1    1    2    0    0 -0.27881193120E+02 -0.75080639159E+02 -0.18801937412E+03  0.20436670069E+03  0.00000000000E+00 0. -1.
</event>
<event>
 7    1  0.5109948E-006  0.1327918E+03  0.7561462E-02  0.1223371E+00
         -1   -1    0    0    0  501 -0.00000000000E+00  0.00000000000E+00  0.36781530810E+02  0.36781530810E+02  0.00000000000E+00 0.  1.
          1   -1    0    0  501    0  0.00000000000E+00 -0.00000000000E+00 -0.77577620556E+03  0.77577620556E+03  0.00000000000E+00 0. -1.
         23    2    1    2    0    0 -0.64030857130E+02 -0.65501433622E+02 -0.17285204095E+03  0.23219948685E+03  0.12509350567E+03 0.  0.
          5    1    3    3  502    0 -0.16508021032E+02 -0.86235936112E+02 -0.15313623038E+03  0.17657103072E+03  0.41800000000E+01 0.  1.
         -5    1    3    3    0  502 -0.47522836098E+02  0.20734502490E+02 -0.19715810571E+02  0.55628456124E+02  0.41800000000E+01 0.  1.
        -11    1    1    2    0    0 -0.12029640237E+02  0.45436924773E+02 -0.16441134819E+03  0.17099800522E+03  0.00000000000E+00 0.  1.
         11    1    1    2    0    0  0.76060497367E+02  0.20064508849E+02 -0.40173128561E+03  0.40936024430E+03  0.00000000000E+00 0. -1.
</event>
<event>
 7    1  0.5109948E-006  0.1431569E+03  0.7561462E-02  0.1209143E+00
          3   -1    0    0  501    0  0.00000000000E+00  0.00000000000E+00  0.92066365958E+02  0.92066365958E+02  0.00000000000E+00 0. -1.
         -3   -1    0    0    0  501 -0.00000000000E+00 -0.00000000000E+00 -0.29544917963E+03  0.29544917963E+03  0.00000000000E+00 0.  1.
         23    2    1    2    0    0  0.12080113736E+03  0.25311173021E+00 -0.14091243060E+03  0.22382306927E+03  0.12508986524E+03 0.  0.
          5    1    3    3  502    0  0.14622754259E+02  0.24064801816E+02  0.16129592778E+02  0.32719654518E+02  0.41800000000E+01 0.  1.
         -5    1    3    3    0  502  0.10617838310E+03 -0.23811690086E+02 -0.15704202338E+03  0.19110341475E+03  0.41800000000E+01 0.  1.
        -11    1    1    2    0    0 -0.12351849393E+03  0.22912493149E+02 -0.62619899046E+02  0.14036756193E+03  0.00000000000E+00 0.  1.
         11    1    1    2    0    0  0.27173565724E+01 -0.23165604879E+02  0.14951597652E+00  0.23324914387E+02  0.00000000000E+00 0. -1.
</event>
<event>
 7    1  0.5109948E-006  0.2176161E+03  0.7561462E-02  0.1135673E+00
         -3   -1    0    0    0  501 -0.00000000000E+00  0.00000000000E+00  0.39748675021E+03  0.39748675021E+03  0.00000000000E+00 0.  1.
          3   -1    0    0  501    0  0.00000000000E+00 -0.00000000000E+00 -0.12691985220E+03  0.12691985220E+03  0.00000000000E+00 0. -1.
         23    2    1    2    0    0 -0.70779977469E+02 -0.18351068984E+03  0.14318235888E+03  0.27355839275E+03  0.12508808039E+03 0.  0.
          5    1    3    3  502    0 -0.36191954709E+02 -0.19238363142E+03  0.13106231628E+03  0.23561859513E+03  0.41800000000E+01 0.  1.
         -5    1    3    3    0  502 -0.34588022760E+02  0.88729415841E+01  0.12120042606E+02  0.37939797622E+02  0.41800000000E+01 0.  1.
        -11    1    1    2    0    0 -0.84524391033E+01  0.13810500760E+02  0.42007818339E+02  0.45020333846E+02  0.00000000000E+00 0.  1.
         11    1    1    2    0    0  0.79232416573E+02  0.16970018908E+03  0.85376720796E+02  0.20582787581E+03  0.00000000000E+00 0. -1.
</event>
<event>
 7    1  0.5109948E-006  0.1882478E+03  0.7561462E-02  0.1160051E+00
         -2   -1    0    0    0  501 -0.00000000000E+00  0.00000000000E+00  0.52398015913E+02  0.52398015913E+02  0.00000000000E+00 0.  1.
          2   -1    0    0  501    0  0.00000000000E+00 -0.00000000000E+00 -0.77570397810E+03  0.77570397810E+03  0.00000000000E+00 0. -1.
         23    2    1    2    0    0  0.12126476063E+03 -0.98885688047E+02 -0.47215103341E+03  0.51286562276E+03  0.12498410775E+03 0.  0.
          5    1    3    3  502    0  0.43999075753E+02  0.26190219588E+02 -0.15450009695E+03  0.16281768524E+03  0.41800000000E+01 0.  1.
         -5    1    3    3    0  502  0.77265684878E+02 -0.12507590763E+03 -0.31765093646E+03  0.35004793752E+03  0.41800000000E+01 0.  1.
        -11    1    1    2    0    0 -0.12095611108E+03  0.52833208684E+02 -0.12846344001E+03  0.18418627573E+03  0.00000000000E+00 0.  1.
         11    1    1    2    0    0 -0.30864954783E+00  0.46052479363E+02 -0.12269148877E+03  0.13105009552E+03  0.00000000000E+00 0. -1.
</event>
<event>
 7    1  0.5109948E-006  0.7628800E+02  0.7561462E-02  0.1339928E+00
          2   -1    0    0  501    0  0.00000000000E+00  0.00000000000E+00  0.18794697223E+02  0.18794697223E+02  0.00000000000E+00 0.  1.
         -2   -1    0    0    0  501 -0.00000000000E+00 -0.00000000000E+00 -0.69935096406E+03  0.69935096406E+03  0.00000000000E+00 0. -1.
         23    2    1    2    0    0 -0.33785459197E+02 -0.14922069809E+02 -0.42958032911E+03  0.44894952692E+03  0.12510912493E+03 0.  0.
          5    1    3    3  502    0 -0.43338095650E+02 -0.20497775387E+01 -0.40444008632E+02  0.59460763170E+02  0.41800000000E+01 0.  1.
         -5    1    3    3    0  502  0.95526364528E+01 -0.12872292270E+02 -0.38913632048E+03  0.38948876375E+03  0.41800000000E+01 0.  1.
        -11    1    1    2    0    0 -0.28467107722E+02  0.91585503917E+01 -0.12542355169E+03  0.12893922051E+03  0.00000000000E+00 0. -1.
         11    1    1    2    0    0  0.62252566920E+02  0.57635194173E+01 -0.12555238603E+03  0.14025691385E+03  0.00000000000E+00 0.  1.
</event>
<event>
 7    1  0.5109948E-006  0.2640733E+03  0.7561462E-02  0.1104720E+00
          2   -1    0    0  501    0  0.00000000000E+00  0.00000000000E+00  0.93563263909E+03  0.93563263909E+03  0.00000000000E+00 0. -1.
         -2   -1    0    0    0  501 -0.00000000000E+00 -0.00000000000E+00 -0.11026387772E+03  0.11026387772E+03  0.00000000000E+00 0.  1.
         23    2    1    2    0    0  0.16636385976E+03  0.18614887805E+03  0.14350976698E+03  0.31395922644E+03  0.12508798510E+03 0.  0.
          5    1    3    3  502    0  0.73967620916E+02  0.19879279389E+02  0.85903642246E+02  0.11516641370E+03  0.41800000000E+01 0.  1.
         -5    1    3    3    0  502  0.92396238842E+02  0.16626959866E+03  0.57606124734E+02  0.19879281274E+03  0.41800000000E+01 0.  1.
        -11    1    1    2    0    0 -0.38730567155E+02 -0.42450094617E+01  0.59738825761E+02  0.71321835652E+02  0.00000000000E+00 0.  1.
         11    1    1    2    0    0 -0.12763329260E+03 -0.18190386859E+03  0.62212016863E+03  0.66061545471E+03  0.00000000000E+00 0. -1.
</event>
<event>
 7    1  0.5109948E-006  0.1155686E+03  0.7561462E-02  0.1250592E+00
         -1   -1    0    0    0  501 -0.00000000000E+00  0.00000000000E+00  0.28911088183E+02  0.28911088183E+02  0.00000000000E+00 0.  1.
          1   -1    0    0  501    0  0.00000000000E+00 -0.00000000000E+00 -0.57181788496E+03  0.57181788496E+03  0.00000000000E+00 0. -1.
         23    2    1    2    0    0  0.72347191839E+02  0.18075642468E+02 -0.25678674250E+03  0.29520804780E+03  0.12509002896E+03 0.  0.
          5    1    3    3  502    0 -0.65050878509E+01  0.46676815837E+02 -0.16104724517E+03  0.16785329571E+03  0.41800000000E+01 0. -1.
         -5    1    3    3    0  502  0.78852279690E+02 -0.28601173369E+02 -0.95739497330E+02  0.12735475209E+03  0.41800000000E+01 0. -1.
        -11    1    1    2    0    0  0.73349731622E+01 -0.18773804065E+02 -0.22915746151E+02  0.30518665961E+02  0.00000000000E+00 0.  1.
         11    1    1    2    0    0 -0.79682165001E+02  0.69816159758E+00 -0.26320430812E+03  0.27500225938E+03  0.00000000000E+00 0. -1.
</event>
<event>
 7    1  0.5109948E-006  0.1954331E+03  0.7561462E-02  0.1153650E+00
          1   -1    0    0  501    0  0.00000000000E+00  0.00000000000E+00  0.99548063812E+03  0.99548063812E+03  0.00000000000E+00 0. -1.
         -1   -1    0    0    0  501 -0.00000000000E+00 -0.00000000000E+00 -0.52017868025E+02  0.52017868025E+02  0.00000000000E+00 0.  1.
         23    2    1    2    0    0 -0.17022697801E+03  0.32020208443E+02  0.26163225132E+03  0.33778874744E+03  0.12508910892E+03 0.  0.
          5    1    3    3  502    0 -0.47029421043E+02 -0.42557576115E+02  0.11979173718E+03  0.13561138014E+03  0.41800000000E+01 0. -1.
         -5    1    3    3    0  502 -0.12319755697E+03  0.74577784558E+02  0.14184051415E+03  0.20217736729E+03  0.41800000000E+01 0. -1.
        -11    1    1    2    0    0  0.74425319543E+02  0.15909870792E+02  0.16240800083E+03  0.17935610085E+03  0.00000000000E+00 0.  1.
         11    1    1    2    0    0  0.95801658470E+02 -0.47930079235E+02  0.51942251794E+03  0.53035365786E+03  0.00000000000E+00 0. -1.
</event>
<event>
 7    1  0.5109948E-006  0.1057684E+03  0.7561462E-02  0.1268613E+00
         -2   -1    0    0    0  501 -0.00000000000E+00  0.00000000000E+00  0.91886480438E+02  0.91886480438E+02  0.00000000000E+00 0.  1.
          2   -1    0    0  501    0  0.00000000000E+00 -0.00000000000E+00 -0.18108466868E+03  0.18108466868E+03  0.00000000000E+00 0. -1.
         23    2    1    2    0    0  0.65511093604E+02 -0.17038971180E+02 -0.27094273574E+02  0.14479764504E+03  0.12510087300E+03 0.  0.
          5    1    3    3  502    0  0.88161719538E+02  0.11096202085E+02 -0.49783307012E+02  0.10193853319E+03  0.41800000000E+01 0.  1.
         -5    1    3    3    0  502 -0.22650625934E+02 -0.28135173265E+02  0.22689033438E+02  0.42859111846E+02  0.41800000000E+01 0.  1.
        -11    1    1    2    0    0 -0.34506128677E+02  0.36008641048E+02 -0.74601955463E+02  0.89737098824E+02  0.00000000000E+00 0. -1.
         11    1    1    2    0    0 -0.31004964927E+02 -0.18969669867E+02  0.12498040796E+02  0.38436405253E+02  0.00000000000E+00 0.  1.
</event>
<event>
 7    1  0.7685587E-006  0.2483698E+03  0.7561462E-02  0.1114339E+00
         -2   -1    0    0    0  501 -0.00000000000E+00  0.00000000000E+00  0.71999635777E+02  0.71999635777E+02  0.00000000000E+00 0.  1.
          2   -1    0    0  501    0  0.00000000000E+00 -0.00000000000E+00 -0.13904269349E+04  0.13904269349E+04  0.00000000000E+00 0. -1.
         23    2    1    2    0    0  0.12503875366E+03 -0.19618772941E+03 -0.24497534396E+03  0.36025647898E+03  0.12508995328E+03 0.  0.
          5    1    3    3  502    0  0.10431698718E+03 -0.21291466683E+03 -0.22213211571E+03  0.32492281913E+03  0.41800000000E+01 0. -1.
         -5    1    3    3    0  502  0.20721766480E+02  0.16726937415E+02 -0.22843228254E+02  0.35333659850E+02  0.41800000000E+01 0. -1.
        -11    1    1    2    0    0 -0.23893438842E+02  0.36548748460E+02 -0.82344784571E+02  0.93206067290E+02  0.00000000000E+00 0.  1.
         11    1    1    2    0    0 -0.10114531481E+03  0.15963898095E+03 -0.99110717060E+03  0.10089640244E+04  0.00000000000E+00 0. -1.
</event>
<event>
 7    1  0.5109948E-006  0.1303041E+03  0.7561462E-02  0.1227005E+00
          1   -1    0    0  501    0  0.00000000000E+00  0.00000000000E+00  0.28650254479E+02  0.28650254479E+02  0.00000000000E+00 0. -1.
         -1   -1    0    0    0  501 -0.00000000000E+00 -0.00000000000E+00 -0.73854733601E+03  0.73854733601E+03  0.00000000000E+00 0.  1.
         23    2    1    2    0    0 -0.42971399161E+02 -0.72720247778E+02 -0.52119569558E+03  0.54261121803E+03  0.12508878950E+03 0.  0.
          5    1    3    3  502    0  0.19845349368E+02  0.25995612223E+02 -0.91883171562E+02  0.97619666885E+02  0.41800000000E+01 0.  1.
         -5    1    3    3    0  502 -0.62816748529E+02 -0.98715860001E+02 -0.42931252402E+03  0.44499155115E+03  0.41800000000E+01 0.  1.
        -11    1    1    2    0    0  0.63104901603E+02  0.53774609766E+02 -0.17518409560E+03  0.19381280817E+03  0.00000000000E+00 0.  1.
         11    1    1    2    0    0 -0.20133502442E+02  0.18945638012E+02 -0.13517290349E+02  0.30773564282E+02  0.00000000000E+00 0. -1.
</event>
<event>
 7    1  0.5109948E-006  0.6015272E+02  0.7561462E-02  0.1397192E+00
          1   -1    0    0  501    0  0.00000000000E+00  0.00000000000E+00  0.20444304397E+02  0.20444304397E+02  0.00000000000E+00 0. -1.
         -1   -1    0    0    0  501 -0.00000000000E+00 -0.00000000000E+00 -0.84208892553E+03  0.84208892553E+03  0.00000000000E+00 0.  1.
         23    2    1    2    0    0 -0.24927985369E+02  0.69966553746E+01 -0.69460899930E+03  0.70625735086E+03  0.12508967225E+03 0.  0.
          5    1    3    3  502    0 -0.94642789072E+01  0.16250240795E+02 -0.10580377350E+02  0.21978618837E+02  0.41800000000E+01 0. -1.
         -5    1    3    3    0  502 -0.15463706462E+02 -0.92535854205E+01 -0.68402862195E+03  0.68427873202E+03  0.41800000000E+01 0. -1.
        -11    1    1    2    0    0  0.47077566493E+02  0.16843566239E+02 -0.10688167593E+03  0.11799871033E+03  0.00000000000E+00 0.  1.
         11    1    1    2    0    0 -0.22149581124E+02 -0.23840221613E+02 -0.20153945907E+02  0.38277168732E+02  0.00000000000E+00 0. -1.
</event>
<event>
 7    1  0.5109948E-006  0.9029005E+02  0.7561462E-02  0.1302151E+00
          2   -1    0    0  501    0  0.00000000000E+00  0.00000000000E+00  0.20998619744E+03  0.20998619744E+03  0.00000000000E+00 0. -1.
         -2   -1    0    0    0  501 -0.00000000000E+00 -0.00000000000E+00 -0.91464498979E+02  0.91464498979E+02  0.00000000000E+00 0.  1.
         23    2    1    2    0    0 -0.48272271378E+02 -0.53245194270E+00 -0.11179737281E+02  0.13454539179E+03  0.12508789004E+03 0.  0.
          5    1    3    3  502    0  0.33399156624E+02  0.16287089787E+02  0.23472478490E+02  0.44149774670E+02  0.41800000000E+01 0.  1.
         -5    1    3    3    0  502 -0.81671428002E+02 -0.16819541730E+02 -0.34652215770E+02  0.90395617115E+02  0.41800000000E+01 0.  1.
        -11    1    1    2    0    0  0.28708465766E+02  0.17651307362E+02 -0.92869577900E+00  0.33713604585E+02  0.00000000000E+00 0.  1.
         11    1    1    2    0    0  0.19563805612E+02 -0.17118855419E+02  0.13063013152E+03  0.13319170005E+03  0.00000000000E+00 0. -1.
</event>
<event>
 7    1  0.5109948E-006  0.1366204E+03  0.7561462E-02  0.1217950E+00
         -2   -1    0    0    0  501 -0.00000000000E+00  0.00000000000E+00  0.43712646708E+02  0.43712646708E+02  0.00000000000E+00 0.  1.
          2   -1    0    0  501    0  0.00000000000E+00 -0.00000000000E+00 -0.49137786163E+03  0.49137786163E+03  0.00000000000E+00 0. -1.
         23    2    1    2    0    0 -0.71161611458E+02 -0.65134801269E+02 -0.26819684632E+03  0.31126173448E+03  0.12509117353E+03 0.  0.
          5    1    3    3  502    0 -0.39879514958E+02  0.29881145651E+02 -0.13959397235E+03  0.14828084197E+03  0.41800000000E+01 0. -1.
         -5    1    3    3    0  502 -0.31282096500E+02 -0.95015946920E+02 -0.12860287397E+03  0.16298089251E+03  0.41800000000E+01 0. -1.
        -11    1    1    2    0    0 -0.11259447026E+02 -0.72728442262E+01 -0.60623313831E+02  0.62087483362E+02  0.00000000000E+00 0. -1.
         11    1    1    2    0    0  0.82421058484E+02  0.72407645495E+02 -0.11884505478E+03  0.16174129050E+03  0.00000000000E+00 0.  1.
</event>
<event>
 7    1  0.5109948E-006  0.1443928E+03  0.7561462E-02  0.1207537E+00
          2   -1    0    0  501    0  0.00000000000E+00  0.00000000000E+00  0.10536691513E+04  0.10536691513E+04  0.00000000000E+00 0. -1.
         -2   -1    0    0    0  501 -0.00000000000E+00 -0.00000000000E+00 -0.24176193975E+02  0.24176193975E+02  0.00000000000E+00 0.  1.
         23    2    1    2    0    0 -0.88305589673E+02  0.76425290331E+02  0.54063384724E+03  0.56706499160E+03  0.12505617038E+03 0.  0.
          5    1    3    3  502    0 -0.10946236355E+03  0.32805996753E+02  0.44877530996E+03  0.46311444988E+03  0.41800000000E+01 0. -1.
         -5    1    3    3    0  502  0.21156773879E+02  0.43619293578E+02  0.91858537272E+02  0.10395054172E+03  0.41800000000E+01 0. -1.
        -11    1    1    2    0    0  0.62780345228E+02 -0.23529596623E+02  0.39055222608E+03  0.39626513215E+03  0.00000000000E+00 0. -1.
         11    1    1    2    0    0  0.25525244445E+02 -0.52895693709E+02  0.98306884008E+02  0.11451522152E+03  0.00000000000E+00 0.  1.
</event>
<event>
 7    1  0.5109948E-006  0.9082864E+02  0.7561462E-02  0.1300857E+00
         -1   -1    0    0    0  501 -0.00000000000E+00  0.00000000000E+00  0.37778355121E+02  0.37778355121E+02  0.00000000000E+00 0.  1.
          1   -1    0    0  501    0  0.00000000000E+00 -0.00000000000E+00 -0.42674088596E+03  0.42674088596E+03  0.00000000000E+00 0. -1.
         23    2    1    2    0    0  0.34740334434E+02  0.51349918249E+02 -0.21525973128E+03  0.25657612578E+03  0.12510336314E+03 0.  0.
          5    1    3    3  502    0  0.56979898982E+02  0.55324531691E+02 -0.21927543860E+03  0.23325244493E+03  0.41800000000E+01 0. -1.
         -5    1    3    3    0  502 -0.22239564548E+02 -0.39746134424E+01  0.40157073125E+01  0.23323680853E+02  0.41800000000E+01 0. -1.
        -11    1    1    2    0    0  0.21433759446E+01 -0.40707269780E+02 -0.16310063270E+03  0.16811749540E+03  0.00000000000E+00 0. -1.
         11    1    1    2    0    0 -0.36883710379E+02 -0.10642648469E+02 -0.10602166853E+02  0.39825619891E+02  0.00000000000E+00 0.  1.
</event>
<event>
 7    1  0.5109948E-006  0.1555482E+03  0.7561462E-02  0.1193817E+00
         -2   -1    0    0    0  501 -0.00000000000E+00  0.00000000000E+00  0.53599779697E+03  0.53599779697E+03  0.00000000000E+00 0.  1.
          2   -1    0    0  501    0  0.00000000000E+00 -0.00000000000E+00 -0.49746323269E+02  0.49746323269E+02  0.00000000000E+00 0. -1.
         23    2    1    2    0    0  0.12444687852E+01  0.11761376192E+03  0.31163449458E+03  0.35580566284E+03  0.12508823206E+03 0.  0.
          5    1    3    3  502    0  0.89137668242E+01 -0.25752324976E+02  0.40800469978E+02  0.49242138774E+02  0.41800000000E+01 0. -1.
         -5    1    3    3    0  502 -0.76692980390E+01  0.14336608689E+03  0.27083402460E+03  0.30656352407E+03  0.41800000000E+01 0. -1.
        -11    1    1    2    0    0 -0.36359872316E+02 -0.82870137663E+02  0.70565097848E+02  0.11475597181E+03  0.00000000000E+00 0. -1.
         11    1    1    2    0    0  0.35115403531E+02 -0.34743624255E+02  0.10405188127E+03  0.11518248560E+03  0.00000000000E+00 0.  1.
</event>
<event>
 7    1  0.5109948E-006  0.9356408E+02  0.7561462E-02  0.1294443E+00
         -1   -1    0    0    0  501 -0.00000000000E+00  0.00000000000E+00  0.21740159280E+02  0.21740159280E+02  0.00000000000E+00 0.  1.
          1   -1    0    0  501    0  0.00000000000E+00 -0.00000000000E+00 -0.57062935311E+03  0.57062935311E+03  0.00000000000E+00 0. -1.
         23    2    1    2    0    0  0.12739504647E+02 -0.28388569785E+02 -0.27230690178E+03  0.30127899059E+03  0.12509906292E+03 0.  0.
          5    1    3    3  502    0  0.56930839158E+01  0.41473692390E+02 -0.38175806173E+02  0.56809708166E+02  0.41800000000E+01 0.  1.
         -5    1    3    3    0  502  0.70464207309E+01 -0.69862262174E+02 -0.23413109561E+03  0.24446928243E+03  0.41800000000E+01 0.  1.
        -11    1    1    2    0    0 -0.21222086802E+02 -0.17834824110E+02 -0.33382914707E+02  0.43392129627E+02  0.00000000000E+00 0.  1.
         11    1    1    2    0    0  0.84825821549E+01  0.46223393894E+02 -0.24319937734E+03  0.24769839217E+03  0.00000000000E+00 0. -1.
</event>
<event>
 7    1  0.5109948E-006  0.1324110E+03  0.7561462E-02  0.1223921E+00
         -2   -1    0    0    0  501 -0.00000000000E+00  0.00000000000E+00  0.32261983183E+03  0.32261983183E+03  0.00000000000E+00 0. -1.
          2   -1    0    0  501    0  0.00000000000E+00 -0.00000000000E+00 -0.88405720244E+02  0.88405720244E+02  0.00000000000E+00 0.  1.
         23    2    1    2    0    0  0.99173101985E+02 -0.25430693879E+02  0.21948646717E+03  0.27258755265E+03  0.12509052818E+03 0.  0.
          5    1    3    3  502    0 -0.26284032801E+02 -0.16498807822E+02  0.73222256357E+02  0.79636877549E+02  0.41800000000E+01 0. -1.
         -5    1    3    3    0  502  0.12545713479E+03 -0.89318860577E+01  0.14626421082E+03  0.19295067510E+03  0.41800000000E+01 0. -1.
        -11    1    1    2    0    0 -0.17711772802E+02 -0.82201423793E+01  0.41883296049E+02  0.46211341946E+02  0.00000000000E+00 0. -1.
         11    1    1    2    0    0 -0.81461329183E+02  0.33650836259E+02 -0.27155651636E+02  0.92226657474E+02  0.00000000000E+00 0.  1.
</event>
<event>
 7    1  0.5109948E-006  0.1285250E+03  0.7561462E-02  0.1229661E+00
         -1   -1    0    0    0  501 -0.00000000000E+00  0.00000000000E+00  0.61457223050E+02  0.61457223050E+02  0.00000000000E+00 0.  1.
          1   -1    0    0  501    0  0.00000000000E+00 -0.00000000000E+00 -0.45062077211E+03  0.45062077211E+03  0.00000000000E+00 0. -1.
         23    2    1    2    0    0 -0.19122567521E+02  0.90010625490E+02 -0.78574389346E+02  0.17403530750E+03  0.12508704292E+03 0.  0.
          5    1    3    3  502    0 -0.70090905678E+02  0.50786367811E+02 -0.24904278154E+02  0.90164769642E+02  0.41800000000E+01 0. -1.
         -5    1    3    3    0  502  0.50968338157E+02  0.39224257679E+02 -0.53670111192E+02  0.83870537856E+02  0.41800000000E+01 0. -1.
        -11    1    1    2    0    0  0.31451621875E+02 -0.26148665944E+02 -0.31917456348E+02  0.51881415449E+02  0.00000000000E+00 0.  1.
         11    1    1    2    0    0 -0.12329054353E+02 -0.63861959546E+02 -0.27867170336E+03  0.28616127221E+03  0.00000000000E+00 0. -1.
</event>
<event>
 7    1  0.5109948E-006  0.1041136E+03  0.7561462E-02  0.1271876E+00
         -1   -1    0    0    0  501 -0.00000000000E+00  0.00000000000E+00  0.37519809664E+03  0.37519809664E+03  0.00000000000E+00 0.  1.
          1   -1    0    0  501    0  0.00000000000E+00 -0.00000000000E+00 -0.43362209036E+02  0.43362209036E+02  0.00000000000E+00 0. -1.
         23    2    1    2    0    0 -0.45218108289E+02 -0.41067417501E+02  0.22160236791E+03  0.26168964951E+03  0.12507059248E+03 0.  0.
          5    1    3    3  502    0 -0.52100050247E+02 -0.62350107969E+02  0.66928861796E+02  0.10535129871E+03  0.41800000000E+01 0. -1.
         -5    1    3    3    0  502  0.68819419581E+01  0.21282690468E+02  0.15467350611E+03  0.15633835080E+03  0.41800000000E+01 0. -1.
        -11    1    1    2    0    0  0.49907024288E+02 -0.11599470927E+02  0.82623376206E+02  0.97220785302E+02  0.00000000000E+00 0.  1.
         11    1    1    2    0    0 -0.46889159988E+01  0.52666888428E+02  0.27610143492E+02  0.59649870860E+02  0.00000000000E+00 0. -1.
</event>
<event>
 7    1  0.5109948E-006  0.1287858E+03  0.7561462E-02  0.1229269E+00
          2   -1    0    0  501    0  0.00000000000E+00  0.00000000000E+00  0.58108557635E+03  0.58108557635E+03  0.00000000000E+00 0. -1.
         -2   -1    0    0    0  501 -0.00000000000E+00 -0.00000000000E+00 -0.39615275108E+02  0.39615275108E+02  0.00000000000E+00 0.  1.
         23    2    1    2    0    0  0.71551968157E+02  0.57249657547E+02  0.15115273540E+03  0.20914277959E+03  0.11178705380E+03 0.  0.
          5    1    3    3  502    0  0.20001678531E+00 -0.23627743259E+02  0.70304638854E+02  0.74286774749E+02  0.41800000000E+01 0. -1.
         -5    1    3    3    0  502  0.71351951372E+02  0.80877400807E+02  0.80848096546E+02  0.13485600484E+03  0.41800000000E+01 0.  1.
        -11    1    1    2    0    0  0.15009317455E+02  0.82179775100E+01  0.23824373650E+02  0.29332840719E+02  0.00000000000E+00 0.  1.
         11    1    1    2    0    0 -0.86561285612E+02 -0.65467635057E+02  0.36649319219E+03  0.38222523115E+03  0.00000000000E+00 0. -1.
</event>
<event>
 7    1  0.5109948E-006  0.9866329E+02  0.7561462E-02  0.1283132E+00
          1   -1    0    0  501    0  0.00000000000E+00  0.00000000000E+00  0.14210651565E+03  0.14210651565E+03  0.00000000000E+00 0. -1.
         -1   -1    0    0    0  501 -0.00000000000E+00 -0.00000000000E+00 -0.83686500324E+02  0.83686500324E+02  0.00000000000E+00 0.  1.
         23    2    1    2    0    0  0.46126547835E+01 -0.20488447791E+01  0.20906740521E+02  0.12693139691E+03  0.12509601662E+03 0.  0.
          5    1    3    3  502    0 -0.12892605846E+02  0.57370895915E+02 -0.60230837456E+01  0.59256973610E+02  0.41800000000E+01 0.  1.
         -5    1    3    3    0  502  0.17505260629E+02 -0.59419740694E+02  0.26929824266E+02  0.67674423299E+02  0.41800000000E+01 0.  1.
        -11    1    1    2    0    0  0.19941597825E+02  0.31911403518E+02  0.45847149200E+02  0.59312444630E+02  0.00000000000E+00 0. -1.
         11    1    1    2    0    0 -0.24554252609E+02 -0.29862558738E+02 -0.83338743996E+01  0.39549174430E+02  0.00000000000E+00 0.  1.
</event>
<event>
 7    1  0.5109948E-006  0.1794443E+03  0.7561462E-02  0.1168342E+00
          2   -1    0    0  501    0  0.00000000000E+00  0.00000000000E+00  0.81040121383E+03  0.81040121383E+03  0.00000000000E+00 0. -1.
         -2   -1    0    0    0  501 -0.00000000000E+00 -0.00000000000E+00 -0.48894879098E+02  0.48894879098E+02  0.00000000000E+00 0.  1.
         23    2    1    2    0    0  0.13370963870E+03  0.68158737335E+02  0.24535127537E+03  0.31363827508E+03  0.12509131989E+03 0.  0.
          5    1    3    3  502    0  0.78538923611E+02  0.10120132773E+03  0.18695871846E+03  0.22667400836E+03  0.41800000000E+01 0.  1.
         -5    1    3    3    0  502  0.55170715090E+02 -0.33042590398E+02  0.58392556909E+02  0.86964266720E+02  0.41800000000E+01 0.  1.
        -11    1    1    2    0    0 -0.13410558331E+02 -0.40739433389E+02  0.64542348937E+02  0.77493608213E+02  0.00000000000E+00 0.  1.
         11    1    1    2    0    0 -0.12029908037E+03 -0.27419303945E+02  0.45161271043E+03  0.46816420964E+03  0.00000000000E+00 0. -1.
</event>
<event>
 7    1  0.6181933E-006  0.2652316E+03  0.7561462E-02  0.1104040E+00
         -2   -1    0    0    0  501 -0.00000000000E+00  0.00000000000E+00  0.36325165649E+03  0.36325165649E+03  0.00000000000E+00 0.  1.
          2   -1    0    0  501    0  0.00000000000E+00 -0.00000000000E+00 -0.27217050562E+03  0.27217050562E+03  0.00000000000E+00 0. -1.
         23    2    1    2    0    0 -0.24389643721E+03  0.30650385727E+02  0.21064176348E+03  0.34704795541E+03  0.12508961831E+03 0.  0.
          5    1    3    3  502    0 -0.21215828990E+03  0.69936783291E+02  0.15585017339E+03  0.27241336710E+03  0.41800000000E+01 0. -1.
         -5    1    3    3    0  502 -0.31738147306E+02 -0.39286397564E+02  0.54791590085E+02  0.74634588308E+02  0.41800000000E+01 0. -1.
        -11    1    1    2    0    0  0.16888317476E+03  0.13320598301E+02 -0.10738417595E+03  0.20057498922E+03  0.00000000000E+00 0.  1.
         11    1    1    2    0    0  0.75013262445E+02 -0.43970984028E+02 -0.12176436664E+02  0.87799217473E+02  0.00000000000E+00 0. -1.
</event>
<event>
 7    1  0.5109948E-006  0.1214016E+03  0.7561462E-02  0.1240803E+00
         -2   -1    0    0    0  501 -0.00000000000E+00  0.00000000000E+00  0.34898308464E+02  0.34898308464E+02  0.00000000000E+00 0.  1.
          2   -1    0    0  501    0  0.00000000000E+00 -0.00000000000E+00 -0.47628861768E+03  0.47628861768E+03  0.00000000000E+00 0. -1.
         23    2    1    2    0    0  0.47464799963E+02 -0.50229352255E+02 -0.28097555825E+03  0.31523747845E+03  0.12510598877E+03 0.  0.
          5    1    3    3  502    0  0.79615628948E+02 -0.82316168964E+01 -0.22140309974E+03  0.23546382495E+03  0.41800000000E+01 0. -1.
         -5    1    3    3    0  502 -0.32150828985E+02 -0.41997735358E+02 -0.59572458511E+02  0.79773653500E+02  0.41800000000E+01 0. -1.
        -11    1    1    2    0    0  0.24538149639E+02  0.19363525082E+02 -0.27338564187E+02  0.41526665928E+02  0.00000000000E+00 0.  1.
         11    1    1    2    0    0 -0.72002949602E+02  0.30865827173E+02 -0.13307618678E+03  0.15442278176E+03  0.00000000000E+00 0. -1.
</event>
<event>
 7    1  0.5109948E-006  0.8635035E+02  0.7561462E-02  0.1311939E+00
          2   -1    0    0  501    0  0.00000000000E+00  0.00000000000E+00  0.11788247901E+03  0.11788247901E+03  0.00000000000E+00 0. -1.
         -2   -1    0    0    0  501 -0.00000000000E+00 -0.00000000000E+00 -0.19401549692E+03  0.19401549692E+03  0.00000000000E+00 0.  1.
         23    2    1    2    0    0 -0.67233576199E+02  0.42639978400E+02 -0.11229981194E+03  0.18600500413E+03  0.12509233499E+03 0.  0.
          5    1    3    3  502    0 -0.26614388445E+02 -0.39108321360E+01 -0.12050480086E+03  0.12354148983E+03  0.41800000000E+01 0. -1.
         -5    1    3    3    0  502 -0.40619187754E+02  0.46550810536E+02  0.82049889153E+01  0.62463514298E+02  0.41800000000E+01 0. -1.
        -11    1    1    2    0    0  0.23947127728E+02 -0.30149902839E+02  0.62721734632E+02  0.73596858376E+02  0.00000000000E+00 0. -1.
         11    1    1    2    0    0  0.43286448471E+02 -0.12490075561E+02 -0.26554940595E+02  0.52296113419E+02  0.00000000000E+00 0.  1.
</event>
<event>
 7    1  0.5109948E-006  0.1238577E+03  0.7561462E-02  0.1236865E+00
          1   -1    0    0  501    0  0.00000000000E+00  0.00000000000E+00  0.77318536386E+03  0.77318536386E+03  0.00000000000E+00 0. -1.
         -1   -1    0    0    0  501 -0.00000000000E+00 -0.00000000000E+00 -0.23052901624E+02  0.23052901624E+02  0.00000000000E+00 0.  1.
         23    2    1    2    0    0  0.59934926727E+02  0.33462901239E+02  0.29729997685E+03  0.32976807434E+03  0.12509094858E+03 0.  0.
          5    1    3    3  502    0  0.95581111770E+02  0.32969194251E+01  0.20450495813E+03  0.22580161405E+03  0.41800000000E+01 0. -1.
         -5    1    3    3    0  502 -0.35646185043E+02  0.30165981814E+02  0.92795018718E+02  0.10396646029E+03  0.41800000000E+01 0. -1.
        -11    1    1    2    0    0 -0.61356182685E+02  0.95247491790E+01  0.34188039288E+03  0.34747302778E+03  0.00000000000E+00 0. -1.
         11    1    1    2    0    0  0.14212559575E+01 -0.42987650418E+02  0.11095209251E+03  0.11899716336E+03  0.00000000000E+00 0.  1.
</event>
<event>
 7    1  0.5109948E-006  0.3632170E+03  0.7561462E-02  0.1057317E+00
         -2   -1    0    0    0  501 -0.00000000000E+00  0.00000000000E+00  0.20626287005E+03  0.20626287005E+03  0.00000000000E+00 0.  1.
          2   -1    0    0  501    0  0.00000000000E+00 -0.00000000000E+00 -0.69712210664E+03  0.69712210664E+03  0.00000000000E+00 0. -1.
         23    2    1    2    0    0 -0.27614257088E+03 -0.22168269151E+03 -0.34291151177E+03  0.50856207131E+03  0.12509652394E+03 0.  0.
          5    1    3    3  502    0 -0.28651027260E+03 -0.21920992387E+03 -0.34193847112E+03  0.49707194395E+03  0.41800000000E+01 0. -1.
         -5    1    3    3    0  502  0.10367701716E+02 -0.24727676474E+01 -0.97304064769E+00  0.11490127363E+02  0.41800000000E+01 0. -1.
        -11    1    1    2    0    0  0.43512850715E+02  0.31177312392E+02  0.11100471923E+02  0.54668212539E+02  0.00000000000E+00 0. -1.
         11    1    1    2    0    0  0.23262972017E+03  0.19050537912E+03 -0.15904819674E+03  0.34015469285E+03  0.00000000000E+00 0.  1.
</event>
<event>
 7    1  0.5109948E-006  0.1132214E+03  0.7561462E-02  0.1254718E+00
         -1   -1    0    0    0  501 -0.00000000000E+00  0.00000000000E+00  0.64576317782E+03  0.64576317782E+03  0.00000000000E+00 0.  1.
          1   -1    0    0  501    0  0.00000000000E+00 -0.00000000000E+00 -0.33100033673E+02  0.33100033673E+02  0.00000000000E+00 0. -1.
         23    2    1    2    0    0  0.95687318488E+02  0.86709805410E+01  0.36968553582E+03  0.40192848797E+03  0.12509142743E+03 0.  0.
          5    1    3    3  502    0  0.60170263872E+02  0.22323003328E+02  0.35523888911E+03  0.36101373639E+03  0.41800000000E+01 0.  1.
         -5    1    3    3    0  502  0.35517054616E+02 -0.13652022788E+02  0.14446646719E+02  0.40914751572E+02  0.41800000000E+01 0.  1.
        -11    1    1    2    0    0 -0.79520396010E+02 -0.39686442581E+02  0.21326351693E+03  0.23104076428E+03  0.00000000000E+00 0.  1.
         11    1    1    2    0    0 -0.16166922478E+02  0.31015462040E+02  0.29714091393E+02  0.45893959246E+02  0.00000000000E+00 0. -1.
</event>
<event>
 7    1  0.5109948E-006  0.2606221E+03  0.7561462E-02  0.1106770E+00
         -1   -1    0    0    0  501 -0.00000000000E+00  0.00000000000E+00  0.89074194121E+03  0.89074194121E+03  0.00000000000E+00 0.  1.
          1   -1    0    0  501    0  0.00000000000E+00 -0.00000000000E+00 -0.84736808050E+02  0.84736808050E+02  0.00000000000E+00 0. -1.
         23    2    1    2    0    0  0.23961829427E+03 -0.46562304787E+02  0.52342194637E+03  0.59092794073E+03  0.12506127304E+03 0.  0.
          5    1    3    3  502    0  0.11190608151E+03 -0.84340168368E+02  0.29131314039E+03  0.32329097303E+03  0.41800000000E+01 0. -1.
         -5    1    3    3    0  502  0.12771221276E+03  0.37777863581E+02  0.23210880598E+03  0.26763696769E+03  0.41800000000E+01 0. -1.
        -11    1    1    2    0    0 -0.11225591664E+03  0.43546695104E+02  0.19764812772E+03  0.23143571001E+03  0.00000000000E+00 0.  1.
         11    1    1    2    0    0 -0.12736237763E+03  0.30156096830E+01  0.84935059070E+02  0.15311509852E+03  0.00000000000E+00 0. -1.
</event>
<event>
 7    1  0.5109948E-006  0.1088624E+03  0.7561462E-02  0.1262691E+00
         -2   -1    0    0    0  501 -0.00000000000E+00  0.00000000000E+00  0.28687651024E+03  0.28687651024E+03  0.00000000000E+00 0.  1.
          2   -1    0    0  501    0  0.00000000000E+00 -0.00000000000E+00 -0.43782505973E+02  0.43782505973E+02  0.00000000000E+00 0. -1.
         23    2    1    2    0    0 -0.27455567888E+02 -0.53682519421E+01  0.16862928334E+03  0.21181804200E+03  0.12509365044E+03 0.  0.
          5    1    3    3  502    0 -0.14353309970E+02  0.58188748311E+02  0.58087414877E+02  0.83567745597E+02  0.41800000000E+01 0.  1.
         -5    1    3    3    0  502 -0.13102257917E+02 -0.63557000253E+02  0.11054186847E+03  0.12825029641E+03  0.41800000000E+01 0.  1.
        -11    1    1    2    0    0  0.30674613770E+02  0.44118740863E+02  0.43158281498E+02  0.68920479447E+02  0.00000000000E+00 0. -1.
         11    1    1    2    0    0 -0.32190458825E+01 -0.38750488920E+02  0.31306439420E+02  0.49920494760E+02  0.00000000000E+00 0.  1.
</event>
<event>
 7    1  0.5109948E-006  0.9756064E+02  0.7561462E-02  0.1285511E+00
          1   -1    0    0  501    0  0.00000000000E+00  0.00000000000E+00  0.13631652058E+03  0.13631652058E+03  0.00000000000E+00 0. -1.
         -1   -1    0    0    0  501 -0.00000000000E+00 -0.00000000000E+00 -0.12206826793E+03  0.12206826793E+03  0.00000000000E+00 0.  1.
         23    2    1    2    0    0 -0.61208231179E+01  0.57120222707E+01 -0.59105115904E+02  0.13860459469E+03  0.12509087604E+03 0.  0.
          5    1    3    3  502    0 -0.49754143971E+02  0.25101923814E+02  0.76701743728E+01  0.56408203272E+02  0.41800000000E+01 0. -1.
         -5    1    3    3    0  502  0.43633320853E+02 -0.19389901543E+02 -0.66775290277E+02  0.82196391417E+02  0.41800000000E+01 0. -1.
        -11    1    1    2    0    0 -0.35179378241E+02 -0.27462417878E+02  0.51778595813E+02  0.68357852757E+02  0.00000000000E+00 0. -1.
         11    1    1    2    0    0  0.41300201359E+02  0.21750395607E+02  0.21574772744E+02  0.51422341062E+02  0.00000000000E+00 0.  1.
</event>
<event>
 7    1  0.5109948E-006  0.1217746E+03  0.7561462E-02  0.1240198E+00
         -2   -1    0    0    0  501 -0.00000000000E+00  0.00000000000E+00  0.47109126471E+02  0.47109126471E+02  0.00000000000E+00 0.  1.
          2   -1    0    0  501    0  0.00000000000E+00 -0.00000000000E+00 -0.62183763447E+03  0.62183763447E+03  0.00000000000E+00 0. -1.
         23    2    1    2    0    0  0.10545586254E+02 -0.10455692955E+03 -0.14807087493E+03  0.22049046741E+03  0.12509077228E+03 0.  0.
          5    1    3    3  502    0 -0.22698709422E+01 -0.57481613820E+02  0.67861309460E+01  0.58075917682E+02  0.41800000000E+01 0.  1.
         -5    1    3    3    0  502  0.12815457196E+02 -0.47075315728E+02 -0.15485700588E+03  0.16241454973E+03  0.41800000000E+01 0.  1.
        -11    1    1    2    0    0  0.34881291944E+02  0.18238799053E+02 -0.97360508694E+02  0.10501631765E+03  0.00000000000E+00 0. -1.
         11    1    1    2    0    0 -0.45426878199E+02  0.86318130495E+02 -0.32929712437E+03  0.34343997589E+03  0.00000000000E+00 0.  1.
</event>
<event>
 7    1  0.5109948E-006  0.7191915E+02  0.7561462E-02  0.1353686E+00
          1   -1    0    0  501    0  0.00000000000E+00  0.00000000000E+00  0.20097005638E+03  0.20097005638E+03  0.00000000000E+00 0. -1.
         -1   -1    0    0    0  501 -0.00000000000E+00 -0.00000000000E+00 -0.56816203294E+02  0.56816203294E+02  0.00000000000E+00 0.  1.
         23    2    1    2    0    0  0.16217352924E+02  0.69224395670E+01  0.58335167459E+02  0.13054533135E+03  0.11544768976E+03 0.  0.
          5    1    3    3  502    0 -0.84776191300E+01  0.45556848203E+02  0.69059126485E+02  0.83270233548E+02  0.41800000000E+01 0. -1.
         -5    1    3    3    0  502  0.24694972054E+02 -0.38634408636E+02 -0.10723959025E+02  0.47275097806E+02  0.41800000000E+01 0.  1.
        -11    1    1    2    0    0  0.11117195293E+02  0.13250224459E+02 -0.13712007501E+02  0.22072146001E+02  0.00000000000E+00 0.  1.
         11    1    1    2    0    0 -0.27334548217E+02 -0.20172664026E+02  0.99530693129E+02  0.10516878232E+03  0.00000000000E+00 0. -1.
</event>
<event>
 7    1  0.5109948E-006  0.9517365E+02  0.7561462E-02  0.1290785E+00
          1   -1    0    0  501    0  0.00000000000E+00  0.00000000000E+00  0.51200857544E+03  0.51200857544E+03  0.00000000000E+00 0. -1.
         -1   -1    0    0    0  501 -0.00000000000E+00 -0.00000000000E+00 -0.28531460112E+02  0.28531460112E+02  0.00000000000E+00 0.  1.
         23    2    1    2    0    0 -0.20821219068E+02 -0.15377487971E+02  0.16731995963E+03  0.21050718333E+03  0.12508922833E+03 0.  0.
          5    1    3    3  502    0 -0.39139034707E+01 -0.59167619954E+02  0.32630417145E+02  0.67811078848E+02  0.41800000000E+01 0.  1.
         -5    1    3    3    0  502 -0.16907315597E+02  0.43790131983E+02  0.13468954249E+03  0.14269610448E+03  0.41800000000E+01 0.  1.
        -11    1    1    2    0    0  0.41840006331E+02 -0.17010910787E+02  0.24448737495E+03  0.24862428225E+03  0.00000000000E+00 0.  1.
         11    1    1    2    0    0 -0.21018787263E+02  0.32388398758E+02  0.71669780750E+02  0.81408569972E+02  0.00000000000E+00 0. -1.
</event>
<event>
 7    1  0.5109948E-006  0.1658650E+03  0.7561462E-02  0.1182230E+00
          1   -1    0    0  501    0  0.00000000000E+00  0.00000000000E+00  0.64212433690E+02  0.64212433690E+02  0.00000000000E+00 0.  1.
         -1   -1    0    0    0  501 -0.00000000000E+00 -0.00000000000E+00 -0.51379276525E+03  0.51379276525E+03  0.00000000000E+00 0. -1.
         23    2    1    2    0    0 -0.57480315928E+02  0.12994138665E+03 -0.28085859457E+03  0.33870055614E+03  0.12509103046E+03 0.  0.
          5    1    3    3  502    0  0.17143151490E+02  0.10978082278E+03 -0.17974756615E+03  0.21135840799E+03  0.41800000000E+01 0.  1.
         -5    1    3    3    0  502 -0.74623467418E+02  0.20160563862E+02 -0.10111102842E+03  0.12734214814E+03  0.41800000000E+01 0.  1.
        -11    1    1    2    0    0  0.77608383685E+01 -0.36147185695E+02 -0.11405714521E+03  0.11989946630E+03  0.00000000000E+00 0. -1.
         11    1    1    2    0    0  0.49719477559E+02 -0.93794200952E+02 -0.54664591782E+02  0.11940517650E+03  0.00000000000E+00 0.  1.
</event>
<event>
 6    1  0.5109948E-006  0.2894021E+03  0.7561462E-02  0.1090662E+00
         -3   -1    0    0    0  501 -0.00000000000E+00  0.00000000000E+00  0.18400548228E+03  0.18400548228E+03  0.00000000000E+00 0.  1.
          3   -1    0    0  501    0  0.00000000000E+00 -0.00000000000E+00 -0.85252026048E+03  0.85252026048E+03  0.00000000000E+00 0. -1.
          5    1    1    2  502    0 -0.10647835224E+02 -0.51179655054E+02  0.32068552492E+02  0.61470301328E+02  0.41800000000E+01 0. -1.
         -5    1    1    2    0  502 -0.12871951196E+03  0.24169227567E+03 -0.51766493461E+02  0.27871331350E+03  0.41800000000E+01 0.  1.
        -11    1    1    2    0    0  0.59773085573E+02 -0.17863790301E+02 -0.14508596849E+03  0.15792996870E+03  0.00000000000E+00 0.  1.
         11    1    1    2    0    0  0.79594261615E+02 -0.17264883031E+03 -0.50373086873E+03  0.53841215923E+03  0.00000000000E+00 0. -1.
</event>
<event>
 7    1  0.5109948E-006  0.1171362E+03  0.7561462E-02  0.1247898E+00
         -2   -1    0    0    0  501 -0.00000000000E+00  0.00000000000E+00  0.88474154412E+02  0.88474154412E+02  0.00000000000E+00 0. -1.
          2   -1    0    0  501    0  0.00000000000E+00 -0.00000000000E+00 -0.24897147087E+03  0.24897147087E+03  0.00000000000E+00 0.  1.
         23    2    1    2    0    0 -0.46486280972E+02  0.52407992033E+02 -0.41287205875E+01  0.14343005146E+03  0.12509021297E+03 0.  0.
          5    1    3    3  502    0 -0.78198581901E+02  0.47363092864E+02 -0.35670763955E+02  0.98225030304E+02  0.41800000000E+01 0. -1.
         -5    1    3    3    0  502  0.31712300928E+02  0.50448991691E+01  0.31542043367E+02  0.45205021155E+02  0.41800000000E+01 0. -1.
        -11    1    1    2    0    0  0.46808236820E+02  0.10080897069E+02 -0.95240920554E+02  0.10659957067E+03  0.00000000000E+00 0.  1.
         11    1    1    2    0    0 -0.32195584793E+00 -0.62488889102E+02 -0.61127675314E+02  0.87416003146E+02  0.00000000000E+00 0. -1.
</event>
<event>
 6    1  0.5109948E-006  0.1663424E+03  0.7561462E-02  0.1181717E+00
         -1   -1    0    0    0  501 -0.00000000000E+00  0.00000000000E+00  0.49643138096E+02  0.49643138096E+02  0.00000000000E+00 0.  1.
          1   -1    0    0  501    0  0.00000000000E+00 -0.00000000000E+00 -0.62434016271E+03  0.62434016271E+03  0.00000000000E+00 0. -1.
          5    1    1    2  502    0  0.54288895302E+02  0.13247682956E+03 -0.14269427561E+03  0.20217943321E+03  0.41800000000E+01 0. -1.
         -5    1    1    2    0  502  0.15861085657E+02 -0.38969163148E+02 -0.98068472834E+02  0.10679451053E+03  0.41800000000E+01 0.  1.
        -11    1    1    2    0    0 -0.10186562401E+02  0.17933612889E+02 -0.40485950348E+02  0.45436688924E+02  0.00000000000E+00 0. -1.
         11    1    1    2    0    0 -0.59963418558E+02 -0.11144127930E+03 -0.29344832582E+03  0.31957266814E+03  0.00000000000E+00 0.  1.
</event>
<event>
 7    1  0.5109948E-006  0.9640021E+02  0.7561462E-02  0.1288053E+00
         -2   -1    0    0    0  501 -0.00000000000E+00  0.00000000000E+00  0.46904050860E+02  0.46904050860E+02  0.00000000000E+00 0. -1.
          2   -1    0    0  501    0  0.00000000000E+00 -0.00000000000E+00 -0.48268053723E+03  0.48268053723E+03  0.00000000000E+00 0.  1.
         23    2    1    2    0    0 -0.58952016697E+01  0.94898850997E+02 -0.15490852447E+03  0.22065115344E+03  0.12509890181E+03 0.  0.
          5    1    3    3  502    0 -0.29582465513E+01  0.36213033728E+02 -0.15749587828E+03  0.16168660770E+03  0.41800000000E+01 0.  1.
         -5    1    3    3    0  502 -0.29369551184E+01  0.58685817269E+02  0.25873538088E+01  0.58964545734E+02  0.41800000000E+01 0.  1.
        -11    1    1    2    0    0  0.12639527575E+02 -0.79636123157E+02 -0.28090322687E+03  0.29224697198E+03  0.00000000000E+00 0.  1.
         11    1    1    2    0    0 -0.67443259054E+01 -0.15262727840E+02  0.35264964285E-01  0.16686462676E+02  0.00000000000E+00 0. -1.
</event>
<event>
 7    1  0.5109948E-006  0.8122277E+02  0.7561462E-02  0.1325617E+00
          2   -1    0    0  501    0  0.00000000000E+00  0.00000000000E+00  0.32112439133E+03  0.32112439133E+03  0.00000000000E+00 0. -1.
         -2   -1    0    0    0  501 -0.00000000000E+00 -0.00000000000E+00 -0.48472886027E+02  0.48472886027E+02  0.00000000000E+00 0.  1.
         23    2    1    2    0    0  0.28588028943E+02 -0.94869561461E+01  0.72419241054E+02  0.14764867433E+03  0.12509319255E+03 0.  0.
          5    1    3    3  502    0  0.50526408082E+02 -0.31092847679E+02 -0.93222029868E+01  0.60200157466E+02  0.41800000000E+01 0.  1.
         -5    1    3    3    0  502 -0.21938379139E+02  0.21605891533E+02  0.81741444041E+02  0.87448516866E+02  0.41800000000E+01 0.  1.
        -11    1    1    2    0    0 -0.19378873404E+01  0.34970684009E+02  0.25386828774E+02  0.43257314093E+02  0.00000000000E+00 0.  1.
         11    1    1    2    0    0 -0.26650141602E+02 -0.25483727863E+02  0.17484543547E+03  0.17869128893E+03  0.00000000000E+00 0. -1.
</event>
<event>
 7    1  0.5109948E-006  0.1141969E+03  0.7561462E-02  0.1252989E+00
          1   -1    0    0  501    0  0.00000000000E+00  0.00000000000E+00  0.21315721099E+03  0.21315721099E+03  0.00000000000E+00 0. -1.
         -1   -1    0    0    0  501 -0.00000000000E+00 -0.00000000000E+00 -0.88161003685E+02  0.88161003685E+02  0.00000000000E+00 0.  1.
         23    2    1    2    0    0  0.73722186573E+02  0.31081358954E+02  0.42612511974E+02  0.15448411796E+03  0.12509398410E+03 0.  0.
          5    1    3    3  502    0 -0.26569702279E+02  0.39196696074E+02  0.17847546900E+02  0.50777331484E+02  0.41800000000E+01 0. -1.
         -5    1    3    3    0  502  0.10029188885E+03 -0.81153371207E+01  0.24764965075E+02  0.10370678648E+03  0.41800000000E+01 0. -1.
        -11    1    1    2    0    0 -0.40581055889E+02 -0.19690932284E+02 -0.11562675455E+02  0.46564475460E+02  0.00000000000E+00 0.  1.
         11    1    1    2    0    0 -0.33141130685E+02 -0.11390426670E+02  0.93946370783E+02  0.10026962125E+03  0.00000000000E+00 0. -1.
</event>
<event>
 7    1  0.5109948E-006  0.1268775E+03  0.7561462E-02  0.1232164E+00
          1   -1    0    0  501    0  0.00000000000E+00  0.00000000000E+00  0.74899540563E+03  0.74899540563E+03  0.00000000000E+00 0. -1.
         -1   -1    0    0    0  501 -0.00000000000E+00 -0.00000000000E+00 -0.32954647565E+02  0.32954647565E+02  0.00000000000E+00 0.  1.
         23    2    1    2    0    0 -0.59702752714E+02 -0.50024844541E+02  0.17955621194E+03  0.23227943672E+03  0.12508556961E+03 0.  0.
          5    1    3    3  502    0 -0.43329869112E+02  0.30431018213E+02  0.28440066780E+02  0.60248105574E+02  0.41800000000E+01 0. -1.
         -5    1    3    3    0  502 -0.16372883602E+02 -0.80455862754E+02  0.15111614515E+03  0.17203133114E+03  0.41800000000E+01 0. -1.
        -11    1    1    2    0    0  0.78679530397E+02  0.17234330224E+02  0.32593331381E+03  0.33573801646E+03  0.00000000000E+00 0.  1.
         11    1    1    2    0    0 -0.18976777683E+02  0.32790514316E+02  0.21055123231E+03  0.21393260001E+03  0.00000000000E+00 0. -1.
</event>
<event>
 7    1  0.5109948E-006  0.1008622E+03  0.7561462E-02  0.1278493E+00
          1   -1    0    0  501    0  0.00000000000E+00  0.00000000000E+00  0.22920009898E+03  0.22920009898E+03  0.00000000000E+00 0. -1.
         -1   -1    0    0    0  501 -0.00000000000E+00 -0.00000000000E+00 -0.84052321037E+02  0.84052321037E+02  0.00000000000E+00 0.  1.
         23    2    1    2    0    0 -0.63131478548E+02  0.20195245799E+02  0.16991784838E+02  0.14258264357E+03  0.12509059901E+03 0.  0.
          5    1    3    3  502    0 -0.52506284127E+02  0.67827977012E+02  0.31538698025E+02  0.91486098460E+02  0.41800000000E+01 0.  1.
         -5    1    3    3    0  502 -0.10625194421E+02 -0.47632731212E+02 -0.14546913187E+02  0.51096545113E+02  0.41800000000E+01 0.  1.
        -11    1    1    2    0    0  0.32790316715E+02 -0.58706013722E+01  0.13269417128E+03  0.13681159279E+03  0.00000000000E+00 0. -1.
         11    1    1    2    0    0  0.30341161834E+02 -0.14324644427E+02 -0.45381781703E+01  0.33858183656E+02  0.00000000000E+00 0.  1.
</event>
<event>
 7    1  0.5109948E-006  0.1163284E+03  0.7561462E-02  0.1249280E+00
         -1   -1    0    0    0  501 -0.00000000000E+00  0.00000000000E+00  0.14894241300E+03  0.14894241300E+03  0.00000000000E+00 0.  1.
          1   -1    0    0  501    0  0.00000000000E+00 -0.00000000000E+00 -0.14131266043E+03  0.14131266043E+03  0.00000000000E+00 0. -1.
         23    2    1    2    0    0  0.60431136648E+02  0.73938171730E+02  0.16517105422E+02  0.15823839947E+03  0.12509116987E+03 0.  0.
          5    1    3    3  502    0  0.31729247399E+02  0.11628151477E+01  0.60456988275E+02  0.68415035708E+02  0.41800000000E+01 0.  1.
         -5    1    3    3    0  502  0.28701889249E+02  0.72775356582E+02 -0.43939882853E+02  0.89823363761E+02  0.41800000000E+01 0.  1.
        -11    1    1    2    0    0 -0.34424148881E+02 -0.86726637163E+02  0.14940910613E+02  0.94497420228E+02  0.00000000000E+00 0. -1.
         11    1    1    2    0    0 -0.26006987767E+02  0.12788465434E+02 -0.23828263463E+02  0.37519253731E+02  0.00000000000E+00 0.  1.
</event>
<event>
 7    1  0.5109948E-006  0.9229018E+02  0.7561462E-02  0.1297399E+00
         -2   -1    0    0    0  501 -0.00000000000E+00  0.00000000000E+00  0.15565722166E+03  0.15565722166E+03  0.00000000000E+00 0.  1.
          2   -1    0    0  501    0  0.00000000000E+00 -0.00000000000E+00 -0.16151978234E+03  0.16151978234E+03  0.00000000000E+00 0. -1.
         23    2    1    2    0    0  0.54368697475E+02  0.58716910015E+02  0.79033750885E+02  0.16821457411E+03  0.12508468482E+03 0.  0.
          5    1    3    3  502    0  0.46210159693E+02  0.43034241626E+02  0.11310385250E+03  0.12960431575E+03  0.41800000000E+01 0.  1.
         -5    1    3    3    0  502  0.81585377816E+01  0.15682668389E+02 -0.34070101614E+02  0.38610258359E+02  0.41800000000E+01 0.  1.
        -11    1    1    2    0    0 -0.20115035376E+02  0.12794753878E+02 -0.62008361313E+02  0.66433103554E+02  0.00000000000E+00 0. -1.
         11    1    1    2    0    0 -0.34253662099E+02 -0.71511663892E+02 -0.22887950249E+02  0.82529326342E+02  0.00000000000E+00 0.  1.
</event>
<event>
 7    1  0.5109948E-006  0.4016483E+03  0.7561462E-02  0.1043210E+00
          1   -1    0    0  501    0  0.00000000000E+00  0.00000000000E+00  0.12531054078E+04  0.12531054078E+04  0.00000000000E+00 0. -1.
         -1   -1    0    0    0  501 -0.00000000000E+00 -0.00000000000E+00 -0.14467209228E+03  0.14467209228E+03  0.00000000000E+00 0.  1.
         23    2    1    2    0    0 -0.78136299974E+02 -0.37376592466E+03  0.37133878958E+03  0.54712504190E+03  0.12508823691E+03 0.  0.
          5    1    3    3  502    0 -0.68992926236E+02 -0.37225328175E+03  0.37796973881E+03  0.53498703302E+03  0.41800000000E+01 0.  1.
         -5    1    3    3    0  502 -0.91433737386E+01 -0.15126429113E+01 -0.66309492264E+01  0.12138008879E+02  0.41800000000E+01 0.  1.
        -11    1    1    2    0    0  0.23298714138E+02  0.35615729910E+03  0.68758434246E+03  0.77470192964E+03  0.00000000000E+00 0. -1.
         11    1    1    2    0    0  0.54837585837E+02  0.17608625565E+02  0.49510183427E+02  0.75950528488E+02  0.00000000000E+00 0.  1.
</event>
<event>
 7    1  0.5109948E-006  0.1644495E+03  0.7561462E-02  0.1183763E+00
         -1   -1    0    0    0  501 -0.00000000000E+00  0.00000000000E+00  0.38821407454E+03  0.38821407454E+03  0.00000000000E+00 0.  1.
          1   -1    0    0  501    0  0.00000000000E+00 -0.00000000000E+00 -0.84214558380E+02  0.84214558380E+02  0.00000000000E+00 0. -1.
         23    2    1    2    0    0 -0.31773643553E+02  0.13951932312E+03  0.19811568214E+03  0.27453849784E+03  0.12508540018E+03 0.  0.
          5    1    3    3  502    0  0.37905273927E+02  0.95683714269E+02  0.13944819163E+03  0.17336508736E+03  0.41800000000E+01 0.  1.
         -5    1    3    3    0  502 -0.69678917480E+02  0.43835608848E+02  0.58667490518E+02  0.10117341048E+03  0.41800000000E+01 0.  1.
        -11    1    1    2    0    0  0.18631186455E+02 -0.58632238033E+02  0.97804891202E+02  0.11554504398E+03  0.00000000000E+00 0.  1.
         11    1    1    2    0    0  0.13142457098E+02 -0.80887085084E+02  0.80789428191E+01  0.82345091105E+02  0.00000000000E+00 0. -1.
</event>
<event>
 6    1  0.5109948E-006  0.1351311E+03  0.7561462E-02  0.1220035E+00
          1   -1    0    0  501    0  0.00000000000E+00  0.00000000000E+00  0.36133327043E+03  0.36133327043E+03  0.00000000000E+00 0. -1.
         -1   -1    0    0    0  501 -0.00000000000E+00 -0.00000000000E+00 -0.12147160539E+03  0.12147160539E+03  0.00000000000E+00 0.  1.
          5    1    1    2  502    0 -0.24453577310E+01 -0.10075665562E+02  0.42975497457E+02  0.44405681986E+02  0.41800000000E+01 0. -1.
         -5    1    1    2    0  502 -0.20975715684E+02  0.87823639990E+02 -0.60476576648E+02  0.10875597047E+03  0.41800000000E+01 0.  1.
        -11    1    1    2    0    0 -0.55478549025E+02 -0.70137649851E+02  0.39412879855E+02  0.97726835756E+02  0.00000000000E+00 0.  1.
         11    1    1    2    0    0  0.78899622439E+02 -0.76103245766E+01  0.21794986438E+03  0.23191638761E+03  0.00000000000E+00 0. -1.
</event>
<event>
 7    1  0.5109948E-006  0.9058289E+02  0.7561462E-02  0.1301446E+00
          1   -1    0    0  501    0  0.00000000000E+00  0.00000000000E+00  0.19315314786E+03  0.19315314786E+03  0.00000000000E+00 0. -1.
         -1   -1    0    0    0  501 -0.00000000000E+00 -0.00000000000E+00 -0.84460541883E+02  0.84460541883E+02  0.00000000000E+00 0.  1.
         23    2    1    2    0    0 -0.49798907688E+02 -0.46674180083E+02  0.57312568135E+02  0.15359111033E+03  0.12508832245E+03 0.  0.
          5    1    3    3  502    0 -0.58342216643E+02 -0.63557618125E+02  0.84082573638E+02  0.12054350523E+03  0.41800000000E+01 0. -1.
         -5    1    3    3    0  502  0.85433089552E+01  0.16883438041E+02 -0.26770005502E+02  0.33047605096E+02  0.41800000000E+01 0. -1.
        -11    1    1    2    0    0  0.32803370444E+02  0.88989617501E+01  0.70602015378E+02  0.78357496184E+02  0.00000000000E+00 0. -1.
         11    1    1    2    0    0  0.16995537244E+02  0.37775218333E+02 -0.19221977534E+02  0.45665083233E+02  0.00000000000E+00 0.  1.
</event>
<event>
 7    1  0.5109948E-006  0.1006352E+03  0.7561462E-02  0.1278966E+00
         -1   -1    0    0    0  501 -0.00000000000E+00  0.00000000000E+00  0.11770169526E+03  0.11770169526E+03  0.00000000000E+00 0.  1.
          1   -1    0    0  501    0  0.00000000000E+00 -0.00000000000E+00 -0.15957449398E+03  0.15957449398E+03  0.00000000000E+00 0. -1.
         23    2    1    2    0    0  0.58253392883E+02  0.53391812637E+02  0.49473421593E+01  0.14804330593E+03  0.12509276877E+03 0.  0.
          5    1    3    3  502    0  0.16919586565E+02  0.47197391058E+02  0.60315829193E+02  0.78545132143E+02  0.41800000000E+01 0.  1.
         -5    1    3    3    0  502  0.41333806317E+02  0.61944215789E+01 -0.55368487033E+02  0.69498173787E+02  0.41800000000E+01 0.  1.
        -11    1    1    2    0    0  0.26457329632E+00  0.17233518011E+02 -0.31969856180E+02  0.36319909777E+02  0.00000000000E+00 0. -1.
         11    1    1    2    0    0 -0.58517966179E+02 -0.70625330648E+02 -0.14850284692E+02  0.92912973530E+02  0.00000000000E+00 0.  1.
</event>
<event>
 7    1  0.5109948E-006  0.1039116E+03  0.7561462E-02  0.1272279E+00
          1   -1    0    0  501    0  0.00000000000E+00  0.00000000000E+00  0.32288147586E+03  0.32288147586E+03  0.00000000000E+00 0. -1.
         -1   -1    0    0    0  501 -0.00000000000E+00 -0.00000000000E+00 -0.68465158683E+02  0.68465158683E+02  0.00000000000E+00 0.  1.
         23    2    1    2    0    0 -0.34544133177E+02 -0.22917476883E+02  0.16025606439E+02  0.13274847120E+03  0.12508728417E+03 0.  0.
          5    1    3    3  502    0 -0.28519383617E+02  0.37811168867E+02 -0.29981300713E+02  0.56208455996E+02  0.41800000000E+01 0. -1.
         -5    1    3    3    0  502 -0.60247495601E+01 -0.60728645751E+02  0.46006907152E+02  0.76540015206E+02  0.41800000000E+01 0. -1.
        -11    1    1    2    0    0  0.31822297368E+02 -0.31409974165E+02  0.88741606143E+02  0.99369601729E+02  0.00000000000E+00 0.  1.
         11    1    1    2    0    0  0.27218358087E+01  0.54327451048E+02  0.14964910460E+03  0.15922856162E+03  0.00000000000E+00 0. -1.
</event>
<event>
 7    1  0.5109948E-006  0.1132556E+03  0.7561462E-02  0.1254657E+00
          2   -1    0    0  501    0  0.00000000000E+00  0.00000000000E+00  0.10061237125E+04  0.10061237125E+04  0.00000000000E+00 0. -1.
         -2   -1    0    0    0  501 -0.00000000000E+00 -0.00000000000E+00 -0.14885293430E+02  0.14885293430E+02  0.00000000000E+00 0.  1.
         23    2    1    2    0    0  0.48560211043E+02 -0.30112328300E+02  0.54923721458E+03  0.56619221483E+03  0.12508900768E+03 0.  0.
          5    1    3    3  502    0  0.87183474524E+02 -0.13809308523E+02  0.27813775969E+03  0.29183855297E+03  0.41800000000E+01 0. -1.
         -5    1    3    3    0  502 -0.38623263481E+02 -0.16303019777E+02  0.27109945489E+03  0.27435366187E+03  0.41800000000E+01 0. -1.
        -11    1    1    2    0    0  0.21267766115E+02  0.54398579788E+01  0.36379944381E+02  0.42490119834E+02  0.00000000000E+00 0.  1.
         11    1    1    2    0    0 -0.69827977158E+02  0.24672470321E+02  0.40562126007E+03  0.41232667123E+03  0.00000000000E+00 0. -1.
</event>
<event>
 7    1  0.5109948E-006  0.1005596E+03  0.7561462E-02  0.1279124E+00
          2   -1    0    0  501    0  0.00000000000E+00  0.00000000000E+00  0.12972336769E+03  0.12972336769E+03  0.00000000000E+00 0. -1.
         -2   -1    0    0    0  501 -0.00000000000E+00 -0.00000000000E+00 -0.92505289113E+02  0.92505289113E+02  0.00000000000E+00 0.  1.
         23    2    1    2    0    0  0.19920176536E+02  0.28311021310E+02  0.21258310369E+02  0.13152042398E+03  0.12508948318E+03 0.  0.
          5    1    3    3  502    0  0.41233962549E+02  0.60359572984E+02  0.45156049059E+02  0.86023594932E+02  0.41800000000E+01 0.  1.
         -5    1    3    3    0  502 -0.21313786013E+02 -0.32048551675E+02 -0.23897738690E+02  0.45496829045E+02  0.41800000000E+01 0.  1.
        -11    1    1    2    0    0 -0.29843561333E+02  0.22524820548E+02  0.44941130839E+01  0.37659032730E+02  0.00000000000E+00 0.  1.
         11    1    1    2    0    0  0.99233847968E+01 -0.50835841857E+02  0.11465655120E+02  0.53049200093E+02  0.00000000000E+00 0. -1.
</event>
<event>
 7    1  0.5109948E-006  0.1943328E+03  0.7561462E-02  0.1154610E+00
         -2   -1    0    0    0  501 -0.00000000000E+00  0.00000000000E+00  0.21837448356E+03  0.21837448356E+03  0.00000000000E+00 0.  1.
          2   -1    0    0  501    0  0.00000000000E+00 -0.00000000000E+00 -0.20393395757E+03  0.20393395757E+03  0.00000000000E+00 0. -1.
         23    2    1    2    0    0  0.14066769609E+03 -0.10576105262E+03  0.41353478530E+02  0.21985815932E+03  0.12511873983E+03 0.  0.
          5    1    3    3  502    0  0.11838733811E+03 -0.15369390601E+02  0.42125274165E+02  0.12666408771E+03  0.41800000000E+01 0.  1.
         -5    1    3    3    0  502  0.22280357985E+02 -0.90391662016E+02 -0.77179563478E+00  0.93194071606E+02  0.41800000000E+01 0.  1.
        -11    1    1    2    0    0 -0.22662043743E+02  0.18546660967E+02  0.32852210271E+02  0.44009255609E+02  0.00000000000E+00 0.  1.
         11    1    1    2    0    0 -0.11800565235E+03  0.87214391650E+02 -0.59765162818E+02  0.15844102620E+03  0.00000000000E+00 0. -1.
</event>
<event>
 7    1  0.5109948E-006  0.1118265E+03  0.7561462E-02  0.1257224E+00
          1   -1    0    0  501    0  0.00000000000E+00  0.00000000000E+00  0.24979553410E+03  0.24979553410E+03  0.00000000000E+00 0. -1.
         -1   -1    0    0    0  501 -0.00000000000E+00 -0.00000000000E+00 -0.55600715461E+02  0.55600715461E+02  0.00000000000E+00 0.  1.
         23    2    1    2    0    0 -0.29718037857E+02  0.24213071438E+02  0.75679670079E+02  0.15113968524E+03  0.12508540039E+03 0.  0.
          5    1    3    3  502    0 -0.67003689787E+02 -0.18208598630E+02  0.61285380519E+02  0.92706082727E+02  0.41800000000E+01 0.  1.
         -5    1    3    3    0  502  0.37285651931E+02  0.42421670069E+02  0.14394289560E+02  0.58433602518E+02  0.41800000000E+01 0.  1.
        -11    1    1    2    0    0  0.22081571940E+02 -0.58397841777E+02  0.63610279367E+02  0.89130081256E+02  0.00000000000E+00 0.  1.
         11    1    1    2    0    0  0.76364659163E+01  0.34184770339E+02  0.54904869195E+02  0.65126483063E+02  0.00000000000E+00 0. -1.
</event>
<event>
 7    1  0.5109948E-006  0.1085731E+03  0.7561462E-02  0.1263235E+00
          3   -1    0    0  501    0  0.00000000000E+00  0.00000000000E+00  0.10064390211E+03  0.10064390211E+03  0.00000000000E+00 0. -1.
         -3   -1    0    0    0  501 -0.00000000000E+00 -0.00000000000E+00 -0.18948586480E+03  0.18948586480E+03  0.00000000000E+00 0.  1.
         23    2    1    2    0    0  0.82013551571E+02 -0.20715475408E+02 -0.96846498734E+02  0.16952253150E+03  0.11046850594E+03 0.  0.
          5    1    3    3  502    0  0.13231770922E+02  0.31406999497E+02 -0.71762556010E+02  0.79553857381E+02  0.41800000000E+01 0. -1.
         -5    1    3    3    0  502  0.68781780650E+02 -0.52122474905E+02 -0.25083942724E+02  0.89968674116E+02  0.41800000000E+01 0.  1.
        -11    1    1    2    0    0 -0.62452831167E+02  0.35547745478E+02  0.38447537439E+02  0.81499763586E+02  0.00000000000E+00 0. -1.
         11    1    1    2    0    0 -0.19560720404E+02 -0.14832270070E+02 -0.30443001398E+02  0.39107471822E+02  0.00000000000E+00 0.  1.
</event>
<event>
 7    1  0.5109948E-006  0.9008852E+02  0.7561462E-02  0.1302637E+00
          1   -1    0    0  501    0  0.00000000000E+00  0.00000000000E+00  0.11250089023E+03  0.11250089023E+03  0.00000000000E+00 0. -1.
         -1   -1    0    0    0  501 -0.00000000000E+00 -0.00000000000E+00 -0.12644709555E+03  0.12644709555E+03  0.00000000000E+00 0.  1.
         23    2    1    2    0    0 -0.21803825942E+02 -0.33026748254E+01 -0.35893009258E+02  0.13199325683E+03  0.12509035634E+03 0.  0.
          5    1    3    3  502    0  0.46606957806E+02 -0.15089016281E+02 -0.38428257180E+02  0.62402646403E+02  0.41800000000E+01 0. -1.
         -5    1    3    3    0  502 -0.68410783748E+02  0.11786341456E+02  0.25352479214E+01  0.69590610429E+02  0.41800000000E+01 0. -1.
        -11    1    1    2    0    0 -0.19721053510E+02 -0.81176340078E+00  0.51941188037E+02  0.55564970315E+02  0.00000000000E+00 0. -1.
         11    1    1    2    0    0  0.41524879452E+02  0.41144382262E+01 -0.29994384100E+02  0.51389758639E+02  0.00000000000E+00 0.  1.
</event>
<event>
 7    1  0.5109948E-006  0.1563369E+03  0.7561462E-02  0.1192896E+00
         -1   -1    0    0    0  501 -0.00000000000E+00  0.00000000000E+00  0.88364726036E+02  0.88364726036E+02  0.00000000000E+00 0.  1.
          1   -1    0    0  501    0  0.00000000000E+00 -0.00000000000E+00 -0.46155981847E+03  0.46155981847E+03  0.00000000000E+00 0. -1.
         23    2    1    2    0    0  0.44082578526E+02 -0.14792247159E+03 -0.97930690077E+02  0.22150175125E+03  0.12509306303E+03 0.  0.
          5    1    3    3  502    0  0.34505540991E+02 -0.56728142917E+02  0.22362469213E+02  0.70187370568E+02  0.41800000000E+01 0.  1.
         -5    1    3    3    0  502  0.95770375351E+01 -0.91194328674E+02 -0.12029315929E+03  0.15131438069E+03  0.41800000000E+01 0.  1.
        -11    1    1    2    0    0 -0.21831494046E+02  0.71941505119E+02 -0.21831130835E+03  0.23089396191E+03  0.00000000000E+00 0. -1.
         11    1    1    2    0    0 -0.22251084480E+02  0.75980966472E+02 -0.56953094004E+02  0.97528831343E+02  0.00000000000E+00 0.  1.
</event>
<event>
 7    1  0.5109948E-006  0.1386886E+03  0.7561462E-02  0.1215104E+00
          2   -1    0    0  501    0  0.00000000000E+00  0.00000000000E+00  0.48730327854E+03  0.48730327854E+03  0.00000000000E+00 0. -1.
         -2   -1    0    0    0  501 -0.00000000000E+00 -0.00000000000E+00 -0.42470518409E+02  0.42470518409E+02  0.00000000000E+00 0.  1.
         23    2    1    2    0    0 -0.55833404699E+02 -0.74690826943E+02  0.22796378319E+03  0.27624451799E+03  0.12508980199E+03 0.  0.
          5    1    3    3  502    0  0.35930665324E+02 -0.96184416077E+00  0.36129701384E+02  0.51134778546E+02  0.41800000000E+01 0. -1.
         -5    1    3    3    0  502 -0.91764070023E+02 -0.73728982782E+02  0.19183408181E+03  0.22510973944E+03  0.41800000000E+01 0. -1.
        -11    1    1    2    0    0 -0.21181202403E+02  0.17514926918E+02  0.18336279482E+02  0.33039902322E+02  0.00000000000E+00 0.  1.
         11    1    1    2    0    0  0.77014607102E+02  0.57175900025E+02  0.19853269746E+03  0.22048937664E+03  0.00000000000E+00 0. -1.
</event>
<event>
 7    1  0.5109948E-006  0.1734412E+03  0.7561462E-02  0.1174306E+00
         -2   -1    0    0    0  501 -0.00000000000E+00  0.00000000000E+00  0.24954724700E+03  0.24954724700E+03  0.00000000000E+00 0. -1.
          2   -1    0    0  501    0  0.00000000000E+00 -0.00000000000E+00 -0.13083089676E+03  0.13083089676E+03  0.00000000000E+00 0.  1.
         23    2    1    2    0    0  0.13342830164E+03  0.94762908018E+01  0.11529189686E+03  0.21641081232E+03  0.12509399043E+03 0.  0.
          5    1    3    3  502    0 -0.50657911964E+01  0.40524798033E+02  0.28818782672E+02  0.50158908788E+02  0.41800000000E+01 0. -1.
         -5    1    3    3    0  502  0.13849409283E+03 -0.31048507231E+02  0.86473114190E+02  0.16625190354E+03  0.41800000000E+01 0. -1.
        -11    1    1    2    0    0 -0.11133877534E+03 -0.46551433324E+02  0.49930134596E+01  0.12078198965E+03  0.00000000000E+00 0. -1.
         11    1    1    2    0    0 -0.22089526294E+02  0.37075142522E+02 -0.15685600759E+01  0.43185341791E+02  0.00000000000E+00 0.  1.
</event>
<event>
 7    1  0.5109948E-006  0.1363142E+03  0.7561462E-02  0.1218376E+00
          1   -1    0    0  501    0  0.00000000000E+00  0.00000000000E+00  0.19838641436E+03  0.19838641436E+03  0.00000000000E+00 0. -1.
         -1   -1    0    0    0  501 -0.00000000000E+00 -0.00000000000E+00 -0.12532522058E+03  0.12532522058E+03  0.00000000000E+00 0.  1.
         23    2    1    2    0    0 -0.74002851243E+02 -0.68839933409E+02 -0.15778649317E+02  0.16159187250E+03  0.12509040355E+03 0.  0.
          5    1    3    3  502    0 -0.51208407951E+02  0.29831853321E+02 -0.78077537936E+01  0.59922232408E+02  0.41800000000E+01 0. -1.
         -5    1    3    3    0  502 -0.22794443291E+02 -0.98671786731E+02 -0.79708955235E+01  0.10166964009E+03  0.41800000000E+01 0. -1.
        -11    1    1    2    0    0  0.16206200471E+02 -0.60173568677E+01  0.61193707423E+02  0.63588673092E+02  0.00000000000E+00 0. -1.
         11    1    1    2    0    0  0.57796650771E+02  0.74857290277E+02  0.27646135675E+02  0.98531089336E+02  0.00000000000E+00 0.  1.
</event>
<event>
 7    1  0.5109948E-006  0.8501918E+02  0.7561462E-02  0.1315382E+00
          3   -1    0    0  501    0  0.00000000000E+00  0.00000000000E+00  0.43535694683E+02  0.43535694683E+02  0.00000000000E+00 0. -1.
         -3   -1    0    0    0  501 -0.00000000000E+00 -0.00000000000E+00 -0.37950137417E+03  0.37950137417E+03  0.00000000000E+00 0.  1.
         23    2    1    2    0    0  0.76215391692E+02  0.22473704207E+02 -0.16654225633E+03  0.22293088235E+03  0.12509197357E+03 0.  0.
          5    1    3    3  502    0  0.41576064862E+02  0.16718470236E+02 -0.17966206931E+03  0.18521341194E+03  0.41800000000E+01 0.  1.
         -5    1    3    3    0  502  0.34639326830E+02  0.57552339706E+01  0.13119812977E+02  0.37717470406E+02  0.41800000000E+01 0.  1.
        -11    1    1    2    0    0 -0.52830179415E+01 -0.17818517114E+02 -0.96481894214E+02  0.98255614302E+02  0.00000000000E+00 0.  1.
         11    1    1    2    0    0 -0.70932373751E+02 -0.46551870929E+01 -0.72941528941E+02  0.10185057220E+03  0.00000000000E+00 0. -1.
</event>
<event>
 7    1  0.5109948E-006  0.1273453E+03  0.7561462E-02  0.1231449E+00
         -1   -1    0    0    0  501 -0.00000000000E+00  0.00000000000E+00  0.16401143442E+03  0.16401143442E+03  0.00000000000E+00 0.  1.
          1   -1    0    0  501    0  0.00000000000E+00 -0.00000000000E+00 -0.14222728738E+03  0.14222728738E+03  0.00000000000E+00 0. -1.
         23    2    1    2    0    0  0.29776530200E+02  0.10240994772E+03  0.26097518807E+02  0.16644033281E+03  0.12508742845E+03 0.  0.
          5    1    3    3  502    0 -0.31370504467E+02  0.69131385370E+02 -0.24941637987E+02  0.80017589936E+02  0.41800000000E+01 0. -1.
         -5    1    3    3    0  502  0.61147034667E+02  0.33278562347E+02  0.51039156794E+02  0.86422742878E+02  0.41800000000E+01 0. -1.
        -11    1    1    2    0    0 -0.12978905319E+02 -0.14682499775E+02  0.36628361757E+02  0.41541120205E+02  0.00000000000E+00 0.  1.
         11    1    1    2    0    0 -0.16797624881E+02 -0.87727447943E+02 -0.40941733522E+02  0.98257268779E+02  0.00000000000E+00 0. -1.
</event>
<event>
 6    1  0.5109948E-006  0.1324893E+03  0.7561462E-02  0.1223808E+00
          1   -1    0    0  501    0  0.00000000000E+00  0.00000000000E+00  0.10533794512E+04  0.10533794512E+04  0.00000000000E+00 0. -1.
         -1   -1    0    0    0  501 -0.00000000000E+00 -0.00000000000E+00 -0.17803419803E+02  0.17803419803E+02  0.00000000000E+00 0.  1.
          5    1    1    2  502    0 -0.36498263955E+02 -0.37107538988E+02  0.30705070652E+03  0.31145898846E+03  0.41800000000E+01 0. -1.
         -5    1    1    2    0  502  0.45592932120E+02  0.96058075095E+02  0.37103742220E+03  0.38599496153E+03  0.41800000000E+01 0.  1.
        -11    1    1    2    0    0  0.33825918765E+02 -0.53205115365E+02  0.25043983984E+03  0.25825392632E+03  0.00000000000E+00 0.  1.
         11    1    1    2    0    0 -0.42920586930E+02 -0.57454207428E+01  0.10704806285E+03  0.11547499471E+03  0.00000000000E+00 0. -1.
</event>
<event>
 7    1  0.5109948E-006  0.1711219E+03  0.7561462E-02  0.1176683E+00
         -4   -1    0    0    0  501 -0.00000000000E+00  0.00000000000E+00  0.96388421261E+02  0.96388421261E+02  0.00000000000E+00 0. -1.
          4   -1    0    0  501    0  0.00000000000E+00 -0.00000000000E+00 -0.40542764681E+03  0.40542764681E+03  0.00000000000E+00 0.  1.
         23    2    1    2    0    0 -0.45442404890E+02  0.13189419766E+03 -0.50130633519E+02  0.19396580740E+03  0.12509421443E+03 0.  0.
          5    1    3    3  502    0 -0.76230556298E+02  0.12047743045E+03 -0.11500250999E+02  0.14309310652E+03  0.41800000000E+01 0. -1.
         -5    1    3    3    0  502  0.30788151408E+02  0.11416767214E+02 -0.38630382520E+02  0.50872700876E+02  0.41800000000E+01 0. -1.
        -11    1    1    2    0    0  0.92894399929E+00 -0.12057932126E+03 -0.19031949401E+03  0.22530367386E+03  0.00000000000E+00 0.  1.
         11    1    1    2    0    0  0.44513460891E+02 -0.11314876406E+02 -0.68589098013E+02  0.82546586815E+02  0.00000000000E+00 0. -1.
</event>
<event>
 7    1  0.5109948E-006  0.1234186E+03  0.7561462E-02  0.1237562E+00
         -1   -1    0    0    0  501 -0.00000000000E+00  0.00000000000E+00  0.60069550131E+03  0.60069550131E+03  0.00000000000E+00 0.  1.
          1   -1    0    0  501    0  0.00000000000E+00 -0.00000000000E+00 -0.29675194830E+02  0.29675194830E+02  0.00000000000E+00 0. -1.
         23    2    1    2    0    0  0.63035025865E+02  0.11017580543E+02  0.42234076638E+03  0.44510035433E+03  0.12509117037E+03 0.  0.
          5    1    3    3  502    0  0.91546512848E+01 -0.54484510252E+02  0.15574090934E+03  0.16530297257E+03  0.41800000000E+01 0. -1.
         -5    1    3    3    0  502  0.53880374580E+02  0.65502090795E+02  0.26659985705E+03  0.27979738176E+03  0.41800000000E+01 0. -1.
        -11    1    1    2    0    0 -0.77694239589E+02 -0.29338595911E+02  0.92077445437E+02  0.12399759689E+03  0.00000000000E+00 0. -1.
         11    1    1    2    0    0  0.14659213724E+02  0.18321015368E+02  0.56602094662E+02  0.61272744930E+02  0.00000000000E+00 0.  1.
</event>
<event>
 7    1  0.5109948E-006  0.1498442E+03  0.7561462E-02  0.1200665E+00
          1   -1    0    0  501    0  0.00000000000E+00  0.00000000000E+00  0.52605126333E+03  0.52605126333E+03  0.00000000000E+00 0. -1.
         -1   -1    0    0    0  501 -0.00000000000E+00 -0.00000000000E+00 -0.52406320290E+02  0.52406320290E+02  0.00000000000E+00 0.  1.
         23    2    1    2    0    0 -0.30332604516E+02 -0.10385646059E+03  0.12653125577E+03  0.20339360164E+03  0.11684420054E+03 0.  0.
          5    1    3    3  502    0 -0.36195612578E+02  0.15526540232E+02  0.33416209828E+02  0.51819989394E+02  0.41800000000E+01 0. -1.
         -5    1    3    3    0  502  0.58630080626E+01 -0.11938300082E+03  0.93115045939E+02  0.15157361225E+03  0.41800000000E+01 0.  1.
        -11    1    1    2    0    0  0.58654988039E+02  0.93401177591E+02  0.24718725540E+03  0.27067642459E+03  0.00000000000E+00 0. -1.
         11    1    1    2    0    0 -0.28322383523E+02  0.10455283001E+02  0.99926431880E+02  0.10438755740E+03  0.00000000000E+00 0.  1.
</event>
<event>
 7    1  0.5109948E-006  0.1051651E+03  0.7561462E-02  0.1269795E+00
          2   -1    0    0  501    0  0.00000000000E+00  0.00000000000E+00  0.30730693880E+03  0.30730693880E+03  0.00000000000E+00 0. -1.
         -2   -1    0    0    0  501 -0.00000000000E+00 -0.00000000000E+00 -0.42973152613E+02  0.42973152613E+02  0.00000000000E+00 0.  1.
         23    2    1    2    0    0 -0.90897826752E+01 -0.68203567137E+01  0.98670831999E+02  0.15972895314E+03  0.12509302126E+03 0.  0.
          5    1    3    3  502    0  0.68936593610E+01  0.57949813614E+02  0.40980347193E+02  0.71432238474E+02  0.41800000000E+01 0. -1.
         -5    1    3    3    0  502 -0.15983442036E+02 -0.64770170328E+02  0.57690484806E+02  0.88296714666E+02  0.41800000000E+01 0. -1.
        -11    1    1    2    0    0  0.45829889327E+02  0.13189801329E+02  0.50310749037E+02  0.69321865840E+02  0.00000000000E+00 0.  1.
         11    1    1    2    0    0 -0.36740106652E+02 -0.63694446154E+01  0.11535220515E+03  0.12122927243E+03  0.00000000000E+00 0. -1.
</event>
<event>
 7    1  0.5109948E-006  0.1127232E+03  0.7561462E-02  0.1255608E+00
         -2   -1    0    0    0  501 -0.00000000000E+00  0.00000000000E+00  0.22628780538E+03  0.22628780538E+03  0.00000000000E+00 0.  1.
          2   -1    0    0  501    0  0.00000000000E+00 -0.00000000000E+00 -0.58369292436E+02  0.58369292436E+02  0.00000000000E+00 0. -1.
         23    2    1    2    0    0  0.34270963642E+02 -0.13165078883E+02  0.99133970920E+02  0.16377489413E+03  0.12508738348E+03 0.  0.
          5    1    3    3  502    0  0.55947003720E+02  0.41074793552E+02  0.68832322462E+02  0.97839495635E+02  0.41800000000E+01 0. -1.
         -5    1    3    3    0  502 -0.21676040079E+02 -0.54239872434E+02  0.30301648458E+02  0.65935398493E+02  0.41800000000E+01 0. -1.
        -11    1    1    2    0    0 -0.97795168844E+00 -0.37073016630E+02  0.38411096007E+02  0.53392670359E+02  0.00000000000E+00 0.  1.
         11    1    1    2    0    0 -0.33293011953E+02  0.50238095513E+02  0.30373446013E+02  0.67489533325E+02  0.00000000000E+00 0. -1.
</event>
<event>
 7    1  0.5109948E-006  0.5224497E+02  0.7561462E-02  0.1433596E+00
          1   -1    0    0  501    0  0.00000000000E+00  0.00000000000E+00  0.25346120095E+03  0.25346120095E+03  0.00000000000E+00 0. -1.
         -1   -1    0    0    0  501 -0.00000000000E+00 -0.00000000000E+00 -0.51732172242E+02  0.51732172242E+02  0.00000000000E+00 0.  1.
         23    2    1    2    0    0  0.39754095997E+02  0.71516144455E+01  0.68780613558E+02  0.14835553158E+03  0.12508819773E+03 0.  0.
          5    1    3    3  502    0  0.12286023516E+02 -0.26362738372E+01 -0.36606806285E+02  0.38928485457E+02  0.41800000000E+01 0. -1.
         -5    1    3    3    0  502  0.27468072481E+02  0.97878882828E+01  0.10538741984E+03  0.10942704613E+03  0.41800000000E+01 0. -1.
        -11    1    1    2    0    0  0.88921380090E+01 -0.95949135504E+01 -0.21227460312E+01  0.13252868939E+02  0.00000000000E+00 0.  1.
         11    1    1    2    0    0 -0.48646234006E+02  0.24432991048E+01  0.13507116118E+03  0.14358497267E+03  0.00000000000E+00 0. -1.
</event>
<event>
 7    1  0.5109948E-006  0.3423409E+03  0.7561462E-02  0.1065803E+00
         -2   -1    0    0    0  501 -0.00000000000E+00  0.00000000000E+00  0.69654207241E+02  0.69654207241E+02  0.00000000000E+00 0.  1.
          2   -1    0    0  501    0  0.00000000000E+00 -0.00000000000E+00 -0.17332201120E+04  0.17332201120E+04  0.00000000000E+00 0. -1.
         23    2    1    2    0    0  0.12424728992E+03 -0.30385924710E+03 -0.79625193549E+03  0.87030555948E+03  0.12508713360E+03 0.  0.
          5    1    3    3  502    0  0.13907423173E+03 -0.29177769532E+03 -0.68621905679E+03  0.75854461419E+03  0.41800000000E+01 0.  1.
         -5    1    3    3    0  502 -0.14826941811E+02 -0.12081551778E+02 -0.11003287870E+03  0.11176094529E+03  0.41800000000E+01 0.  1.
        -11    1    1    2    0    0 -0.13485712597E+03  0.22529315703E+03 -0.63709398171E+03  0.68908068654E+03  0.00000000000E+00 0.  1.
         11    1    1    2    0    0  0.10609836047E+02  0.78566090074E+02 -0.23021998755E+03  0.24348807321E+03  0.00000000000E+00 0. -1.
</event>
<event>
 7    1  0.5109948E-006  0.9560641E+02  0.7561462E-02  0.1289816E+00
          1   -1    0    0  501    0  0.00000000000E+00  0.00000000000E+00  0.31631103321E+02  0.31631103321E+02  0.00000000000E+00 0. -1.
         -1   -1    0    0    0  501 -0.00000000000E+00 -0.00000000000E+00 -0.45248582900E+03  0.45248582900E+03  0.00000000000E+00 0.  1.
         23    2    1    2    0    0  0.37135904374E+01 -0.11749575449E+02 -0.33425957090E+03  0.35711049398E+03  0.12508637375E+03 0.  0.
          5    1    3    3  502    0  0.44098512899E+02  0.30769344954E+02 -0.82410042115E+02  0.98490196823E+02  0.41800000000E+01 0. -1.
         -5    1    3    3    0  502 -0.40384922461E+02 -0.42518920403E+02 -0.25184952878E+03  0.25862029716E+03  0.41800000000E+01 0. -1.
        -11    1    1    2    0    0  0.24291822403E+02 -0.23276046589E+02 -0.72619209500E+02  0.80033846396E+02  0.00000000000E+00 0.  1.
         11    1    1    2    0    0 -0.28005412841E+02  0.35025622038E+02 -0.13975945283E+02  0.46972591946E+02  0.00000000000E+00 0. -1.
</event>
<event>
 7    1  0.5109948E-006  0.1136819E+03  0.7561462E-02  0.1253900E+00
          4   -1    0    0  501    0  0.00000000000E+00  0.00000000000E+00  0.77192315479E+02  0.77192315479E+02  0.00000000000E+00 0. -1.
         -4   -1    0    0    0  501 -0.00000000000E+00 -0.00000000000E+00 -0.21229258481E+03  0.21229258481E+03  0.00000000000E+00 0.  1.
         23    2    1    2    0    0 -0.15292543242E+02 -0.55702895610E+02 -0.11676286754E+03  0.18060363764E+03  0.12508969677E+03 0.  0.
          5    1    3    3  502    0 -0.62775118567E+02 -0.73075677853E+01 -0.29097913797E+02  0.69701341776E+02  0.41800000000E+01 0.  1.
         -5    1    3    3    0  502  0.47482575325E+02 -0.48395327825E+02 -0.87664953738E+02  0.11090229587E+03  0.41800000000E+01 0.  1.
        -11    1    1    2    0    0  0.37208015113E+02  0.62858027388E+02 -0.34443570473E+02  0.80758451834E+02  0.00000000000E+00 0.  1.
         11    1    1    2    0    0 -0.21915471870E+02 -0.71551317778E+01  0.16106168682E+02  0.28122810806E+02  0.00000000000E+00 0. -1.
</event>
<event>
 7    1  0.5109948E-006  0.1151706E+03  0.7561462E-02  0.1251284E+00
          2   -1    0    0  501    0  0.00000000000E+00  0.00000000000E+00  0.72559164317E+02  0.72559164317E+02  0.00000000000E+00 0.  1.
         -2   -1    0    0    0  501 -0.00000000000E+00 -0.00000000000E+00 -0.30851191792E+03  0.30851191792E+03  0.00000000000E+00 0. -1.
         23    2    1    2    0    0  0.92068491157E+02 -0.42421423416E+02 -0.14219455851E+03  0.21480411496E+03  0.12508129798E+03 0.  0.
          5    1    3    3  502    0  0.56866803204E+01 -0.59198269499E+01 -0.11733725721E+03  0.11769828807E+03  0.41800000000E+01 0. -1.
         -5    1    3    3    0  502  0.86381810837E+02 -0.36501596466E+02 -0.24857301295E+02  0.97105826888E+02  0.41800000000E+01 0. -1.
        -11    1    1    2    0    0 -0.55238975752E+02  0.64025112997E+02 -0.89860110670E+02  0.12339124372E+03  0.00000000000E+00 0.  1.
         11    1    1    2    0    0 -0.36829515405E+02 -0.21603689581E+02 -0.38980844198E+01  0.42875723558E+02  0.00000000000E+00 0. -1.
</event>
<event>
 7    1  0.5109948E-006  0.1414344E+03  0.7561462E-02  0.1211412E+00
         -2   -1    0    0    0  501 -0.00000000000E+00  0.00000000000E+00  0.40465017316E+02  0.40465017316E+02  0.00000000000E+00 0.  1.
          2   -1    0    0  501    0  0.00000000000E+00 -0.00000000000E+00 -0.51075208245E+03  0.51075208245E+03  0.00000000000E+00 0. -1.
         23    2    1    2    0    0 -0.45709857400E+02  0.78585110505E+02 -0.22958534870E+03  0.27680924758E+03  0.12509562962E+03 0.  0.
          5    1    3    3  502    0 -0.43135300273E+02 -0.23347377851E+02 -0.10341933204E+03  0.11453726390E+03  0.41800000000E+01 0.  1.
         -5    1    3    3    0  502 -0.25745571266E+01  0.10193248836E+03 -0.12616601666E+03  0.16227198368E+03  0.41800000000E+01 0.  1.
        -11    1    1    2    0    0  0.74846225225E+02 -0.45873374720E+02 -0.16711886418E+03  0.18877245219E+03  0.00000000000E+00 0. -1.
         11    1    1    2    0    0 -0.29136367825E+02 -0.32711735784E+02 -0.73582852246E+02  0.85635399998E+02  0.00000000000E+00 0.  1.
</event>
<event>
 7    1  0.5109948E-006  0.1081829E+03  0.7561462E-02  0.1263972E+00
         -1   -1    0    0    0  501 -0.00000000000E+00  0.00000000000E+00  0.11707198903E+03  0.11707198903E+03  0.00000000000E+00 0.  1.
          1   -1    0    0  501    0  0.00000000000E+00 -0.00000000000E+00 -0.13680841672E+03  0.13680841672E+03  0.00000000000E+00 0. -1.
         23    2    1    2    0    0  0.55679545937E+02 -0.10924600728E+02 -0.47344119778E+02  0.14528743207E+03  0.12508962188E+03 0.  0.
          5    1    3    3  502    0  0.85776264547E+02 -0.40503750806E+02 -0.32435701086E+02  0.10033777202E+03  0.41800000000E+01 0. -1.
         -5    1    3    3    0  502 -0.30096718609E+02  0.29579150078E+02 -0.14908418692E+02  0.44949660046E+02  0.41800000000E+01 0. -1.
        -11    1    1    2    0    0 -0.38396997762E+02 -0.20217008838E+02  0.50246526423E+02  0.66391040819E+02  0.00000000000E+00 0.  1.
         11    1    1    2    0    0 -0.17282548175E+02  0.31141609566E+02 -0.22638834332E+02  0.42201932867E+02  0.00000000000E+00 0. -1.
</event>
<event>
 7    1  0.5109948E-006  0.9907680E+02  0.7561462E-02  0.1282249E+00
         -1   -1    0    0    0  501 -0.00000000000E+00  0.00000000000E+00  0.66350323516E+02  0.66350323516E+02  0.00000000000E+00 0.  1.
          1   -1    0    0  501    0  0.00000000000E+00 -0.00000000000E+00 -0.26646291109E+03  0.26646291109E+03  0.00000000000E+00 0. -1.
         23    2    1    2    0    0  0.29225659842E+02  0.71944970190E+02 -0.10683430057E+03  0.18190964225E+03  0.12508929705E+03 0.  0.
          5    1    3    3  502    0  0.42493296485E+02  0.14537658666E+02 -0.11381790829E+03  0.12242962228E+03  0.41800000000E+01 0. -1.
         -5    1    3    3    0  502 -0.13267636643E+02  0.57407311524E+02  0.69836077162E+01  0.59480019967E+02  0.41800000000E+01 0. -1.
        -11    1    1    2    0    0 -0.21749712318E+02 -0.10327145627E+00  0.10747505674E+02  0.24260451957E+02  0.00000000000E+00 0.  1.
         11    1    1    2    0    0 -0.74759475232E+01 -0.71841698733E+02 -0.10402579268E+03  0.12664314040E+03  0.00000000000E+00 0. -1.
</event>
<event>
 7    1  0.5109948E-006  0.1054605E+03  0.7561462E-02  0.1269215E+00
         -2   -1    0    0    0  501 -0.00000000000E+00  0.00000000000E+00  0.39358097766E+02  0.39358097766E+02  0.00000000000E+00 0. -1.
          2   -1    0    0  501    0  0.00000000000E+00 -0.00000000000E+00 -0.35383191407E+03  0.35383191407E+03  0.00000000000E+00 0.  1.
         23    2    1    2    0    0 -0.42178715081E+02 -0.78881174639E+01 -0.16451012197E+03  0.21107440915E+03  0.12509020572E+03 0.  0.
          5    1    3    3  502    0  0.15597163129E+02 -0.52989848992E+02 -0.95014250483E+02  0.10998352508E+03  0.41800000000E+01 0.  1.
         -5    1    3    3    0  502 -0.57775878210E+02  0.45101731528E+02 -0.69495871482E+02  0.10109088407E+03  0.41800000000E+01 0.  1.
        -11    1    1    2    0    0  0.14642068839E+02  0.38348477333E+02 -0.13025226534E+03  0.13656737722E+03  0.00000000000E+00 0.  1.
         11    1    1    2    0    0  0.27536646242E+02 -0.30460359870E+02 -0.19711428993E+02  0.45548225460E+02  0.00000000000E+00 0. -1.
</event>
<event>
 7    1  0.5109948E-006  0.9930533E+02  0.7561462E-02  0.1281764E+00
         -1   -1    0    0    0  501 -0.00000000000E+00  0.00000000000E+00  0.88819412732E+02  0.88819412732E+02  0.00000000000E+00 0.  1.
          1   -1    0    0  501    0  0.00000000000E+00 -0.00000000000E+00 -0.30719803392E+03  0.30719803392E+03  0.00000000000E+00 0. -1.
         23    2    1    2    0    0 -0.66633956884E+02 -0.34958539573E+02  0.11278651022E+01  0.14598255091E+03  0.12508976534E+03 0.  0.
          5    1    3    3  502    0 -0.41984266490E+02 -0.66374734278E+02  0.41599704412E+02  0.88973545452E+02  0.41800000000E+01 0.  1.
         -5    1    3    3    0  502 -0.24649690394E+02  0.31416194706E+02 -0.40471839310E+02  0.57009005459E+02  0.41800000000E+01 0.  1.
        -11    1    1    2    0    0  0.26890745448E+02  0.29126669778E+02 -0.16243276556E+02  0.42840624603E+02  0.00000000000E+00 0.  1.
         11    1    1    2    0    0  0.39743211435E+02  0.58318697947E+01 -0.20326320973E+03  0.20719427114E+03  0.00000000000E+00 0. -1.
</event>
<event>
 7    1  0.5109948E-006  0.1046001E+03  0.7561462E-02  0.1270909E+00
          2   -1    0    0  501    0  0.00000000000E+00  0.00000000000E+00  0.61444716898E+02  0.61444716898E+02  0.00000000000E+00 0.  1.
         -2   -1    0    0    0  501 -0.00000000000E+00 -0.00000000000E+00 -0.21309879442E+03  0.21309879442E+03  0.00000000000E+00 0. -1.
         23    2    1    2    0    0 -0.26926110746E+02  0.18947500672E+02 -0.91190729778E+02  0.15825054195E+03  0.12507382463E+03 0.  0.
          5    1    3    3  502    0  0.39965892203E+02  0.32498573520E+02 -0.10952745897E+02  0.52828636771E+02  0.41800000000E+01 0.  1.
         -5    1    3    3    0  502 -0.66892002949E+02 -0.13551072847E+02 -0.80237983881E+02  0.10542190518E+03  0.41800000000E+01 0.  1.
        -11    1    1    2    0    0  0.30023857075E+02 -0.49790675530E+02 -0.12958494810E+02  0.59569001596E+02  0.00000000000E+00 0.  1.
         11    1    1    2    0    0 -0.30977463290E+01  0.30843174858E+02 -0.47504852935E+02  0.56723967774E+02  0.00000000000E+00 0. -1.
</event>
<event>
 7    1  0.5109948E-006  0.1702702E+03  0.7561462E-02  0.1177566E+00
          1   -1    0    0  501    0  0.00000000000E+00  0.00000000000E+00  0.33641430908E+03  0.33641430908E+03  0.00000000000E+00 0. -1.
         -1   -1    0    0    0  501 -0.00000000000E+00 -0.00000000000E+00 -0.10548867657E+03  0.10548867657E+03  0.00000000000E+00 0.  1.
         23    2    1    2    0    0  0.89380441519E+02  0.10487167132E+03  0.39796666395E+02  0.19031074108E+03  0.12508985866E+03 0.  0.
          5    1    3    3  502    0 -0.15172373682E+00  0.94132456750E+02  0.32792915038E+02  0.99768683016E+02  0.41800000000E+01 0. -1.
         -5    1    3    3    0  502  0.89532165255E+02  0.10739214574E+02  0.70037513567E+01  0.90542058062E+02  0.41800000000E+01 0. -1.
        -11    1    1    2    0    0 -0.71216537998E+01 -0.63627389954E+02  0.42714107746E+02  0.76965301960E+02  0.00000000000E+00 0. -1.
         11    1    1    2    0    0 -0.82258787719E+02 -0.41244281370E+02  0.14841485837E+03  0.17462694262E+03  0.00000000000E+00 0.  1.
</event>
<event>
 7    1  0.5109948E-006  0.1119985E+03  0.7561462E-02  0.1256913E+00
         -2   -1    0    0    0  501 -0.00000000000E+00  0.00000000000E+00  0.46400897921E+02  0.46400897921E+02  0.00000000000E+00 0.  1.
          2   -1    0    0  501    0  0.00000000000E+00 -0.00000000000E+00 -0.32118311537E+03  0.32118311537E+03  0.00000000000E+00 0. -1.
         23    2    1    2    0    0 -0.25837228568E+01 -0.36779256888E+02 -0.93650063165E+02  0.16055283018E+03  0.12508991801E+03 0.  0.
          5    1    3    3  502    0  0.48571628703E+02  0.20276035880E+02 -0.47367917425E+02  0.70933156894E+02  0.41800000000E+01 0.  1.
         -5    1    3    3    0  502 -0.51155351559E+02 -0.57055292768E+02 -0.46282145740E+02  0.89619673288E+02  0.41800000000E+01 0.  1.
        -11    1    1    2    0    0 -0.28206117474E+02 -0.16674409872E+02 -0.32702800122E+02  0.46293564816E+02  0.00000000000E+00 0.  1.
         11    1    1    2    0    0  0.30789840331E+02  0.53453666760E+02 -0.14842935416E+03  0.16073761829E+03  0.00000000000E+00 0. -1.
</event>
<event>
 6    1  0.5109948E-006  0.1138210E+03  0.7561462E-02  0.1253653E+00
         -2   -1    0    0    0  501 -0.00000000000E+00  0.00000000000E+00  0.21371953413E+03  0.21371953413E+03  0.00000000000E+00 0.  1.
          2   -1    0    0  501    0  0.00000000000E+00 -0.00000000000E+00 -0.95255395497E+02  0.95255395497E+02  0.00000000000E+00 0. -1.
          5    1    1    2  502    0  0.69120673036E+02 -0.68246966083E+02  0.42875600325E+02  0.10625961285E+03  0.41800000000E+01 0. -1.
         -5    1    1    2    0  502 -0.32462538534E+02  0.51788113469E+01  0.78290369013E+02  0.85014650356E+02  0.41800000000E+01 0.  1.
        -11    1    1    2    0    0  0.18630923906E+02  0.18597450912E+02 -0.31564089889E+02  0.41100708954E+02  0.00000000000E+00 0. -1.
         11    1    1    2    0    0 -0.55289058407E+02  0.44470703824E+02  0.28862259184E+02  0.76599957463E+02  0.00000000000E+00 0.  1.
</event>
<event>
 7    1  0.5109948E-006  0.1647707E+03  0.7561462E-02  0.1183414E+00
          2   -1    0    0  501    0  0.00000000000E+00  0.00000000000E+00  0.37581645281E+03  0.37581645281E+03  0.00000000000E+00 0. -1.
         -2   -1    0    0    0  501 -0.00000000000E+00 -0.00000000000E+00 -0.98406455402E+02  0.98406455402E+02  0.00000000000E+00 0.  1.
         23    2    1    2    0    0  0.81119188661E+02 -0.13223838477E+03  0.10308583120E+03  0.22436808408E+03  0.12508811049E+03 0.  0.
          5    1    3    3  502    0  0.44963117115E+02 -0.11468899861E+03  0.10929321953E+02  0.12374235646E+03  0.41800000000E+01 0.  1.
         -5    1    3    3    0  502  0.36156071545E+02 -0.17549386156E+02  0.92156509243E+02  0.10062572762E+03  0.41800000000E+01 0.  1.
        -11    1    1    2    0    0 -0.15707510626E+02  0.81750244787E+02  0.40497043819E+02  0.92573424755E+02  0.00000000000E+00 0.  1.
         11    1    1    2    0    0 -0.65411678035E+02  0.50488139979E+02  0.13382712239E+03  0.15728139938E+03  0.00000000000E+00 0. -1.
</event>
<event>
 7    1  0.5109948E-006  0.2741587E+03  0.7561462E-02  0.1098923E+00
         -2   -1    0    0    0  501 -0.00000000000E+00  0.00000000000E+00  0.25126619723E+03  0.25126619723E+03  0.00000000000E+00 0.  1.
          2   -1    0    0  501    0  0.00000000000E+00 -0.00000000000E+00 -0.30955396863E+03  0.30955396863E+03  0.00000000000E+00 0. -1.
         23    2    1    2    0    0  0.81630400605E+01  0.25574687510E+03 -0.78677407730E+01  0.28492486142E+03  0.12508867240E+03 0.  0.
          5    1    3    3  502    0 -0.54727353636E+02  0.71946824218E+02 -0.10564070081E+01  0.90498713509E+02  0.41800000000E+01 0. -1.
         -5    1    3    3    0  502  0.62890393696E+02  0.18380005088E+03 -0.68113337649E+01  0.19442614791E+03  0.41800000000E+01 0. -1.
        -11    1    1    2    0    0 -0.28566339593E+02 -0.57308621914E+02  0.15350917863E+02  0.65848041601E+02  0.00000000000E+00 0.  1.
         11    1    1    2    0    0  0.20403299533E+02 -0.19843825319E+03 -0.65770948498E+02  0.21004726284E+03  0.00000000000E+00 0. -1.
</event>
<event>
 6    1  0.5109948E-006  0.8956357E+02  0.7561462E-02  0.1303912E+00
         -2   -1    0    0    0  501 -0.00000000000E+00  0.00000000000E+00  0.10657232266E+03  0.10657232266E+03  0.00000000000E+00 0.  1.
          2   -1    0    0  501    0  0.00000000000E+00 -0.00000000000E+00 -0.13220201265E+03  0.13220201265E+03  0.00000000000E+00 0. -1.
          5    1    1    2  502    0 -0.23370529291E+02  0.32646055157E+02 -0.48699120852E+02  0.63253642808E+02  0.41800000000E+01 0. -1.
         -5    1    1    2    0  502  0.43377492845E+02 -0.89063750496E+01  0.58538349207E+02  0.73519664919E+02  0.41800000000E+01 0.  1.
        -11    1    1    2    0    0  0.29853685482E+02  0.12783438093E+02 -0.42336992018E+01  0.32750313514E+02  0.00000000000E+00 0.  1.
         11    1    1    2    0    0 -0.49860649035E+02 -0.36523118201E+02 -0.31235219141E+02  0.69250714076E+02  0.00000000000E+00 0. -1.
</event>
<event>
 7    1  0.5109948E-006  0.1508959E+03  0.7561462E-02  0.1199376E+00
          1   -1    0    0  501    0  0.00000000000E+00  0.00000000000E+00  0.49631734335E+03  0.49631734335E+03  0.00000000000E+00 0. -1.
         -1   -1    0    0    0  501 -0.00000000000E+00 -0.00000000000E+00 -0.50965460237E+02  0.50965460237E+02  0.00000000000E+00 0.  1.
         23    2    1    2    0    0  0.78412512307E+02 -0.84270186573E+02  0.23465967783E+03  0.28976861380E+03  0.12510275261E+03 0.  0.
          5    1    3    3  502    0  0.30204507869E+02  0.24949137789E+02  0.20181616759E+02  0.44266712404E+02  0.41800000000E+01 0. -1.
         -5    1    3    3    0  502  0.48208004438E+02 -0.10921932436E+03  0.21447806108E+03  0.24550190139E+03  0.41800000000E+01 0. -1.
        -11    1    1    2    0    0  0.83629446163E+01 -0.11163158850E+02  0.47477628081E+02  0.49484140149E+02  0.00000000000E+00 0.  1.
         11    1    1    2    0    0 -0.86775456923E+02  0.95433345423E+02  0.16321457720E+03  0.20803004964E+03  0.00000000000E+00 0. -1.
</event>
<event>
 7    1  0.5109948E-006  0.9743960E+02  0.7561462E-02  0.1285774E+00
         -1   -1    0    0    0  501 -0.00000000000E+00  0.00000000000E+00  0.84729688025E+02  0.84729688025E+02  0.00000000000E+00 0.  1.
          1   -1    0    0  501    0  0.00000000000E+00 -0.00000000000E+00 -0.15836419960E+03  0.15836419960E+03  0.00000000000E+00 0. -1.
         23    2    1    2    0    0 -0.15799822225E+02  0.13656107440E+02 -0.44404987957E+01  0.12689823407E+03  0.12508924865E+03 0.  0.
          5    1    3    3  502    0 -0.32460814616E+02  0.52388318653E+02  0.33283575208E+02  0.70167721891E+02  0.41800000000E+01 0. -1.
         -5    1    3    3    0  502  0.16660992390E+02 -0.38732211213E+02 -0.37724074003E+02  0.56730512181E+02  0.41800000000E+01 0. -1.
        -11    1    1    2    0    0 -0.36790484094E+02 -0.18427356589E+01 -0.41860139739E+02  0.55760260881E+02  0.00000000000E+00 0. -1.
         11    1    1    2    0    0  0.52590306320E+02 -0.11813371781E+02 -0.27333873038E+02  0.60435392668E+02  0.00000000000E+00 0.  1.
</event>
<event>
 7    1  0.5109948E-006  0.1595000E+03  0.7561462E-02  0.1189262E+00
          1   -1    0    0  501    0  0.00000000000E+00  0.00000000000E+00  0.84937874926E+02  0.84937874926E+02  0.00000000000E+00 0. -1.
         -1   -1    0    0    0  501 -0.00000000000E+00 -0.00000000000E+00 -0.41390315828E+03  0.41390315828E+03  0.00000000000E+00 0.  1.
         23    2    1    2    0    0  0.14179529182E+03  0.27656792586E+02 -0.23899476009E+03  0.30600129523E+03  0.12508994514E+03 0.  0.
          5    1    3    3  502    0  0.17662458886E+02  0.19320365121E+02  0.94275329337E+01  0.28135204629E+02  0.41800000000E+01 0. -1.
         -5    1    3    3    0  502  0.12413283294E+03  0.83364274652E+01 -0.24842229302E+03  0.27786609060E+03  0.41800000000E+01 0. -1.
        -11    1    1    2    0    0 -0.13827523094E+03 -0.48755009029E+02 -0.88809824527E+02  0.17141842179E+03  0.00000000000E+00 0.  1.
         11    1    1    2    0    0 -0.35200608842E+01  0.21098216443E+02 -0.11606987422E+01  0.21421316189E+02  0.00000000000E+00 0. -1.
</event>
<event>
 6    1  0.5109948E-006  0.2483707E+03  0.7561462E-02  0.1114339E+00
          2   -1    0    0  501    0  0.00000000000E+00  0.00000000000E+00  0.31708868641E+03  0.31708868641E+03  0.00000000000E+00 0. -1.
         -2   -1    0    0    0  501 -0.00000000000E+00 -0.00000000000E+00 -0.36449856048E+03  0.36449856048E+03  0.00000000000E+00 0.  1.
          5    1    1    2  502    0  0.10281931631E+03  0.19016955115E+03 -0.10243042137E+03  0.23926080668E+03  0.41800000000E+01 0. -1.
         -5    1    1    2    0  502 -0.71949025154E+02  0.41945568426E+01 -0.13551580113E+03  0.15354563258E+03  0.41800000000E+01 0.  1.
        -11    1    1    2    0    0 -0.49077216479E+02 -0.17496699339E+03  0.18891563787E+03  0.26212809881E+03  0.00000000000E+00 0.  1.
         11    1    1    2    0    0  0.18206925321E+02 -0.19397114611E+02  0.16207105544E+01  0.26652708823E+02  0.00000000000E+00 0. -1.
</event>
<event>
 7    1  0.5109948E-006  0.1011720E+03  0.7561462E-02  0.1277850E+00
          3   -1    0    0  501    0  0.00000000000E+00  0.00000000000E+00  0.27452841759E+03  0.27452841759E+03  0.00000000000E+00 0. -1.
         -3   -1    0    0    0  501 -0.00000000000E+00 -0.00000000000E+00 -0.52037125685E+02  0.52037125685E+02  0.00000000000E+00 0.  1.
         23    2    1    2    0    0  0.32888255137E+02  0.24749585575E+02  0.85778808715E+02  0.15716069688E+03  0.12508917342E+03 0.  0.
          5    1    3    3  502    0  0.11725315527E+02  0.59879565666E+02 -0.91266808366E+00  0.61166582147E+02  0.41800000000E+01 0. -1.
         -5    1    3    3    0  502  0.21162939610E+02 -0.35129980091E+02  0.86691476798E+02  0.95994114734E+02  0.41800000000E+01 0. -1.
        -11    1    1    2    0    0 -0.55466064557E+02 -0.43597077800E+02  0.93383035508E+02  0.11703666447E+03  0.00000000000E+00 0.  1.
         11    1    1    2    0    0  0.22577809419E+02  0.18847492224E+02  0.43329447683E+02  0.52368181922E+02  0.00000000000E+00 0. -1.
</event>
<event>
 7    1  0.5109948E-006  0.1330125E+03  0.7561462E-02  0.1223053E+00
         -1   -1    0    0    0  501 -0.00000000000E+00  0.00000000000E+00  0.51545447785E+02  0.51545447785E+02  0.00000000000E+00 0.  1.
          1   -1    0    0  501    0  0.00000000000E+00 -0.00000000000E+00 -0.42521801998E+03  0.42521801998E+03  0.00000000000E+00 0. -1.
         23    2    1    2    0    0 -0.67748946039E+02 -0.34629292493E+02 -0.10044823176E+03  0.17753649243E+03  0.12506099029E+03 0.  0.
          5    1    3    3  502    0 -0.86567434075E+01 -0.74365093146E+02 -0.54250727176E+02  0.92551175488E+02  0.41800000000E+01 0.  1.
         -5    1    3    3    0  502 -0.59092202632E+02  0.39735800653E+02 -0.46197504584E+02  0.84985316939E+02  0.41800000000E+01 0.  1.
        -11    1    1    2    0    0  0.49311662506E+02  0.66560593519E+02 -0.16035009345E+03  0.18048297742E+03  0.00000000000E+00 0.  1.
         11    1    1    2    0    0  0.18437283533E+02 -0.31931301025E+02 -0.11287424699E+03  0.11874399793E+03  0.00000000000E+00 0. -1.
</event>
<event>
 7    1  0.5109948E-006  0.8597468E+02  0.7561462E-02  0.1312903E+00
         -1   -1    0    0    0  501 -0.00000000000E+00  0.00000000000E+00  0.29358644055E+02  0.29358644055E+02  0.00000000000E+00 0.  1.
          1   -1    0    0  501    0  0.00000000000E+00 -0.00000000000E+00 -0.41773755210E+03  0.41773755210E+03  0.00000000000E+00 0. -1.
         23    2    1    2    0    0  0.12224544350E+02 -0.19425014939E+02 -0.21924354339E+03  0.25346018040E+03  0.12509021161E+03 0.  0.
          5    1    3    3  502    0  0.35890616276E+02  0.33666178452E+02 -0.17042756533E+03  0.17743893409E+03  0.41800000000E+01 0.  1.
         -5    1    3    3    0  502 -0.23666071925E+02 -0.53091193391E+02 -0.48815978061E+02  0.76021246308E+02  0.41800000000E+01 0.  1.
        -11    1    1    2    0    0  0.11009077244E+02  0.34750596605E+02 -0.19317965302E+02  0.41255151552E+02  0.00000000000E+00 0.  1.
         11    1    1    2    0    0 -0.23233621595E+02 -0.15325581666E+02 -0.14981739935E+03  0.15238086420E+03  0.00000000000E+00 0. -1.
</event>
<event>
 7    1  0.5109948E-006  0.1169305E+03  0.7561462E-02  0.1248248E+00
         -1   -1    0    0    0  501 -0.00000000000E+00  0.00000000000E+00  0.46478001374E+02  0.46478001374E+02  0.00000000000E+00 0.  1.
          1   -1    0    0  501    0  0.00000000000E+00 -0.00000000000E+00 -0.56806198023E+03  0.56806198023E+03  0.00000000000E+00 0. -1.
         23    2    1    2    0    0  0.65455526239E+02  0.64204673946E+02 -0.12594895296E+03  0.19980347765E+03  0.12510645410E+03 0.  0.
          5    1    3    3  502    0  0.55237390536E+02  0.94685286006E+02 -0.12642259488E+03  0.16738165251E+03  0.41800000000E+01 0.  1.
         -5    1    3    3    0  502  0.10218135703E+02 -0.30480612060E+02  0.47364192075E+00  0.32421825141E+02  0.41800000000E+01 0.  1.
        -11    1    1    2    0    0 -0.51860263769E+02 -0.49013890168E+02 -0.38535340702E+03  0.39190444841E+03  0.00000000000E+00 0. -1.
         11    1    1    2    0    0 -0.13595262470E+02 -0.15190783777E+02 -0.10281618875E+02  0.22832055538E+02  0.00000000000E+00 0.  1.
</event>
<event>
 7    1  0.5109948E-006  0.9765028E+02  0.7561462E-02  0.1285316E+00
          1   -1    0    0  501    0  0.00000000000E+00  0.00000000000E+00  0.19628814058E+02  0.19628814058E+02  0.00000000000E+00 0. -1.
         -1   -1    0    0    0  501 -0.00000000000E+00 -0.00000000000E+00 -0.56991276515E+03  0.56991276515E+03  0.00000000000E+00 0.  1.
         23    2    1    2    0    0 -0.21082144774E+02  0.19663815160E+02 -0.27750371132E+03  0.30049121005E+03  0.11160436850E+03 0.  0.
          5    1    3    3  502    0 -0.65738066766E+02  0.22884287251E+01 -0.18182946857E+03  0.19340671748E+03  0.41800000000E+01 0. -1.
         -5    1    3    3    0  502  0.44655921992E+02  0.17375386435E+02 -0.95674242752E+02  0.10708449257E+03  0.41800000000E+01 0.  1.
        -11    1    1    2    0    0 -0.50532245482E+01  0.27181985787E+02 -0.31649526602E+02  0.42024849361E+02  0.00000000000E+00 0. -1.
         11    1    1    2    0    0  0.26135369322E+02 -0.46845800947E+02 -0.24113071317E+03  0.24702551980E+03  0.00000000000E+00 0.  1.
</event>
<event>
 7    1  0.5109948E-006  0.1012517E+03  0.7561462E-02  0.1277686E+00
         -1   -1    0    0    0  501 -0.00000000000E+00  0.00000000000E+00  0.21338248864E+02  0.21338248864E+02  0.00000000000E+00 0.  1.
          1   -1    0    0  501    0  0.00000000000E+00 -0.00000000000E+00 -0.60567964636E+03  0.60567964636E+03  0.00000000000E+00 0. -1.
         23    2    1    2    0    0 -0.33261693529E+02  0.10891360051E+01 -0.30125194420E+03  0.32788302092E+03  0.12508802919E+03 0.  0.
          5    1    3    3  502    0  0.32541089882E+02  0.22285429574E+02 -0.20787407379E+03  0.21162387827E+03  0.41800000000E+01 0.  1.
         -5    1    3    3    0  502 -0.65802783411E+02 -0.21196293569E+02 -0.93377870413E+02  0.11625914265E+03  0.41800000000E+01 0.  1.
        -11    1    1    2    0    0 -0.14154885748E+02 -0.33352050284E+02 -0.14809643818E+03  0.15246401231E+03  0.00000000000E+00 0. -1.
         11    1    1    2    0    0  0.47416579277E+02  0.32262914279E+02 -0.13499301512E+03  0.14667086200E+03  0.00000000000E+00 0.  1.
</event>
<event>
 7    1  0.5109948E-006  0.1057335E+03  0.7561462E-02  0.1268681E+00
          2   -1    0    0  501    0  0.00000000000E+00  0.00000000000E+00  0.34768424321E+03  0.34768424321E+03  0.00000000000E+00 0. -1.
         -2   -1    0    0    0  501 -0.00000000000E+00 -0.00000000000E+00 -0.49762182156E+02  0.49762182156E+02  0.00000000000E+00 0.  1.
         23    2    1    2    0    0 -0.43580550939E+02 -0.36129298107E+02  0.91611236037E+02  0.16506074702E+03  0.12509133078E+03 0.  0.
          5    1    3    3  502    0 -0.19822126356E+01 -0.63230708458E+02  0.30823448678E+01  0.63474600502E+02  0.41800000000E+01 0. -1.
         -5    1    3    3    0  502 -0.41598338304E+02  0.27101410351E+02  0.88528891169E+02  0.10158614652E+03  0.41800000000E+01 0. -1.
        -11    1    1    2    0    0  0.22701087873E+02  0.61400649101E+02  0.17583957443E+03  0.18762978185E+03  0.00000000000E+00 0. -1.
         11    1    1    2    0    0  0.20879463066E+02 -0.25271350995E+02  0.30471250590E+02  0.44755896500E+02  0.00000000000E+00 0.  1.
</event>
<event>
 7    1  0.5109948E-006  0.1068622E+03  0.7561462E-02  0.1266493E+00
          1   -1    0    0  501    0  0.00000000000E+00  0.00000000000E+00  0.19071568989E+02  0.19071568989E+02  0.00000000000E+00 0. -1.
         -1   -1    0    0    0  501 -0.00000000000E+00 -0.00000000000E+00 -0.61056414533E+03  0.61056414533E+03  0.00000000000E+00 0.  1.
         23    2    1    2    0    0 -0.28752774723E+02  0.31957437548E+02 -0.39459730546E+03  0.41617623089E+03  0.12509045450E+03 0.  0.
          5    1    3    3  502    0 -0.74277268329E+02  0.42046691553E+02 -0.25457028634E+03  0.26853033339E+03  0.41800000000E+01 0. -1.
         -5    1    3    3    0  502  0.45524493607E+02 -0.10089254006E+02 -0.14002701912E+03  0.14764589750E+03  0.41800000000E+01 0. -1.
        -11    1    1    2    0    0  0.51790711540E+02 -0.20219088371E+02 -0.14892658066E+03  0.15896608369E+03  0.00000000000E+00 0.  1.
         11    1    1    2    0    0 -0.23037936817E+02 -0.11738349176E+02 -0.47968690212E+02  0.54493399736E+02  0.00000000000E+00 0. -1.
</event>
<event>
 7    1  0.5109948E-006  0.9512872E+02  0.7561462E-02  0.1290886E+00
          1   -1    0    0  501    0  0.00000000000E+00  0.00000000000E+00  0.26781843617E+03  0.26781843617E+03  0.00000000000E+00 0. -1.
         -1   -1    0    0    0  501 -0.00000000000E+00 -0.00000000000E+00 -0.45779319985E+02  0.45779319985E+02  0.00000000000E+00 0.  1.
         23    2    1    2    0    0  0.54072649483E+01  0.21414787210E+02  0.13012868936E+03  0.18184611661E+03  0.12508678070E+03 0.  0.
          5    1    3    3  502    0 -0.42492660794E+02 -0.33152747213E+02  0.50044132889E+02  0.73665585627E+02  0.41800000000E+01 0.  1.
         -5    1    3    3    0  502  0.47899925742E+02  0.54567534423E+02  0.80084556470E+02  0.10818053098E+03  0.41800000000E+01 0.  1.
        -11    1    1    2    0    0 -0.13108418565E+02 -0.40671427213E+02  0.10057392184E+03  0.10927538325E+03  0.00000000000E+00 0. -1.
         11    1    1    2    0    0  0.77011536168E+01  0.19256640003E+02 -0.86634950167E+01  0.22476256297E+02  0.00000000000E+00 0.  1.
</event>
<event>
 7    1  0.5109948E-006  0.9213520E+02  0.7561462E-02  0.1297762E+00
          1   -1    0    0  501    0  0.00000000000E+00  0.00000000000E+00  0.90717978306E+02  0.90717978306E+02  0.00000000000E+00 0. -1.
         -1   -1    0    0    0  501 -0.00000000000E+00 -0.00000000000E+00 -0.18207868634E+03  0.18207868634E+03  0.00000000000E+00 0.  1.
         23    2    1    2    0    0  0.35064455280E+02 -0.48929302573E+02 -0.81306317543E+02  0.16088149765E+03  0.12509414990E+03 0.  0.
          5    1    3    3  502    0  0.36550164249E+02 -0.79018992273E+02 -0.15696961981E+02  0.88565132315E+02  0.41800000000E+01 0. -1.
         -5    1    3    3    0  502 -0.14857089696E+01  0.30089689701E+02 -0.65609355561E+02  0.72316365330E+02  0.41800000000E+01 0. -1.
        -11    1    1    2    0    0 -0.35061852160E+02  0.25721922858E+02 -0.49661847857E+02  0.66009468449E+02  0.00000000000E+00 0.  1.
         11    1    1    2    0    0 -0.26031197783E-02  0.23207379715E+02  0.39607457368E+02  0.45905698548E+02  0.00000000000E+00 0. -1.
</event>
<event>
 7    1  0.5109948E-006  0.1173023E+03  0.7561462E-02  0.1247615E+00
          3   -1    0    0  501    0  0.00000000000E+00  0.00000000000E+00  0.10165485544E+03  0.10165485544E+03  0.00000000000E+00 0. -1.
         -3   -1    0    0    0  501 -0.00000000000E+00 -0.00000000000E+00 -0.16513247713E+03  0.16513247713E+03  0.00000000000E+00 0.  1.
         23    2    1    2    0    0 -0.34045246450E+02 -0.32272003428E+02 -0.86047771932E+02  0.15890886923E+03  0.12508896296E+03 0.  0.
          5    1    3    3  502    0  0.36590961797E+02 -0.48525187462E+02 -0.41910780722E+02  0.73943074349E+02  0.41800000000E+01 0.  1.
         -5    1    3    3    0  502 -0.70636208247E+02  0.16253184035E+02 -0.44136991209E+02  0.84965794881E+02  0.41800000000E+01 0.  1.
        -11    1    1    2    0    0  0.95143322728E+00 -0.30291619497E+02 -0.71110594457E+01  0.31129641877E+02  0.00000000000E+00 0.  1.
         11    1    1    2    0    0  0.33093813222E+02  0.62563622925E+02  0.29681209695E+02  0.76748821463E+02  0.00000000000E+00 0. -1.
</event>
<event>
 7    1  0.5109948E-006  0.1205421E+03  0.7561462E-02  0.1242205E+00
          1   -1    0    0  501    0  0.00000000000E+00  0.00000000000E+00  0.82221333195E+03  0.82221333195E+03  0.00000000000E+00 0. -1.
         -1   -1    0    0    0  501 -0.00000000000E+00 -0.00000000000E+00 -0.22265080010E+02  0.22265080010E+02  0.00000000000E+00 0.  1.
         23    2    1    2    0    0 -0.61577068569E+02  0.52104249689E+02  0.43494285933E+03  0.45971144124E+03  0.12511087131E+03 0.  0.
          5    1    3    3  502    0 -0.32107069572E+01 -0.27559635303E+02  0.23500583429E+03  0.23667500224E+03  0.41800000000E+01 0. -1.
         -5    1    3    3    0  502 -0.58366361612E+02  0.79663884993E+02  0.19993702504E+03  0.22303643900E+03  0.41800000000E+01 0. -1.
        -11    1    1    2    0    0  0.31025669472E+02 -0.71534411600E+02  0.17861415111E+03  0.19489171143E+03  0.00000000000E+00 0.  1.
         11    1    1    2    0    0  0.30551399098E+02  0.19430161911E+02  0.18639124151E+03  0.18987525929E+03  0.00000000000E+00 0. -1.
</event>
<event>
 7    1  0.5109948E-006  0.1022921E+03  0.7561462E-02  0.1275549E+00
         -1   -1    0    0    0  501 -0.00000000000E+00  0.00000000000E+00  0.55313054130E+02  0.55313054130E+02  0.00000000000E+00 0.  1.
          1   -1    0    0  501    0  0.00000000000E+00 -0.00000000000E+00 -0.22653997322E+03  0.22653997322E+03  0.00000000000E+00 0. -1.
         23    2    1    2    0    0 -0.21522244237E+02 -0.19206628179E+02 -0.81836781803E+02  0.15223416157E+03  0.12508349024E+03 0.  0.
          5    1    3    3  502    0  0.10648672650E+02  0.48427814234E+02 -0.15559507191E+02  0.52136533110E+02  0.41800000000E+01 0. -1.
         -5    1    3    3    0  502 -0.32170916887E+02 -0.67634442413E+02 -0.66277274612E+02  0.10009762846E+03  0.41800000000E+01 0. -1.
        -11    1    1    2    0    0  0.46907825524E+02  0.25865898165E+02 -0.88390835256E+02  0.10335535081E+03  0.00000000000E+00 0. -1.
         11    1    1    2    0    0 -0.25385581287E+02 -0.66592699867E+01 -0.99930203035E+00  0.26263514970E+02  0.00000000000E+00 0.  1.
</event>
<event>
 6    1  0.5109948E-006  0.2300576E+03  0.7561462E-02  0.1126599E+00
         -1   -1    0    0    0  501 -0.00000000000E+00  0.00000000000E+00  0.19401348281E+03  0.19401348281E+03  0.00000000000E+00 0.  1.
          1   -1    0    0  501    0  0.00000000000E+00 -0.00000000000E+00 -0.32309538856E+03  0.32309538856E+03  0.00000000000E+00 0. -1.
          5    1    1    2  502    0  0.21592012235E+03 -0.50130177815E+02 -0.52511158146E+02  0.22783640643E+03  0.41800000000E+01 0. -1.
         -5    1    1    2    0  502 -0.17880559245E+02  0.27109128088E+01 -0.62375678880E+02  0.65078884155E+02  0.41800000000E+01 0.  1.
        -11    1    1    2    0    0 -0.19526992967E+03  0.62103574146E+02 -0.24018471142E+02  0.20631065487E+03  0.00000000000E+00 0.  1.
         11    1    1    2    0    0 -0.27696334321E+01 -0.14684309140E+02  0.98234024173E+01  0.17882925916E+02  0.00000000000E+00 0. -1.
</event>
<event>
 7    1  0.5109948E-006  0.9888255E+02  0.7561462E-02  0.1282663E+00
          1   -1    0    0  501    0  0.00000000000E+00  0.00000000000E+00  0.30207310365E+03  0.30207310365E+03  0.00000000000E+00 0. -1.
         -1   -1    0    0    0  501 -0.00000000000E+00 -0.00000000000E+00 -0.38241366325E+02  0.38241366325E+02  0.00000000000E+00 0.  1.
         23    2    1    2    0    0 -0.30883152985E+02 -0.23701451260E+02  0.13890085477E+03  0.19093253674E+03  0.12508500390E+03 0.  0.
          5    1    3    3  502    0 -0.72942580671E+02 -0.19104929937E+01  0.45417104643E+02  0.86049147890E+02  0.41800000000E+01 0.  1.
         -5    1    3    3    0  502  0.42059427686E+02 -0.21790958266E+02  0.93483750129E+02  0.10488338885E+03  0.41800000000E+01 0.  1.
        -11    1    1    2    0    0  0.24753448110E+02 -0.20720861773E+02  0.28613773155E+02  0.43137400479E+02  0.00000000000E+00 0.  1.
         11    1    1    2    0    0  0.61297048752E+01  0.44422313032E+02  0.96317109396E+02  0.10624453275E+03  0.00000000000E+00 0. -1.
</event>
<event>
 7    1  0.5109948E-006  0.1332251E+03  0.7561462E-02  0.1222747E+00
         -1   -1    0    0    0  501 -0.00000000000E+00  0.00000000000E+00  0.25068883944E+02  0.25068883944E+02  0.00000000000E+00 0.  1.
          1   -1    0    0  501    0  0.00000000000E+00 -0.00000000000E+00 -0.11261646388E+04  0.11261646388E+04  0.00000000000E+00 0. -1.
         23    2    1    2    0    0  0.70291650462E+02 -0.10719251219E+03 -0.53827181856E+03  0.56728785301E+03  0.12509119366E+03 0.  0.
          5    1    3    3  502    0  0.70564328683E+02 -0.68435113434E+02 -0.16589753387E+03  0.19287859751E+03  0.41800000000E+01 0.  1.
         -5    1    3    3    0  502 -0.27267822018E+00 -0.38757398755E+02 -0.37237428469E+03  0.37440925550E+03  0.41800000000E+01 0.  1.
        -11    1    1    2    0    0 -0.77494945081E+01  0.22499988610E+02 -0.20236051115E+02  0.31237828306E+02  0.00000000000E+00 0.  1.
         11    1    1    2    0    0 -0.62542155954E+02  0.84692523580E+02 -0.54258788515E+03  0.55270784139E+03  0.00000000000E+00 0. -1.
</event>
<event>
 7    1  0.5109948E-006  0.2277889E+03  0.7561462E-02  0.1128206E+00
         -1   -1    0    0    0  501 -0.00000000000E+00  0.00000000000E+00  0.24476927127E+03  0.24476927127E+03  0.00000000000E+00 0.  1.
          1   -1    0    0  501    0  0.00000000000E+00 -0.00000000000E+00 -0.22888034261E+03  0.22888034261E+03  0.00000000000E+00 0. -1.
         23    2    1    2    0    0  0.38960082064E+02 -0.20141414831E+03  0.56978468228E+02  0.24694012351E+03  0.12508929459E+03 0.  0.
          5    1    3    3  502    0  0.82723280796E+02 -0.13154892255E+03  0.53211480148E+02  0.16430822934E+03  0.41800000000E+01 0. -1.
         -5    1    3    3    0  502 -0.43763198732E+02 -0.69865225761E+02  0.37669880806E+01  0.82631894164E+02  0.41800000000E+01 0. -1.
        -11    1    1    2    0    0 -0.49924271501E+02  0.71512892404E+02  0.76105341330E+01  0.87546826868E+02  0.00000000000E+00 0.  1.
         11    1    1    2    0    0  0.10964189437E+02  0.12990125591E+03 -0.48700073704E+02  0.13916266351E+03  0.00000000000E+00 0. -1.
</event>
<event>
 7    1  0.5109948E-006  0.1258084E+03  0.7561462E-02  0.1233811E+00
         -2   -1    0    0    0  501 -0.00000000000E+00  0.00000000000E+00  0.84427632577E+02  0.84427632577E+02  0.00000000000E+00 0. -1.
          2   -1    0    0  501    0  0.00000000000E+00 -0.00000000000E+00 -0.22444977261E+03  0.22444977261E+03  0.00000000000E+00 0.  1.
         23    2    1    2    0    0 -0.50529354167E+02 -0.69192854257E+02 -0.63348628548E+02  0.16432032898E+03  0.12508898858E+03 0.  0.
          5    1    3    3  502    0 -0.72788043808E+02 -0.39561627432E+01 -0.37653557195E+01  0.73112248281E+02  0.41800000000E+01 0.  1.
         -5    1    3    3    0  502  0.22258689641E+02 -0.65236691514E+02 -0.59583272828E+02  0.91208080701E+02  0.41800000000E+01 0.  1.
        -11    1    1    2    0    0  0.65641803780E+02  0.67798467295E+02 -0.35755996954E+02  0.10091565730E+03  0.00000000000E+00 0. -1.
         11    1    1    2    0    0 -0.15112449613E+02  0.13943869623E+01 -0.40917514534E+02  0.43641418904E+02  0.00000000000E+00 0.  1.
</event>
<event>
 7    1  0.5109948E-006  0.1063397E+03  0.7561462E-02  0.1267502E+00
          1   -1    0    0  501    0  0.00000000000E+00  0.00000000000E+00  0.20822931078E+02  0.20822931078E+02  0.00000000000E+00 0. -1.
         -1   -1    0    0    0  501 -0.00000000000E+00 -0.00000000000E+00 -0.86273086035E+03  0.86273086035E+03  0.00000000000E+00 0.  1.
         23    2    1    2    0    0  0.51706627921E+02  0.32041178693E+02 -0.63318273205E+03  0.64828079566E+03  0.12508958928E+03 0.  0.
          5    1    3    3  502    0 -0.31170682267E+02 -0.21598581852E+02 -0.12974954699E+03  0.13524247674E+03  0.41800000000E+01 0.  1.
         -5    1    3    3    0  502  0.82877310188E+02  0.53639760544E+02 -0.50343318506E+03  0.51303831892E+03  0.41800000000E+01 0.  1.
        -11    1    1    2    0    0 -0.51390019888E+02 -0.83971449777E+01 -0.20478408730E+03  0.21130065925E+03  0.00000000000E+00 0.  1.
         11    1    1    2    0    0 -0.31660803297E+00 -0.23644033715E+02 -0.39411099226E+01  0.23972336523E+02  0.00000000000E+00 0. -1.
</event>
<event>
 7    1  0.5109948E-006  0.1788787E+03  0.7561462E-02  0.1168893E+00
         -2   -1    0    0    0  501 -0.00000000000E+00  0.00000000000E+00  0.57007047741E+02  0.57007047741E+02  0.00000000000E+00 0.  1.
          2   -1    0    0  501    0  0.00000000000E+00 -0.00000000000E+00 -0.59081363906E+03  0.59081363906E+03  0.00000000000E+00 0. -1.
         23    2    1    2    0    0  0.12536456614E+03  0.72379960205E+02 -0.22512222485E+03  0.29543891940E+03  0.12509598670E+03 0.  0.
          5    1    3    3  502    0  0.98583699894E+01 -0.31620732509E+02 -0.23492691277E+02  0.40822017670E+02  0.41800000000E+01 0.  1.
         -5    1    3    3    0  502  0.11550619615E+03  0.10400069271E+03 -0.20162953358E+03  0.25461690173E+03  0.41800000000E+01 0.  1.
        -11    1    1    2    0    0 -0.87777399717E+02 -0.91433904830E+02 -0.21354815268E+03  0.24833011168E+03  0.00000000000E+00 0.  1.
         11    1    1    2    0    0 -0.37587166424E+02  0.19053944625E+02 -0.95136213786E+02  0.10405165572E+03  0.00000000000E+00 0. -1.
</event>
<event>
 7    1  0.5939205E-006  0.1828268E+03  0.7561462E-02  0.1165095E+00
         -2   -1    0    0    0  501 -0.00000000000E+00  0.00000000000E+00  0.12449323290E+03  0.12449323290E+03  0.00000000000E+00 0.  1.
          2   -1    0    0  501    0  0.00000000000E+00 -0.00000000000E+00 -0.29304492647E+03  0.29304492647E+03  0.00000000000E+00 0. -1.
         23    2    1    2    0    0  0.14762774681E+03 -0.38060021965E+02 -0.58850572262E+02  0.20579978241E+03  0.12509054195E+03 0.  0.
          5    1    3    3  502    0  0.16264894713E+02 -0.50234609549E+02  0.14339107680E+02  0.54873902774E+02  0.41800000000E+01 0.  1.
         -5    1    3    3    0  502  0.13136285210E+03  0.12174587584E+02 -0.73189679943E+02  0.15092587964E+03  0.41800000000E+01 0.  1.
        -11    1    1    2    0    0 -0.11171141486E+01  0.34112082079E+02 -0.26458346849E+02  0.43184791371E+02  0.00000000000E+00 0. -1.
         11    1    1    2    0    0 -0.14651063266E+03  0.39479398862E+01 -0.83242774457E+02  0.16855358558E+03  0.00000000000E+00 0.  1.
</event>
<event>
 7    1  0.5109948E-006  0.1607061E+03  0.7561462E-02  0.1187902E+00
         -2   -1    0    0    0  501 -0.00000000000E+00  0.00000000000E+00  0.35936775005E+03  0.35936775005E+03  0.00000000000E+00 0.  1.
          2   -1    0    0  501    0  0.00000000000E+00 -0.00000000000E+00 -0.10023480380E+03  0.10023480380E+03  0.00000000000E+00 0. -1.
         23    2    1    2    0    0  0.10052667335E+03  0.73967276089E+02  0.24823747197E+03  0.30470510241E+03  0.12508631805E+03 0.  0.
          5    1    3    3  502    0  0.53125440361E+02 -0.25102958784E+02  0.13299512216E+03  0.14545668039E+03  0.41800000000E+01 0. -1.
         -5    1    3    3    0  502  0.47401232989E+02  0.99070234874E+02  0.11524234981E+03  0.15924842202E+03  0.41800000000E+01 0. -1.
        -11    1    1    2    0    0 -0.64291334541E+02 -0.91911276737E+02 -0.28168266954E+01  0.11220068182E+03  0.00000000000E+00 0. -1.
         11    1    1    2    0    0 -0.36235338809E+02  0.17944000648E+02  0.13712300978E+02  0.42696769620E+02  0.00000000000E+00 0.  1.
</event>
<event>
 7    1  0.5109948E-006  0.1130365E+03  0.7561462E-02  0.1255048E+00
         -1   -1    0    0    0  501 -0.00000000000E+00  0.00000000000E+00  0.37446472492E+02  0.37446472492E+02  0.00000000000E+00 0.  1.
          1   -1    0    0  501    0  0.00000000000E+00 -0.00000000000E+00 -0.60509895267E+03  0.60509895267E+03  0.00000000000E+00 0. -1.
         23    2    1    2    0    0  0.85114989803E+02  0.10723304871E+02 -0.18177643902E+03  0.23674638198E+03  0.12508646945E+03 0.  0.
          5    1    3    3  502    0 -0.14248540961E+02 -0.25005594167E+02 -0.32164605008E+01  0.29259505760E+02  0.41800000000E+01 0. -1.
         -5    1    3    3    0  502  0.99363530764E+02  0.35728899038E+02 -0.17855997852E+03  0.20748687622E+03  0.41800000000E+01 0. -1.
        -11    1    1    2    0    0 -0.24909574521E+02  0.11109036122E+02 -0.18675171337E+02  0.33055402143E+02  0.00000000000E+00 0.  1.
         11    1    1    2    0    0 -0.60205415282E+02 -0.21832340993E+02 -0.36720086981E+03  0.37274364104E+03  0.00000000000E+00 0. -1.
</event>
<event>
 7    1  0.5109948E-006  0.8881347E+02  0.7561462E-02  0.1305751E+00
         -2   -1    0    0    0  501 -0.00000000000E+00  0.00000000000E+00  0.22073389075E+02  0.22073389075E+02  0.00000000000E+00 0.  1.
          2   -1    0    0  501    0  0.00000000000E+00 -0.00000000000E+00 -0.66609348459E+03  0.66609348459E+03  0.00000000000E+00 0. -1.
         23    2    1    2    0    0  0.43165196828E+02 -0.20916460198E+02 -0.30985908181E+03  0.33758056596E+03  0.12508898995E+03 0.  0.
          5    1    3    3  502    0  0.13615825802E+02  0.30351947844E+02 -0.25365632256E+03  0.25586252916E+03  0.41800000000E+01 0.  1.
         -5    1    3    3    0  502  0.29549371026E+02 -0.51268408042E+02 -0.56202759249E+02  0.81718036799E+02  0.41800000000E+01 0.  1.
        -11    1    1    2    0    0  0.19482897215E+02  0.58656730160E+01 -0.15773031402E+02  0.25744473649E+02  0.00000000000E+00 0.  1.
         11    1    1    2    0    0 -0.62648094043E+02  0.15050787182E+02 -0.31838798230E+03  0.32484183406E+03  0.00000000000E+00 0. -1.
</event>
<event>
 7    1  0.5109948E-006  0.1382011E+03  0.7561462E-02  0.1215770E+00
         -2   -1    0    0    0  501 -0.00000000000E+00  0.00000000000E+00  0.12711225455E+04  0.12711225455E+04  0.00000000000E+00 0. -1.
          2   -1    0    0  501    0  0.00000000000E+00 -0.00000000000E+00 -0.30950295556E+02  0.30950295556E+02  0.00000000000E+00 0.  1.
         23    2    1    2    0    0  0.36249892959E+01  0.10871503534E+03  0.10598978370E+04  0.10727810222E+04  0.12507436732E+03 0.  0.
          5    1    3    3  502    0  0.46636001678E+02  0.72511554073E+02  0.88082325682E+03  0.88504232909E+03  0.41800000000E+01 0.  1.
         -5    1    3    3    0  502 -0.43011012383E+02  0.36203481262E+02  0.17907458018E+03  0.18773869316E+03  0.41800000000E+01 0.  1.
        -11    1    1    2    0    0  0.32880183240E+02 -0.82380249235E+02  0.15244165420E+03  0.17636912952E+03  0.00000000000E+00 0. -1.
         11    1    1    2    0    0 -0.36505172536E+02 -0.26334786100E+02  0.27832758727E+02  0.52922689266E+02  0.00000000000E+00 0.  1.
</event>
<event>
 7    1  0.5109948E-006  0.8537669E+02  0.7561462E-02  0.1314450E+00
         -1   -1    0    0    0  501 -0.00000000000E+00  0.00000000000E+00  0.19206668681E+03  0.19206668681E+03  0.00000000000E+00 0.  1.
          1   -1    0    0  501    0  0.00000000000E+00 -0.00000000000E+00 -0.77477239171E+02  0.77477239171E+02  0.00000000000E+00 0. -1.
         23    2    1    2    0    0  0.55376284433E+02 -0.13357488200E+02  0.63198913674E+02  0.15127971539E+03  0.12508594737E+03 0.  0.
          5    1    3    3  502    0  0.45933884844E+02  0.22373543620E+02  0.91270618202E+02  0.10468187703E+03  0.41800000000E+01 0.  1.
         -5    1    3    3    0  502  0.94423995888E+01 -0.35731031820E+02 -0.28071704528E+02  0.46597838362E+02  0.41800000000E+01 0.  1.
        -11    1    1    2    0    0 -0.49794477944E+02 -0.16086155587E+02  0.66566976771E+02  0.84672408916E+02  0.00000000000E+00 0.  1.
         11    1    1    2    0    0 -0.55818064881E+01  0.29443643788E+02 -0.15176442810E+02  0.33591801671E+02  0.00000000000E+00 0. -1.
</event>
<event>
 7    1  0.5109948E-006  0.9989733E+02  0.7561462E-02  0.1280512E+00
         -1   -1    0    0    0  501 -0.00000000000E+00  0.00000000000E+00  0.22122456960E+02  0.22122456960E+02  0.00000000000E+00 0.  1.
          1   -1    0    0  501    0  0.00000000000E+00 -0.00000000000E+00 -0.78779253513E+03  0.78779253513E+03  0.00000000000E+00 0. -1.
         23    2    1    2    0    0 -0.57920201443E+02  0.48424543387E+02 -0.43038182690E+03  0.45451230328E+03  0.12511287209E+03 0.  0.
          5    1    3    3  502    0  0.40583613591E+01  0.31676946934E+02 -0.35034565231E+03  0.35182303472E+03  0.41800000000E+01 0.  1.
         -5    1    3    3    0  502 -0.61978562802E+02  0.16747596453E+02 -0.80036174591E+02  0.10268926856E+03  0.41800000000E+01 0.  1.
        -11    1    1    2    0    0  0.24835240476E+02 -0.62530953202E+02 -0.12402439536E+03  0.14109911382E+03  0.00000000000E+00 0.  1.
         11    1    1    2    0    0  0.33084960967E+02  0.14106409815E+02 -0.21126385591E+03  0.21430357499E+03  0.00000000000E+00 0. -1.
</event>
<event>
 7    1  0.5109948E-006  0.1354489E+03  0.7561462E-02  0.1219587E+00
         -3   -1    0    0    0  501 -0.00000000000E+00  0.00000000000E+00  0.60259374051E+02  0.60259374051E+02  0.00000000000E+00 0.  1.
          3   -1    0    0  501    0  0.00000000000E+00 -0.00000000000E+00 -0.39545957096E+03  0.39545957096E+03  0.00000000000E+00 0. -1.
         23    2    1    2    0    0 -0.39288904547E+02  0.77309297665E+02 -0.84287111314E+02  0.17402840221E+03  0.12514480460E+03 0.  0.
          5    1    3    3  502    0 -0.55514613599E+02  0.10111058951E+03 -0.87363610740E+02  0.14475875281E+03  0.41800000000E+01 0. -1.
         -5    1    3    3    0  502  0.16225709052E+02 -0.23801291841E+02  0.30764994261E+01  0.29269649405E+02  0.41800000000E+01 0. -1.
        -11    1    1    2    0    0  0.69550488851E+02 -0.50681318129E+02 -0.14855136186E+03  0.17167811048E+03  0.00000000000E+00 0.  1.
         11    1    1    2    0    0 -0.30261584303E+02 -0.26627979535E+02 -0.10236172373E+03  0.11001243232E+03  0.00000000000E+00 0. -1.
</event>
<event>
 7    1  0.5109948E-006  0.4037278E+03  0.7561462E-02  0.1042496E+00
         -2   -1    0    0    0  501 -0.00000000000E+00  0.00000000000E+00  0.16771540505E+03  0.16771540505E+03  0.00000000000E+00 0.  1.
          2   -1    0    0  501    0  0.00000000000E+00 -0.00000000000E+00 -0.10486913858E+04  0.10486913858E+04  0.00000000000E+00 0. -1.
         23    2    1    2    0    0 -0.39045972368E+03  0.14367890474E+02 -0.29208762520E+03  0.50361576461E+03  0.12509366680E+03 0.  0.
          5    1    3    3  502    0 -0.14416487272E+03  0.64842872487E+02 -0.12699682016E+03  0.20281462809E+03  0.41800000000E+01 0.  1.
         -5    1    3    3    0  502 -0.24629485096E+03 -0.50474982013E+02 -0.16509080504E+03  0.30080113652E+03  0.41800000000E+01 0.  1.
        -11    1    1    2    0    0  0.14504637092E+03  0.30953883810E+02 -0.17404488402E+03  0.22866616342E+03  0.00000000000E+00 0. -1.
         11    1    1    2    0    0  0.24541335277E+03 -0.45321774284E+02 -0.41484347156E+03  0.48412486286E+03  0.00000000000E+00 0.  1.
</event>
<event>
 7    1  0.5109948E-006  0.1302500E+03  0.7561462E-02  0.1227085E+00
         -1   -1    0    0    0  501 -0.00000000000E+00  0.00000000000E+00  0.37745356172E+03  0.37745356172E+03  0.00000000000E+00 0.  1.
          1   -1    0    0  501    0  0.00000000000E+00 -0.00000000000E+00 -0.47988122781E+02  0.47988122781E+02  0.00000000000E+00 0. -1.
         23    2    1    2    0    0 -0.79606229248E+02 -0.10062313121E+02  0.18040744435E+03  0.23373365352E+03  0.12508466306E+03 0.  0.
          5    1    3    3  502    0 -0.83090299555E+02  0.38333585752E+02  0.15167182793E+03  0.17718712556E+03  0.41800000000E+01 0.  1.
         -5    1    3    3    0  502  0.34840703073E+01 -0.48395898873E+02  0.28735616415E+02  0.56546527961E+02  0.41800000000E+01 0.  1.
        -11    1    1    2    0    0 -0.11570482257E+02  0.25240131028E+02  0.40905394690E+02  0.49438766052E+02  0.00000000000E+00 0.  1.
         11    1    1    2    0    0  0.91176711504E+02 -0.15177817907E+02  0.10815259990E+03  0.14226926492E+03  0.00000000000E+00 0. -1.
</event>
<event>
 7    1  0.5109948E-006  0.9908046E+02  0.7561462E-02  0.1282242E+00
         -1   -1    0    0    0  501 -0.00000000000E+00  0.00000000000E+00  0.10054248659E+03  0.10054248659E+03  0.00000000000E+00 0.  1.
          1   -1    0    0  501    0  0.00000000000E+00 -0.00000000000E+00 -0.13045784352E+03  0.13045784352E+03  0.00000000000E+00 0. -1.
         23    2    1    2    0    0 -0.32894194847E+02 -0.19099398196E+02 -0.17399465404E+02  0.13189675474E+03  0.12508875828E+03 0.  0.
          5    1    3    3  502    0 -0.72976620368E+02 -0.20839356767E+02  0.18132335936E+02  0.78141665693E+02  0.41800000000E+01 0.  1.
         -5    1    3    3    0  502  0.40082425520E+02  0.17399585704E+01 -0.35531801341E+02  0.53755089042E+02  0.41800000000E+01 0.  1.
        -11    1    1    2    0    0  0.22397449046E+01 -0.26650464929E+02 -0.31066644405E+02  0.40992683893E+02  0.00000000000E+00 0. -1.
         11    1    1    2    0    0  0.30654449943E+02  0.45749863125E+02  0.18550752876E+02  0.58110891488E+02  0.00000000000E+00 0.  1.
</event>
<event>
 7    1  0.5109948E-006  0.1526548E+03  0.7561462E-02  0.1197248E+00
         -2   -1    0    0    0  501 -0.00000000000E+00  0.00000000000E+00  0.34892992622E+02  0.34892992622E+02  0.00000000000E+00 0.  1.
          2   -1    0    0  501    0  0.00000000000E+00 -0.00000000000E+00 -0.88373317387E+03  0.88373317387E+03  0.00000000000E+00 0. -1.
         23    2    1    2    0    0  0.12535253908E+03 -0.53709317718E+02 -0.40070070762E+03  0.44136953403E+03  0.12509220045E+03 0.  0.
          5    1    3    3  502    0  0.10300473495E+03 -0.11106286197E+02 -0.36974854190E+03  0.38401143428E+03  0.41800000000E+01 0. -1.
         -5    1    3    3    0  502  0.22347804130E+02 -0.42603031521E+02 -0.30952165719E+02  0.57358099750E+02  0.41800000000E+01 0. -1.
        -11    1    1    2    0    0 -0.52543701322E+02  0.60590780096E+02 -0.14797422903E+03  0.16831059277E+03  0.00000000000E+00 0. -1.
         11    1    1    2    0    0 -0.72808837762E+02 -0.68814623775E+01 -0.30016524460E+03  0.30894603970E+03  0.00000000000E+00 0.  1.
</event>
<event>
 7    1  0.5109948E-006  0.1458706E+03  0.7561462E-02  0.1205641E+00
          2   -1    0    0  501    0  0.00000000000E+00  0.00000000000E+00  0.90956266009E+03  0.90956266009E+03  0.00000000000E+00 0. -1.
         -2   -1    0    0    0  501 -0.00000000000E+00 -0.00000000000E+00 -0.24299891594E+02  0.24299891594E+02  0.00000000000E+00 0.  1.
         23    2    1    2    0    0 -0.96876520057E+02 -0.28458396316E+02  0.46233014955E+03  0.48948116642E+03  0.12509078558E+03 0.  0.
          5    1    3    3  502    0 -0.57034332738E+02  0.47853007841E+02  0.21341133406E+03  0.22606347643E+03  0.41800000000E+01 0. -1.
         -5    1    3    3    0  502 -0.39842187319E+02 -0.76311404157E+02  0.24891881550E+03  0.26341769000E+03  0.41800000000E+01 0. -1.
        -11    1    1    2    0    0 -0.66641738269E+01  0.26607028136E+02  0.14950271500E+03  0.15199804917E+03  0.00000000000E+00 0. -1.
         11    1    1    2    0    0  0.10354069388E+03  0.18513681800E+01  0.27342990395E+03  0.29238333610E+03  0.00000000000E+00 0.  1.
</event>
<event>
 7    1  0.5109948E-006  0.7376117E+02  0.7561462E-02  0.1347751E+00
         -2   -1    0    0    0  501 -0.00000000000E+00  0.00000000000E+00  0.11900852542E+04  0.11900852542E+04  0.00000000000E+00 0.  1.
          2   -1    0    0  501    0  0.00000000000E+00 -0.00000000000E+00 -0.13919168928E+02  0.13919168928E+02  0.00000000000E+00 0. -1.
         23    2    1    2    0    0  0.83347702338E+01  0.25151176018E+02  0.96780378825E+03  0.97476539249E+03  0.11323139052E+03 0.  0.
          5    1    3    3  502    0 -0.14374874964E+02  0.25616301315E+02  0.62686178146E+02  0.69353163257E+02  0.41800000000E+01 0. -1.
         -5    1    3    3    0  502  0.22709645198E+02 -0.46512529662E+00  0.90511761011E+03  0.90541222924E+03  0.41800000000E+01 0.  1.
        -11    1    1    2    0    0  0.21703558929E+02 -0.50809964109E+02  0.13601041064E+03  0.14680438932E+03  0.00000000000E+00 0.  1.
         11    1    1    2    0    0 -0.30038329163E+02  0.25658788091E+02  0.72351886402E+02  0.82434641329E+02  0.00000000000E+00 0. -1.
</event>
<event>
 7    1  0.5109948E-006  0.1775172E+03  0.7561462E-02  0.1170228E+00
         -1   -1    0    0    0  501 -0.00000000000E+00  0.00000000000E+00  0.25345461778E+03  0.25345461778E+03  0.00000000000E+00 0.  1.
          1   -1    0    0  501    0  0.00000000000E+00 -0.00000000000E+00 -0.13757377329E+03  0.13757377329E+03  0.00000000000E+00 0. -1.
         23    2    1    2    0    0 -0.15178342632E+03  0.55276662548E+01  0.65274846739E+02  0.20716188528E+03  0.12484581489E+03 0.  0.
          5    1    3    3  502    0  0.71083672685E+01 -0.31721905552E+02  0.16989001577E+02  0.36917566979E+02  0.41800000000E+01 0. -1.
         -5    1    3    3    0  502 -0.15889179359E+03  0.37249571807E+02  0.48285845163E+02  0.17024431830E+03  0.41800000000E+01 0. -1.
        -11    1    1    2    0    0  0.59267480642E+02 -0.25230241511E+02 -0.18155573868E+02  0.66924018191E+02  0.00000000000E+00 0. -1.
         11    1    1    2    0    0  0.92515945680E+02  0.19702575256E+02  0.68761571616E+02  0.11694248761E+03  0.00000000000E+00 0.  1.
</event>
<event>
 7    1  0.5109948E-006  0.1783105E+03  0.7561462E-02  0.1169448E+00
          1   -1    0    0  501    0  0.00000000000E+00  0.00000000000E+00  0.30635382932E+03  0.30635382932E+03  0.00000000000E+00 0. -1.
         -1   -1    0    0    0  501 -0.00000000000E+00 -0.00000000000E+00 -0.11558432721E+03  0.11558432721E+03  0.00000000000E+00 0.  1.
         23    2    1    2    0    0  0.10097888303E+02  0.15158439349E+03  0.78696360950E+02  0.21193864924E+03  0.12508028668E+03 0.  0.
          5    1    3    3  502    0 -0.18902721825E+01 -0.20431984713E+02 -0.28774182106E+01  0.21137432762E+02  0.41800000000E+01 0. -1.
         -5    1    3    3    0  502  0.11988160486E+02  0.17201637820E+03  0.81573779160E+02  0.19080121648E+03  0.41800000000E+01 0. -1.
        -11    1    1    2    0    0 -0.32473141177E+02 -0.12111946185E+03  0.45410591823E+02  0.13336622806E+03  0.00000000000E+00 0. -1.
         11    1    1    2    0    0  0.22375252874E+02 -0.30464931644E+02  0.66662549339E+02  0.76633279230E+02  0.00000000000E+00 0.  1.
</event>
<event>
 7    1  0.5109948E-006  0.2079382E+03  0.7561462E-02  0.1143209E+00
          1   -1    0    0  501    0  0.00000000000E+00  0.00000000000E+00  0.73002497462E+03  0.73002497462E+03  0.00000000000E+00 0. -1.
         -1   -1    0    0    0  501 -0.00000000000E+00 -0.00000000000E+00 -0.61910031875E+02  0.61910031875E+02  0.00000000000E+00 0.  1.
         23    2    1    2    0    0 -0.11507865453E+03 -0.15223042358E+03  0.36994830244E+03  0.43465638664E+03  0.12508888588E+03 0.  0.
          5    1    3    3  502    0 -0.12740852664E+03 -0.88953839395E+02  0.20325360575E+03  0.25588125929E+03  0.41800000000E+01 0. -1.
         -5    1    3    3    0  502  0.12329872111E+02 -0.63276584186E+02  0.16669469669E+03  0.17877512735E+03  0.41800000000E+01 0. -1.
        -11    1    1    2    0    0  0.10264312437E+03  0.10439266540E+03  0.23786250133E+03  0.27930629980E+03  0.00000000000E+00 0.  1.
         11    1    1    2    0    0  0.12435530160E+02  0.47837758179E+02  0.60304138969E+02  0.77972320055E+02  0.00000000000E+00 0. -1.
</event>
<event>
 7    1  0.5109948E-006  0.1518892E+03  0.7561462E-02  0.1198171E+00
          1   -1    0    0  501    0  0.00000000000E+00  0.00000000000E+00  0.33862983254E+03  0.33862983254E+03  0.00000000000E+00 0. -1.
         -1   -1    0    0    0  501 -0.00000000000E+00 -0.00000000000E+00 -0.91235251047E+02  0.91235251047E+02  0.00000000000E+00 0.  1.
         23    2    1    2    0    0  0.10382496890E+03 -0.85526436848E+02  0.93361535762E+02  0.20605373294E+03  0.12508944372E+03 0.  0.
          5    1    3    3  502    0  0.57721232269E+01 -0.25319170481E+02  0.86834623220E+02  0.90730931827E+02  0.41800000000E+01 0.  1.
         -5    1    3    3    0  502  0.98052845676E+02 -0.60207266367E+02  0.65269125425E+01  0.11532280111E+03  0.41800000000E+01 0.  1.
        -11    1    1    2    0    0 -0.19409073406E+02  0.74759191686E+02  0.70913171570E+02  0.10485383529E+03  0.00000000000E+00 0. -1.
         11    1    1    2    0    0 -0.84415895497E+02  0.10767245162E+02  0.83119874161E+02  0.11895751536E+03  0.00000000000E+00 0.  1.
</event>
<event>
 7    1  0.5109948E-006  0.1006655E+03  0.7561462E-02  0.1278903E+00
          3   -1    0    0  501    0  0.00000000000E+00  0.00000000000E+00  0.48098319858E+03  0.48098319858E+03  0.00000000000E+00 0. -1.
         -3   -1    0    0    0  501 -0.00000000000E+00 -0.00000000000E+00 -0.25939519169E+02  0.25939519169E+02  0.00000000000E+00 0.  1.
         23    2    1    2    0    0  0.41562457653E+02  0.85724647415E+01  0.24505607400E+03  0.27839040296E+03  0.12509121480E+03 0.  0.
          5    1    3    3  502    0  0.53772578098E+02  0.48734306323E+02  0.21399502701E+03  0.22600412995E+03  0.41800000000E+01 0. -1.
         -5    1    3    3    0  502 -0.12210120446E+02 -0.40161841582E+02  0.31061046986E+02  0.52386273015E+02  0.41800000000E+01 0. -1.
        -11    1    1    2    0    0  0.16119287801E+02  0.16939834291E+02  0.31514062086E+02  0.39241884947E+02  0.00000000000E+00 0. -1.
         11    1    1    2    0    0 -0.57681745454E+02 -0.25512299033E+02  0.17847354333E+03  0.18929042984E+03  0.00000000000E+00 0.  1.
</event>
<event>
 7    1  0.5109948E-006  0.2057449E+03  0.7561462E-02  0.1144981E+00
         -4   -1    0    0    0  501 -0.00000000000E+00  0.00000000000E+00  0.65109253161E+02  0.65109253161E+02  0.00000000000E+00 0.  1.
          4   -1    0    0  501    0  0.00000000000E+00 -0.00000000000E+00 -0.80970410030E+03  0.80970410030E+03  0.00000000000E+00 0. -1.
         23    2    1    2    0    0  0.18253474726E+03  0.37090010157E+02 -0.34049050694E+03  0.40776965188E+03  0.12509077050E+03 0.  0.
          5    1    3    3  502    0  0.99799172969E+02  0.11428181164E+02 -0.29108709175E+03  0.30796046115E+03  0.41800000000E+01 0. -1.
         -5    1    3    3    0  502  0.82735574294E+02  0.25661828993E+02 -0.49403415192E+02  0.99809190728E+02  0.41800000000E+01 0. -1.
        -11    1    1    2    0    0 -0.17605432951E+03  0.10338459180E+02 -0.36447179596E+03  0.40489714833E+03  0.00000000000E+00 0. -1.
         11    1    1    2    0    0 -0.64804177508E+01 -0.47428469337E+02 -0.39632544240E+02  0.62146553250E+02  0.00000000000E+00 0.  1.
</event>
<event>
 7    1  0.5109948E-006  0.7685417E+02  0.7561462E-02  0.1338224E+00
          1   -1    0    0  501    0  0.00000000000E+00  0.00000000000E+00  0.45345426251E+02  0.45345426251E+02  0.00000000000E+00 0. -1.
         -1   -1    0    0    0  501 -0.00000000000E+00 -0.00000000000E+00 -0.29337199937E+03  0.29337199937E+03  0.00000000000E+00 0.  1.
         23    2    1    2    0    0  0.14433378005E+02  0.24742322894E+02 -0.18221618650E+03  0.22286926730E+03  0.12508983468E+03 0.  0.
          5    1    3    3  502    0  0.21694651732E+01  0.60400538962E+02 -0.17373276583E+03  0.18399314664E+03  0.41800000000E+01 0.  1.
         -5    1    3    3    0  502  0.12263912832E+02 -0.35658216068E+02 -0.84834206628E+01  0.38876120656E+02  0.41800000000E+01 0.  1.
        -11    1    1    2    0    0 -0.31443347379E+02 -0.10980696025E+02  0.11706179197E+02  0.35302895221E+02  0.00000000000E+00 0. -1.
         11    1    1    2    0    0  0.17009969373E+02 -0.13761626868E+02 -0.77516565817E+02  0.80545263102E+02  0.00000000000E+00 0.  1.
</event>
<event>
 7    1  0.5109948E-006  0.8208543E+02  0.7561462E-02  0.1323235E+00
          2   -1    0    0  501    0  0.00000000000E+00  0.00000000000E+00  0.41734414274E+02  0.41734414274E+02  0.00000000000E+00 0.  1.
         -2   -1    0    0    0  501 -0.00000000000E+00 -0.00000000000E+00 -0.57466453119E+03  0.57466453119E+03  0.00000000000E+00 0. -1.
         23    2    1    2    0    0  0.95348316588E+01  0.21906244115E+02 -0.50618693907E+03  0.52196047932E+03  0.12508688236E+03 0.  0.
          5    1    3    3  502    0  0.44235089613E+02  0.40630177426E+02 -0.12529495050E+03  0.13901025679E+03  0.41800000000E+01 0. -1.
         -5    1    3    3    0  502 -0.34700257954E+02 -0.18723933311E+02 -0.38089198857E+03  0.38295022254E+03  0.41800000000E+01 0. -1.
        -11    1    1    2    0    0 -0.21703784020E+02  0.14382935259E+02  0.20855405458E+02  0.33359721286E+02  0.00000000000E+00 0.  1.
         11    1    1    2    0    0  0.12168952362E+02 -0.36289179373E+02 -0.47598583305E+02  0.61078744861E+02  0.00000000000E+00 0. -1.
</event>
<event>
 7    1  0.5109948E-006  0.1047997E+03  0.7561462E-02  0.1270515E+00
          1   -1    0    0  501    0  0.00000000000E+00  0.00000000000E+00  0.28361870774E+03  0.28361870774E+03  0.00000000000E+00 0. -1.
         -1   -1    0    0    0  501 -0.00000000000E+00 -0.00000000000E+00 -0.92497869088E+02  0.92497869088E+02  0.00000000000E+00 0.  1.
         23    2    1    2    0    0 -0.83928848770E+02  0.23207576134E+02  0.10128183271E+02  0.15274967722E+03  0.12508893055E+03 0.  0.
          5    1    3    3  502    0 -0.62848120241E+02 -0.22075089507E+02  0.54221301417E+02  0.85991963124E+02  0.41800000000E+01 0.  1.
         -5    1    3    3    0  502 -0.21080728529E+02  0.45282665641E+02 -0.44093118146E+02  0.66757714091E+02  0.41800000000E+01 0.  1.
        -11    1    1    2    0    0  0.36934651082E+02 -0.26751044180E+02  0.16856933110E+03  0.17462933947E+03  0.00000000000E+00 0. -1.
         11    1    1    2    0    0  0.46994197688E+02  0.35434680463E+01  0.12423324272E+02  0.48737560137E+02  0.00000000000E+00 0.  1.
</event>
<event>
 7    1  0.5109948E-006  0.7687143E+02  0.7561462E-02  0.1338172E+00
          1   -1    0    0  501    0  0.00000000000E+00  0.00000000000E+00  0.26765594709E+02  0.26765594709E+02  0.00000000000E+00 0. -1.
         -1   -1    0    0    0  501 -0.00000000000E+00 -0.00000000000E+00 -0.48029970759E+03  0.48029970759E+03  0.00000000000E+00 0.  1.
         23    2    1    2    0    0  0.11978937769E+01  0.27268295097E+02 -0.29042563395E+03  0.31739477961E+03  0.12508957751E+03 0.  0.
          5    1    3    3  502    0  0.26585577487E+02  0.11852077736E+01 -0.27710378709E+03  0.27841009117E+03  0.41800000000E+01 0.  1.
         -5    1    3    3    0  502 -0.25387683710E+02  0.26083087324E+02 -0.13321846858E+02  0.38984688433E+02  0.41800000000E+01 0.  1.
        -11    1    1    2    0    0 -0.71005293196E+01 -0.58222939806E+02 -0.13597487917E+03  0.14808611009E+03  0.00000000000E+00 0.  1.
         11    1    1    2    0    0  0.59026355427E+01  0.30954644709E+02 -0.27133599763E+02  0.41584412603E+02  0.00000000000E+00 0. -1.
</event>
<event>
 7    1  0.5109948E-006  0.5258346E+02  0.7561462E-02  0.1431885E+00
          2   -1    0    0  501    0  0.00000000000E+00  0.00000000000E+00  0.30920179676E+02  0.30920179676E+02  0.00000000000E+00 0. -1.
         -2   -1    0    0    0  501 -0.00000000000E+00 -0.00000000000E+00 -0.29185240372E+03  0.29185240372E+03  0.00000000000E+00 0.  1.
         23    2    1    2    0    0 -0.93682014489E+01  0.42539090773E+02 -0.21041994498E+03  0.24863466879E+03  0.12508120497E+03 0.  0.
          5    1    3    3  502    0 -0.80133458442E+01 -0.57104518608E+01 -0.19843805128E+03  0.19872583015E+03  0.41800000000E+01 0. -1.
         -5    1    3    3    0  502 -0.13548556048E+01  0.48249542634E+02 -0.11981893701E+02  0.49908838643E+02  0.41800000000E+01 0. -1.
        -11    1    1    2    0    0  0.13446102080E+02 -0.31086371378E+02 -0.51823979272E+02  0.61910297804E+02  0.00000000000E+00 0.  1.
         11    1    1    2    0    0 -0.40779006310E+01 -0.11452719395E+02  0.13117002117E+01  0.12227616798E+02  0.00000000000E+00 0. -1.
</event>
<event>
 7    1  0.5109948E-006  0.1232723E+03  0.7561462E-02  0.1237794E+00
         -3   -1    0    0    0  501 -0.00000000000E+00  0.00000000000E+00  0.33960393041E+03  0.33960393041E+03  0.00000000000E+00 0.  1.
          3   -1    0    0  501    0  0.00000000000E+00 -0.00000000000E+00 -0.63190744602E+02  0.63190744602E+02  0.00000000000E+00 0. -1.
         23    2    1    2    0    0 -0.69580794899E+02  0.65108370017E+02  0.17848596622E+03  0.23787634589E+03  0.12508928384E+03 0.  0.
          5    1    3    3  502    0 -0.34140974552E+02 -0.19566420160E+02  0.28722951179E+01  0.39675854376E+02  0.41800000000E+01 0. -1.
         -5    1    3    3    0  502 -0.35439820346E+02  0.84674790177E+02  0.17561367110E+03  0.19820049151E+03  0.41800000000E+01 0. -1.
        -11    1    1    2    0    0  0.74413184584E+02 -0.30959560095E+02  0.25227605965E+02  0.84452640597E+02  0.00000000000E+00 0. -1.
         11    1    1    2    0    0 -0.48323896850E+01 -0.34148809922E+02  0.72699613626E+02  0.80465688530E+02  0.00000000000E+00 0.  1.
</event>
<event>
 7    1  0.5109948E-006  0.1507626E+03  0.7561462E-02  0.1199539E+00
         -2   -1    0    0    0  501 -0.00000000000E+00  0.00000000000E+00  0.27070202965E+03  0.27070202965E+03  0.00000000000E+00 0. -1.
          2   -1    0    0  501    0  0.00000000000E+00 -0.00000000000E+00 -0.18260940376E+03  0.18260940376E+03  0.00000000000E+00 0.  1.
         23    2    1    2    0    0 -0.54079867752E+02 -0.96314298894E+02  0.20770662417E+03  0.26643939612E+03  0.12508730475E+03 0.  0.
          5    1    3    3  502    0 -0.89652039788E+02 -0.63430401950E+02  0.17879103715E+03  0.20986808117E+03  0.41800000000E+01 0.  1.
         -5    1    3    3    0  502  0.35572172035E+02 -0.32883896944E+02  0.28915587021E+02  0.56571314942E+02  0.41800000000E+01 0.  1.
        -11    1    1    2    0    0  0.28988596714E+02 -0.12326029596E+02 -0.19684616004E+02  0.37145038057E+02  0.00000000000E+00 0. -1.
         11    1    1    2    0    0  0.25091271038E+02  0.10864032849E+03 -0.99929382276E+02  0.14972699923E+03  0.00000000000E+00 0.  1.
</event>
<event>
 7    1  0.5109948E-006  0.7677381E+02  0.7561462E-02  0.1338464E+00
         -4   -1    0    0    0  501 -0.00000000000E+00  0.00000000000E+00  0.10449065190E+03  0.10449065190E+03  0.00000000000E+00 0.  1.
          4   -1    0    0  501    0  0.00000000000E+00 -0.00000000000E+00 -0.14398848122E+03  0.14398848122E+03  0.00000000000E+00 0. -1.
         23    2    1    2    0    0  0.43336322277E+02  0.27623509556E+02  0.38315960707E+01  0.13529135810E+03  0.12509186760E+03 0.  0.
          5    1    3    3  502    0  0.21592090236E+02 -0.31649675105E+02  0.45424070386E+02  0.59571292293E+02  0.41800000000E+01 0. -1.
         -5    1    3    3    0  502  0.21744232041E+02  0.59273184660E+02 -0.41592474316E+02  0.75720065812E+02  0.41800000000E+01 0. -1.
        -11    1    1    2    0    0 -0.27843388358E+02 -0.14310070515E+02 -0.71695329284E+02  0.78232043528E+02  0.00000000000E+00 0. -1.
         11    1    1    2    0    0 -0.15492933920E+02 -0.13313439041E+02  0.28365903887E+02  0.34955731488E+02  0.00000000000E+00 0.  1.
</event>
<event>
 7    1  0.5109948E-006  0.5829097E+02  0.7561462E-02  0.1405147E+00
         -4   -1    0    0    0  501 -0.00000000000E+00  0.00000000000E+00  0.22093992404E+03  0.22093992404E+03  0.00000000000E+00 0.  1.
          4   -1    0    0  501    0  0.00000000000E+00 -0.00000000000E+00 -0.58705389538E+02  0.58705389538E+02  0.00000000000E+00 0. -1.
         23    2    1    2    0    0 -0.26569691099E+02 -0.88673506716E+01  0.12082641318E+03  0.17615252127E+03  0.12508441243E+03 0.  0.
          5    1    3    3  502    0 -0.29395719063E+02  0.19150714218E+02  0.13830480971E+03  0.14274645685E+03  0.41800000000E+01 0. -1.
         -5    1    3    3    0  502  0.28260279642E+01 -0.28018064890E+02 -0.17478396531E+02  0.33406064413E+02  0.41800000000E+01 0. -1.
        -11    1    1    2    0    0  0.39042251824E+02  0.34862205287E+01 -0.17581046432E+02  0.42959799286E+02  0.00000000000E+00 0. -1.
         11    1    1    2    0    0 -0.12472560725E+02  0.53811301429E+01  0.58989167755E+02  0.60532993030E+02  0.00000000000E+00 0.  1.
</event>
<event>
 7    1  0.5109948E-006  0.1706629E+03  0.7561462E-02  0.1177158E+00
          2   -1    0    0  501    0  0.00000000000E+00  0.00000000000E+00  0.32154866246E+03  0.32154866246E+03  0.00000000000E+00 0. -1.
         -2   -1    0    0    0  501 -0.00000000000E+00 -0.00000000000E+00 -0.11729706687E+03  0.11729706687E+03  0.00000000000E+00 0.  1.
         23    2    1    2    0    0  0.13933143012E+03 -0.24775595967E+02  0.20302271806E+02  0.18995667981E+03  0.12507709778E+03 0.  0.
          5    1    3    3  502    0  0.39586744525E+02 -0.61863515780E+02 -0.19760265756E+02  0.76171815191E+02  0.41800000000E+01 0.  1.
         -5    1    3    3    0  502  0.99744685593E+02  0.37087919813E+02  0.40062537561E+02  0.11378486462E+03  0.41800000000E+01 0.  1.
        -11    1    1    2    0    0 -0.85450114413E+02  0.52883678028E+02  0.79865973198E+02  0.12836268589E+03  0.00000000000E+00 0.  1.
         11    1    1    2    0    0 -0.53881315705E+02 -0.28108082061E+02  0.10408335059E+03  0.12052636363E+03  0.00000000000E+00 0. -1.
</event>
<event>
 7    1  0.5109948E-006  0.1310317E+03  0.7561462E-02  0.1225933E+00
          1   -1    0    0  501    0  0.00000000000E+00  0.00000000000E+00  0.27353990314E+03  0.27353990314E+03  0.00000000000E+00 0. -1.
         -1   -1    0    0    0  501 -0.00000000000E+00 -0.00000000000E+00 -0.12059757689E+03  0.12059757689E+03  0.00000000000E+00 0.  1.
         23    2    1    2    0    0  0.10995820387E+03  0.35844134538E+02 -0.15816679375E+02  0.17110922013E+03  0.12511030847E+03 0.  0.
          5    1    3    3  502    0  0.80059620395E+02  0.35651435190E+02  0.48361928680E+02  0.10018441094E+03  0.41800000000E+01 0. -1.
         -5    1    3    3    0  502  0.29898583473E+02  0.19269934814E+00 -0.64178608055E+02  0.70924809190E+02  0.41800000000E+01 0. -1.
        -11    1    1    2    0    0 -0.11434481111E+03 -0.65694198485E+01  0.11924085058E+03  0.16533684874E+03  0.00000000000E+00 0.  1.
         11    1    1    2    0    0  0.43866072408E+01 -0.29274714690E+02  0.49518155042E+02  0.57691411163E+02  0.00000000000E+00 0. -1.
</event>
<event>
 7    1  0.7389723E-006  0.2542375E+03  0.7561462E-02  0.1110656E+00
          2   -1    0    0  501    0  0.00000000000E+00  0.00000000000E+00  0.26889375678E+03  0.26889375678E+03  0.00000000000E+00 0. -1.
         -2   -1    0    0    0  501 -0.00000000000E+00 -0.00000000000E+00 -0.28566332100E+03  0.28566332100E+03  0.00000000000E+00 0.  1.
         23    2    1    2    0    0 -0.24514636350E+03 -0.66015534670E+02 -0.31863278798E+02  0.28481142195E+03  0.12508991641E+03 0.  0.
          5    1    3    3  502    0 -0.94944523911E+02 -0.18853442357E+02 -0.73848304738E+02  0.12182347648E+03  0.41800000000E+01 0. -1.
         -5    1    3    3    0  502 -0.15020183959E+03 -0.47162092313E+02  0.41985025940E+02  0.16298794547E+03  0.41800000000E+01 0. -1.
        -11    1    1    2    0    0  0.63489310089E+02  0.21917991242E+02  0.44420713977E+02  0.80526335232E+02  0.00000000000E+00 0. -1.
         11    1    1    2    0    0  0.18165705341E+03  0.44097543428E+02 -0.29326999400E+02  0.18921932059E+03  0.00000000000E+00 0.  1.
</event>
<event>
 7    1  0.5109948E-006  0.1738813E+03  0.7561462E-02  0.1173860E+00
          1   -1    0    0  501    0  0.00000000000E+00  0.00000000000E+00  0.26701875152E+03  0.26701875152E+03  0.00000000000E+00 0. -1.
         -1   -1    0    0    0  501 -0.00000000000E+00 -0.00000000000E+00 -0.13199536023E+03  0.13199536023E+03  0.00000000000E+00 0.  1.
         23    2    1    2    0    0 -0.10794556414E+03  0.84385629632E+02 -0.17057937566E+01  0.18553457735E+03  0.12508793048E+03 0.  0.
          5    1    3    3  502    0  0.24817800228E+02  0.35614878443E+02 -0.56858073778E+01  0.43978899261E+02  0.41800000000E+01 0.  1.
         -5    1    3    3    0  502 -0.13276336437E+03  0.48770751190E+02  0.39800136213E+01  0.14155567809E+03  0.41800000000E+01 0.  1.
        -11    1    1    2    0    0  0.10102946388E+03 -0.26623678228E+02  0.10035990268E+03  0.14487195339E+03  0.00000000000E+00 0.  1.
         11    1    1    2    0    0  0.69161002605E+01 -0.57761951405E+02  0.36369282359E+02  0.68607581011E+02  0.00000000000E+00 0. -1.
</event>
<event>
 7    1  0.5109948E-006  0.1133108E+03  0.7561462E-02  0.1254559E+00
         -1   -1    0    0    0  501 -0.00000000000E+00  0.00000000000E+00  0.94526718982E+02  0.94526718982E+02  0.00000000000E+00 0.  1.
          1   -1    0    0  501    0  0.00000000000E+00 -0.00000000000E+00 -0.20237033470E+03  0.20237033470E+03  0.00000000000E+00 0. -1.
         23    2    1    2    0    0 -0.28089469650E+02 -0.74749766607E+02 -0.31139566362E+02  0.15163577459E+03  0.12508872703E+03 0.  0.
          5    1    3    3  502    0 -0.55704066965E+02 -0.61550811696E+02  0.25650543408E+02  0.86987747838E+02  0.41800000000E+01 0.  1.
         -5    1    3    3    0  502  0.27614597314E+02 -0.13198954911E+02 -0.56790109771E+02  0.64648026755E+02  0.41800000000E+01 0.  1.
        -11    1    1    2    0    0  0.30437610849E+02  0.91121897929E+02 -0.38258133269E+02  0.10340857410E+03  0.00000000000E+00 0.  1.
         11    1    1    2    0    0 -0.23481411991E+01 -0.16372131322E+02 -0.38445916085E+02  0.41852704987E+02  0.00000000000E+00 0. -1.
</event>
<event>
 7    1  0.5109948E-006  0.1045316E+03  0.7561462E-02  0.1271045E+00
         -2   -1    0    0    0  501 -0.00000000000E+00  0.00000000000E+00  0.38852660957E+02  0.38852660957E+02  0.00000000000E+00 0.  1.
          2   -1    0    0  501    0  0.00000000000E+00 -0.00000000000E+00 -0.32605405462E+03  0.32605405462E+03  0.00000000000E+00 0. -1.
         23    2    1    2    0    0 -0.20957640737E+02  0.10535999983E+01 -0.12553540356E+03  0.17846077858E+03  0.12509508050E+03 0.  0.
          5    1    3    3  502    0 -0.32392116899E+02  0.53932884056E+02 -0.32940311617E+02  0.71137484839E+02  0.41800000000E+01 0.  1.
         -5    1    3    3    0  502  0.11434476162E+02 -0.52879284058E+02 -0.92595091945E+02  0.10732329374E+03  0.41800000000E+01 0.  1.
        -11    1    1    2    0    0 -0.30825320173E+02 -0.19846134722E+02 -0.50792821771E+02  0.62641680778E+02  0.00000000000E+00 0.  1.
         11    1    1    2    0    0  0.51782960910E+02  0.18792534723E+02 -0.11087316833E+03  0.12380425622E+03  0.00000000000E+00 0. -1.
</event>
<event>
 6    1  0.5109948E-006  0.8818397E+02  0.7561462E-02  0.1307310E+00
         -3   -1    0    0    0  501 -0.00000000000E+00  0.00000000000E+00  0.51747067223E+02  0.51747067223E+02  0.00000000000E+00 0.  1.
          3   -1    0    0  501    0  0.00000000000E+00 -0.00000000000E+00 -0.24824001708E+03  0.24824001708E+03  0.00000000000E+00 0. -1.
          5    1    1    2  502    0 -0.36606593678E+02 -0.59758516315E+02 -0.80147251509E+02  0.10654659684E+03  0.41800000000E+01 0. -1.
         -5    1    1    2    0  502  0.35870279632E+02  0.41250100970E+02 -0.17221804606E+02  0.57465735398E+02  0.41800000000E+01 0.  1.
        -11    1    1    2    0    0 -0.23568203612E+02  0.97436552409E+01 -0.10617365408E+03  0.10919360723E+03  0.00000000000E+00 0. -1.
         11    1    1    2    0    0  0.24304517657E+02  0.87647601042E+01  0.70497603373E+01  0.26781144842E+02  0.00000000000E+00 0.  1.
</event>
<event>
 7    1  0.5109948E-006  0.1047139E+03  0.7561462E-02  0.1270684E+00
         -2   -1    0    0    0  501 -0.00000000000E+00  0.00000000000E+00  0.42315500806E+02  0.42315500806E+02  0.00000000000E+00 0.  1.
          2   -1    0    0  501    0  0.00000000000E+00 -0.00000000000E+00 -0.31883014597E+03  0.31883014597E+03  0.00000000000E+00 0. -1.
         23    2    1    2    0    0  0.17538136371E+02 -0.22432310892E+02 -0.10960931343E+03  0.16873751583E+03  0.12508937948E+03 0.  0.
          5    1    3    3  502    0  0.43463823431E+02  0.40674442854E+02 -0.56489130626E+02  0.82170606226E+02  0.41800000000E+01 0.  1.
         -5    1    3    3    0  502 -0.25925687060E+02 -0.63106753746E+02 -0.53120182800E+02  0.86566909605E+02  0.41800000000E+01 0.  1.
        -11    1    1    2    0    0 -0.47174111641E+02  0.21256252246E+02 -0.50564977781E+02  0.72346679583E+02  0.00000000000E+00 0.  1.
         11    1    1    2    0    0  0.29635975270E+02  0.11760586461E+01 -0.11634035396E+03  0.12006145136E+03  0.00000000000E+00 0. -1.
</event>
<event>
 7    1  0.5109948E-006  0.2400240E+03  0.7561462E-02  0.1119777E+00
          2   -1    0    0  501    0  0.00000000000E+00  0.00000000000E+00  0.73130221172E+03  0.73130221172E+03  0.00000000000E+00 0. -1.
         -2   -1    0    0    0  501 -0.00000000000E+00 -0.00000000000E+00 -0.99043812393E+02  0.99043812393E+02  0.00000000000E+00 0.  1.
         23    2    1    2    0    0 -0.14696726223E+03 -0.17051387904E+03  0.17131110651E+03  0.30930547100E+03  0.12509204636E+03 0.  0.
          5    1    3    3  502    0  0.67826307311E+01 -0.64037601872E+02  0.16807417212E+02  0.66684182581E+02  0.41800000000E+01 0. -1.
         -5    1    3    3    0  502 -0.15374989296E+03 -0.10647627716E+03  0.15450368930E+03  0.24262128842E+03  0.41800000000E+01 0. -1.
        -11    1    1    2    0    0  0.14594050321E+03  0.15496518938E+03  0.45817948763E+03  0.50521409648E+03  0.00000000000E+00 0. -1.
         11    1    1    2    0    0  0.10267590270E+01  0.15548689658E+02  0.27678051846E+01  0.15826456638E+02  0.00000000000E+00 0.  1.
</event>
<event>
 6    1  0.5109948E-006  0.1209703E+03  0.7561462E-02  0.1241505E+00
         -4   -1    0    0    0  501 -0.00000000000E+00  0.00000000000E+00  0.98725467683E+02  0.98725467683E+02  0.00000000000E+00 0.  1.
          4   -1    0    0  501    0  0.00000000000E+00 -0.00000000000E+00 -0.20590652127E+03  0.20590652127E+03  0.00000000000E+00 0. -1.
          5    1    1    2  502    0 -0.35164079754E+02  0.92012901764E+02 -0.80489922437E+01  0.98919893207E+02  0.41800000000E+01 0. -1.
         -5    1    1    2    0  502  0.27402975252E+02 -0.47251308944E+02  0.88011506136E+01  0.55484609593E+02  0.41800000000E+01 0.  1.
        -11    1    1    2    0    0 -0.32361668854E+02 -0.34184957771E+02 -0.96211891064E+02  0.10711030264E+03  0.00000000000E+00 0. -1.
         11    1    1    2    0    0  0.40122773356E+02 -0.10576635049E+02 -0.11721320891E+02  0.43117183514E+02  0.00000000000E+00 0.  1.
</event>
<event>
 7    1  0.5109948E-006  0.1252158E+03  0.7561462E-02  0.1234732E+00
         -4   -1    0    0    0  501 -0.00000000000E+00  0.00000000000E+00  0.55336876114E+02  0.55336876114E+02  0.00000000000E+00 0.  1.
          4   -1    0    0  501    0  0.00000000000E+00 -0.00000000000E+00 -0.44565565740E+03  0.44565565740E+03  0.00000000000E+00 0. -1.
         23    2    1    2    0    0  0.75771398564E+02  0.73964579515E+02 -0.27759106558E+03  0.32236062041E+03  0.12508999174E+03 0.  0.
          5    1    3    3  502    0  0.95239253789E+01 -0.28184639796E+01 -0.18394791078E+03  0.18426327679E+03  0.41800000000E+01 0. -1.
         -5    1    3    3    0  502  0.66247473185E+02  0.76783043495E+02 -0.93643154806E+02  0.13809734362E+03  0.41800000000E+01 0. -1.
        -11    1    1    2    0    0  0.20402795038E+02 -0.10669712747E+02 -0.24157338900E+02  0.33372051752E+02  0.00000000000E+00 0. -1.
         11    1    1    2    0    0 -0.96174193602E+02 -0.63294866768E+02 -0.88570376801E+02  0.14525986135E+03  0.00000000000E+00 0.  1.
</event>
<event>
 7    1  0.5109948E-006  0.1365960E+03  0.7561462E-02  0.1217984E+00
         -2   -1    0    0    0  501 -0.00000000000E+00  0.00000000000E+00  0.12069705060E+03  0.12069705060E+03  0.00000000000E+00 0.  1.
          2   -1    0    0  501    0  0.00000000000E+00 -0.00000000000E+00 -0.19823287518E+03  0.19823287518E+03  0.00000000000E+00 0. -1.
         23    2    1    2    0    0  0.76113712065E+02  0.76514902677E+02 -0.19669874838E+02  0.16638266990E+03  0.12509381028E+03 0.  0.
          5    1    3    3  502    0  0.88352629141E+02  0.92521326602E+02 -0.43228507481E+02  0.13510203259E+03  0.41800000000E+01 0. -1.
         -5    1    3    3    0  502 -0.12238917076E+02 -0.16006423925E+02  0.23558632643E+02  0.31280637302E+02  0.41800000000E+01 0. -1.
        -11    1    1    2    0    0 -0.62999763402E+02 -0.19262028244E+02  0.55471772726E+01  0.66111777290E+02  0.00000000000E+00 0.  1.
         11    1    1    2    0    0 -0.13113948663E+02 -0.57252874433E+02 -0.63413127014E+02  0.86435478584E+02  0.00000000000E+00 0. -1.
</event>
<event>
 7    1  0.5109948E-006  0.1629481E+03  0.7561462E-02  0.1185408E+00
         -1   -1    0    0    0  501 -0.00000000000E+00  0.00000000000E+00  0.19082588749E+03  0.19082588749E+03  0.00000000000E+00 0.  1.
          1   -1    0    0  501    0  0.00000000000E+00 -0.00000000000E+00 -0.14886426332E+03  0.14886426332E+03  0.00000000000E+00 0. -1.
         23    2    1    2    0    0  0.81881214240E+02  0.96986901831E+02  0.43883374215E+02  0.18353337729E+03  0.12509099757E+03 0.  0.
          5    1    3    3  502    0  0.30403717257E+02  0.11745244743E+03  0.19868264347E+02  0.12301090911E+03  0.41800000000E+01 0.  1.
         -5    1    3    3    0  502  0.51477496983E+02 -0.20465545603E+02  0.24015109868E+02  0.60522468179E+02  0.41800000000E+01 0.  1.
        -11    1    1    2    0    0 -0.97316628109E+02 -0.87206551758E+02 -0.17886773155E+02  0.13189179440E+03  0.00000000000E+00 0.  1.
         11    1    1    2    0    0  0.15435413869E+02 -0.97803500729E+01  0.15965023107E+02  0.24264979120E+02  0.00000000000E+00 0. -1.
</event>
<event>
 7    1  0.5588535E-006  0.1560252E+03  0.7561462E-02  0.1193259E+00
          2   -1    0    0  501    0  0.00000000000E+00  0.00000000000E+00  0.98716741508E+02  0.98716741508E+02  0.00000000000E+00 0. -1.
         -2   -1    0    0    0  501 -0.00000000000E+00 -0.00000000000E+00 -0.25644060231E+03  0.25644060231E+03  0.00000000000E+00 0.  1.
         23    2    1    2    0    0 -0.11210177939E+03  0.26514836024E+02 -0.97876175688E+02  0.19620762082E+03  0.12509132356E+03 0.  0.
          5    1    3    3  502    0  0.21804234348E+02  0.25868191122E+02 -0.32641268751E+02  0.47196533487E+02  0.41800000000E+01 0. -1.
         -5    1    3    3    0  502 -0.13390601374E+03  0.64664490158E+00 -0.65234906936E+02  0.14901108734E+03  0.41800000000E+01 0. -1.
        -11    1    1    2    0    0  0.39068273777E+02  0.31923967808E+02 -0.54509670476E+01  0.50746258761E+02  0.00000000000E+00 0.  1.
         11    1    1    2    0    0  0.73033505617E+02 -0.58438803832E+02 -0.54396718069E+02  0.10820346424E+03  0.00000000000E+00 0. -1.
</event>
<event>
 7    1  0.5109948E-006  0.1208091E+03  0.7561462E-02  0.1241768E+00
         -3   -1    0    0    0  501 -0.00000000000E+00  0.00000000000E+00  0.29483733133E+02  0.29483733133E+02  0.00000000000E+00 0. -1.
          3   -1    0    0  501    0  0.00000000000E+00 -0.00000000000E+00 -0.59269591356E+03  0.59269591356E+03  0.00000000000E+00 0.  1.
         23    2    1    2    0    0  0.64764756789E+02 -0.43075221694E+02 -0.30808506433E+03  0.34148631873E+03  0.12508617258E+03 0.  0.
          5    1    3    3  502    0  0.30750210556E+02  0.43826133051E+02 -0.10439496297E+03  0.11739712978E+03  0.41800000000E+01 0. -1.
         -5    1    3    3    0  502  0.34014546232E+02 -0.86901354745E+02 -0.20369010135E+03  0.22408918894E+03  0.41800000000E+01 0. -1.
        -11    1    1    2    0    0 -0.57884515400E+02  0.76174664535E+01 -0.22844514653E+03  0.23578767544E+03  0.00000000000E+00 0.  1.
         11    1    1    2    0    0 -0.68802413893E+01  0.35457755241E+02 -0.26681969571E+02  0.44905652523E+02  0.00000000000E+00 0. -1.
</event>
<event>
 7    1  0.5109948E-006  0.8932785E+02  0.7561462E-02  0.1304488E+00
         -1   -1    0    0    0  501 -0.00000000000E+00  0.00000000000E+00  0.45043441514E+03  0.45043441514E+03  0.00000000000E+00 0.  1.
          1   -1    0    0  501    0  0.00000000000E+00 -0.00000000000E+00 -0.29466787060E+02  0.29466787060E+02  0.00000000000E+00 0. -1.
         23    2    1    2    0    0  0.19835143683E+02 -0.31651159846E+02  0.26850533511E+03  0.29800537732E+03  0.12376130690E+03 0.  0.
          5    1    3    3  502    0  0.55326994730E+02 -0.75450187680E+01  0.49311737461E+02  0.74613159064E+02  0.41800000000E+01 0. -1.
         -5    1    3    3    0  502 -0.35491851047E+02 -0.24106141078E+02  0.21919359765E+03  0.22339221826E+03  0.41800000000E+01 0.  1.
        -11    1    1    2    0    0 -0.23459716317E+02 -0.18124496410E+02  0.10555217551E+02  0.31468528363E+02  0.00000000000E+00 0.  1.
         11    1    1    2    0    0  0.36245726336E+01  0.49775656256E+02  0.14190707542E+03  0.15042729651E+03  0.00000000000E+00 0. -1.
</event>
<event>
 7    1  0.5109948E-006  0.1044636E+03  0.7561462E-02  0.1271180E+00
         -1   -1    0    0    0  501 -0.00000000000E+00  0.00000000000E+00  0.19270355765E+02  0.19270355765E+02  0.00000000000E+00 0.  1.
          1   -1    0    0  501    0  0.00000000000E+00 -0.00000000000E+00 -0.98350770331E+03  0.98350770331E+03  0.00000000000E+00 0. -1.
         23    2    1    2    0    0 -0.69464917942E+02 -0.33607543493E+02 -0.39198748091E+03  0.41863657092E+03  0.12509017357E+03 0.  0.
          5    1    3    3  502    0  0.20567117199E+01 -0.18024986060E+02 -0.30194786185E+03  0.30252126183E+03  0.41800000000E+01 0.  1.
         -5    1    3    3    0  502 -0.71521629662E+02 -0.15582557434E+02 -0.90039619057E+02  0.11611530909E+03  0.41800000000E+01 0.  1.
        -11    1    1    2    0    0  0.85866892920E+02  0.75458334632E+01 -0.43860956795E+03  0.44699934675E+03  0.00000000000E+00 0. -1.
         11    1    1    2    0    0 -0.16401974978E+02  0.26061710030E+02 -0.13364029869E+03  0.13714214140E+03  0.00000000000E+00 0.  1.
</event>
<event>
 7    1  0.5109948E-006  0.1265075E+03  0.7561462E-02  0.1232732E+00
          1   -1    0    0  501    0  0.00000000000E+00  0.00000000000E+00  0.49650885156E+03  0.49650885156E+03  0.00000000000E+00 0. -1.
         -1   -1    0    0    0  501 -0.00000000000E+00 -0.00000000000E+00 -0.33139809447E+02  0.33139809447E+02  0.00000000000E+00 0.  1.
         23    2    1    2    0    0 -0.89462177867E+02 -0.14572035795E+02  0.25402489807E+03  0.29730823894E+03  0.12509082543E+03 0.  0.
          5    1    3    3  502    0 -0.10444777288E+03 -0.48568021749E+02  0.20997750744E+03  0.23953332968E+03  0.41800000000E+01 0.  1.
         -5    1    3    3    0  502  0.14985595015E+02  0.33995985954E+02  0.44047390633E+02  0.57774909264E+02  0.41800000000E+01 0.  1.
        -11    1    1    2    0    0  0.30137955521E+02  0.26173514685E+02  0.93780900381E+02  0.10192255153E+03  0.00000000000E+00 0. -1.
         11    1    1    2    0    0  0.59324222346E+02 -0.11601478889E+02  0.11556324366E+03  0.13041787053E+03  0.00000000000E+00 0.  1.
</event>
<event>
 7    1  0.5109948E-006  0.8431969E+02  0.7561462E-02  0.1317221E+00
         -2   -1    0    0    0  501 -0.00000000000E+00  0.00000000000E+00  0.65959154778E+02  0.65959154778E+02  0.00000000000E+00 0.  1.
          2   -1    0    0  501    0  0.00000000000E+00 -0.00000000000E+00 -0.21542037061E+03  0.21542037061E+03  0.00000000000E+00 0. -1.
         23    2    1    2    0    0  0.18070078270E+02 -0.44005283796E+02 -0.81803460216E+02  0.15685278376E+03  0.12509195394E+03 0.  0.
          5    1    3    3  502    0  0.52123845654E+02 -0.29259754687E+02  0.71813914430E+01  0.60349592486E+02  0.41800000000E+01 0.  1.
         -5    1    3    3    0  502 -0.34053767384E+02 -0.14745529109E+02 -0.88984851659E+02  0.96503191276E+02  0.41800000000E+01 0.  1.
        -11    1    1    2    0    0 -0.31128483920E+02  0.66882356895E+01 -0.77499125132E+02  0.83784422204E+02  0.00000000000E+00 0. -1.
         11    1    1    2    0    0  0.13058405650E+02  0.37317048106E+02  0.98413695202E+01  0.40742319418E+02  0.00000000000E+00 0.  1.
</event>
<event>
 7    1  0.5109948E-006  0.1187521E+03  0.7561462E-02  0.1245170E+00
         -1   -1    0    0    0  501 -0.00000000000E+00  0.00000000000E+00  0.47167492438E+02  0.47167492438E+02  0.00000000000E+00 0.  1.
          1   -1    0    0  501    0  0.00000000000E+00 -0.00000000000E+00 -0.46816466171E+03  0.46816466171E+03  0.00000000000E+00 0. -1.
         23    2    1    2    0    0  0.66513307299E+02 -0.12504876077E+02 -0.95376759258E+02  0.17124690209E+03  0.12509349821E+03 0.  0.
          5    1    3    3  502    0  0.62049007885E+02 -0.55243096371E+02 -0.97325083439E+02  0.12802938468E+03  0.41800000000E+01 0. -1.
         -5    1    3    3    0  502  0.44642994141E+01  0.42738220295E+02  0.19483241805E+01  0.43217517401E+02  0.41800000000E+01 0. -1.
        -11    1    1    2    0    0 -0.39144019645E+02 -0.37458643933E+02 -0.15334435444E+03  0.16263423784E+03  0.00000000000E+00 0.  1.
         11    1    1    2    0    0 -0.27369287654E+02  0.49963520010E+02 -0.17227605557E+03  0.18145101422E+03  0.00000000000E+00 0. -1.
</event>
<event>
 6    1  0.5109948E-006  0.1169583E+03  0.7561462E-02  0.1248201E+00
         -1   -1    0    0    0  501 -0.00000000000E+00  0.00000000000E+00  0.56529277432E+03  0.56529277432E+03  0.00000000000E+00 0.  1.
          1   -1    0    0  501    0  0.00000000000E+00 -0.00000000000E+00 -0.86797956125E+02  0.86797956125E+02  0.00000000000E+00 0. -1.
          5    1    1    2  502    0 -0.53382201098E+02 -0.63634557358E+02  0.19166072425E+03  0.20892659454E+03  0.41800000000E+01 0. -1.
         -5    1    1    2    0  502  0.45188901896E+02  0.37748315866E+02  0.33222904728E+03  0.33743234057E+03  0.41800000000E+01 0.  1.
        -11    1    1    2    0    0  0.34489567587E+02 -0.19239941269E+02 -0.52154839729E+01  0.39835999868E+02  0.00000000000E+00 0.  1.
         11    1    1    2    0    0 -0.26296268386E+02  0.45126182761E+02 -0.40179469367E+02  0.65895795467E+02  0.00000000000E+00 0. -1.
</event>
<event>
 7    1  0.5109948E-006  0.9734056E+02  0.7561462E-02  0.1285990E+00
         -2   -1    0    0    0  501 -0.00000000000E+00  0.00000000000E+00  0.48110221448E+02  0.48110221448E+02  0.00000000000E+00 0.  1.
          2   -1    0    0  501    0  0.00000000000E+00 -0.00000000000E+00 -0.31955899114E+03  0.31955899114E+03  0.00000000000E+00 0. -1.
         23    2    1    2    0    0 -0.83252205306E+02  0.35137434990E+01 -0.16359449076E+03  0.22215913770E+03  0.12509296134E+03 0.  0.
          5    1    3    3  502    0 -0.77744880852E+02  0.28809295561E+02 -0.17490039176E+03  0.19360232811E+03  0.41800000000E+01 0. -1.
         -5    1    3    3    0  502 -0.55073244543E+01 -0.25295552062E+02  0.11305901006E+02  0.28556809596E+02  0.41800000000E+01 0. -1.
        -11    1    1    2    0    0  0.50382459821E+02 -0.11361779471E+02 -0.27887193973E+02  0.58695637641E+02  0.00000000000E+00 0.  1.
         11    1    1    2    0    0  0.32869745485E+02  0.78480359719E+01 -0.79967084958E+02  0.86814437242E+02  0.00000000000E+00 0. -1.
</event>
<event>
 7    1  0.5109948E-006  0.1385486E+03  0.7561462E-02  0.1215295E+00
         -1   -1    0    0    0  501 -0.00000000000E+00  0.00000000000E+00  0.73066717286E+03  0.73066717286E+03  0.00000000000E+00 0.  1.
          1   -1    0    0  501    0  0.00000000000E+00 -0.00000000000E+00 -0.33747217330E+02  0.33747217330E+02  0.00000000000E+00 0. -1.
         23    2    1    2    0    0  0.10200061414E+03  0.16310794721E+02  0.48938993058E+03  0.51556736136E+03  0.12504812130E+03 0.  0.
          5    1    3    3  502    0  0.87608155345E+00  0.51492109219E+02  0.11357632242E+03  0.12477683377E+03  0.41800000000E+01 0.  1.
         -5    1    3    3    0  502  0.10112453259E+03 -0.35181314498E+02  0.37581360815E+03  0.39079052759E+03  0.41800000000E+01 0.  1.
        -11    1    1    2    0    0 -0.62407840418E+02 -0.38066017510E+02  0.18383072644E+03  0.19783198987E+03  0.00000000000E+00 0.  1.
         11    1    1    2    0    0 -0.39592773722E+02  0.21755222789E+02  0.23699298519E+02  0.51015038959E+02  0.00000000000E+00 0. -1.
</event>
<event>
 7    1  0.5109948E-006  0.1024742E+03  0.7561462E-02  0.1275177E+00
          2   -1    0    0  501    0  0.00000000000E+00  0.00000000000E+00  0.10706373314E+03  0.10706373314E+03  0.00000000000E+00 0. -1.
         -2   -1    0    0    0  501 -0.00000000000E+00 -0.00000000000E+00 -0.11282237223E+03  0.11282237223E+03  0.00000000000E+00 0.  1.
         23    2    1    2    0    0 -0.15926914919E+01  0.14937211102E+02 -0.14994068329E+02  0.12687852137E+03  0.12509068774E+03 0.  0.
          5    1    3    3  502    0 -0.62267369595E+02  0.66170113550E+01  0.32450960214E+01  0.62841174430E+02  0.41800000000E+01 0. -1.
         -5    1    3    3    0  502  0.60674678103E+02  0.83201997474E+01 -0.18239164351E+02  0.64037346939E+02  0.41800000000E+01 0. -1.
        -11    1    1    2    0    0 -0.34241111180E+02 -0.26341778477E+02  0.27490328825E+02  0.51206065726E+02  0.00000000000E+00 0. -1.
         11    1    1    2    0    0  0.35833802672E+02  0.11404567375E+02 -0.18254899592E+02  0.41801518275E+02  0.00000000000E+00 0.  1.
</event>
<event>
 7    1  0.5109948E-006  0.1117548E+03  0.7561462E-02  0.1257354E+00
          2   -1    0    0  501    0  0.00000000000E+00  0.00000000000E+00  0.59327802224E+02  0.59327802224E+02  0.00000000000E+00 0. -1.
         -2   -1    0    0    0  501 -0.00000000000E+00 -0.00000000000E+00 -0.23806414371E+03  0.23806414371E+03  0.00000000000E+00 0.  1.
         23    2    1    2    0    0  0.11766204721E+02 -0.22085099743E+01 -0.13249678290E+03  0.18261119177E+03  0.12509248096E+03 0.  0.
          5    1    3    3  502    0 -0.53389073158E+02 -0.17109269779E+02 -0.78666123400E+02  0.96689976812E+02  0.41800000000E+01 0.  1.
         -5    1    3    3    0  502  0.65155277879E+02  0.14900759805E+02 -0.53830659496E+02  0.85921214959E+02  0.41800000000E+01 0.  1.
        -11    1    1    2    0    0 -0.46999149209E+02 -0.27310462863E+02 -0.41860499494E+02  0.68608183376E+02  0.00000000000E+00 0.  1.
         11    1    1    2    0    0  0.35232944489E+02  0.29518972838E+02 -0.43790590969E+01  0.46172570790E+02  0.00000000000E+00 0. -1.
</event>
<event>
 7    1  0.5109948E-006  0.8281476E+02  0.7561462E-02  0.1321248E+00
         -2   -1    0    0    0  501 -0.00000000000E+00  0.00000000000E+00  0.43453192242E+02  0.43453192242E+02  0.00000000000E+00 0.  1.
          2   -1    0    0  501    0  0.00000000000E+00 -0.00000000000E+00 -0.38689866837E+03  0.38689866837E+03  0.00000000000E+00 0. -1.
         23    2    1    2    0    0 -0.49782582758E+02  0.50686362069E+02 -0.17564672502E+03  0.22703325998E+03  0.12507963975E+03 0.  0.
          5    1    3    3  502    0 -0.55885687203E+02  0.16020729946E+02 -0.18192613205E+03  0.19103524216E+03  0.41800000000E+01 0. -1.
         -5    1    3    3    0  502  0.61031044457E+01  0.34665632124E+02  0.62794070327E+01  0.35998017822E+02  0.41800000000E+01 0. -1.
        -11    1    1    2    0    0  0.35497538350E+02 -0.42709378363E+02 -0.17632850690E+03  0.18486727286E+03  0.00000000000E+00 0. -1.
         11    1    1    2    0    0  0.14285044408E+02 -0.79769837063E+01  0.85297557908E+01  0.18451327774E+02  0.00000000000E+00 0.  1.
</event>
<event>
 7    1  0.5109948E-006  0.1567188E+03  0.7561462E-02  0.1192452E+00
         -2   -1    0    0    0  501 -0.00000000000E+00  0.00000000000E+00  0.19261010090E+03  0.19261010090E+03  0.00000000000E+00 0. -1.
          2   -1    0    0  501    0  0.00000000000E+00 -0.00000000000E+00 -0.16273758140E+03  0.16273758140E+03  0.00000000000E+00 0.  1.
         23    2    1    2    0    0  0.11454092974E+03  0.65055526543E+02  0.62133153040E+02  0.19198275350E+03  0.12507998567E+03 0.  0.
          5    1    3    3  502    0 -0.97449330760E+01  0.16905214935E+02 -0.25524676012E+02  0.32399560154E+02  0.41800000000E+01 0.  1.
         -5    1    3    3    0  502  0.12428586282E+03  0.48150311608E+02  0.87657829052E+02  0.15958319335E+03  0.41800000000E+01 0.  1.
        -11    1    1    2    0    0 -0.87573778156E+02  0.22708310778E+01 -0.16416724243E+02  0.89128178088E+02  0.00000000000E+00 0.  1.
         11    1    1    2    0    0 -0.26967151585E+02 -0.67326357621E+02 -0.15843909301E+02  0.74236750718E+02  0.00000000000E+00 0. -1.
</event>
<event>
 7    1  0.5109948E-006  0.9952587E+02  0.7561462E-02  0.1281296E+00
         -1   -1    0    0    0  501 -0.00000000000E+00  0.00000000000E+00  0.15278907685E+02  0.15278907685E+02  0.00000000000E+00 0.  1.
          1   -1    0    0  501    0  0.00000000000E+00 -0.00000000000E+00 -0.82076027062E+03  0.82076027062E+03  0.00000000000E+00 0. -1.
         23    2    1    2    0    0 -0.22984743416E+02  0.41780114076E+01 -0.40725809798E+03  0.42667319668E+03  0.12508039090E+03 0.  0.
          5    1    3    3  502    0 -0.53723335926E+02 -0.27071015084E+02 -0.10386759207E+03  0.12010406223E+03  0.41800000000E+01 0. -1.
         -5    1    3    3    0  502  0.30738592510E+02  0.31249026492E+02 -0.30339050591E+03  0.30656913445E+03  0.41800000000E+01 0. -1.
        -11    1    1    2    0    0  0.58054907247E+02 -0.10732577186E+02 -0.23708311018E+03  0.24432347739E+03  0.00000000000E+00 0.  1.
         11    1    1    2    0    0 -0.35070163831E+02  0.65545657789E+01 -0.16114015477E+03  0.16504250424E+03  0.00000000000E+00 0. -1.
</event>
<event>
 7    1  0.5109948E-006  0.1078615E+03  0.7561462E-02  0.1264582E+00
         -3   -1    0    0    0  501 -0.00000000000E+00  0.00000000000E+00  0.73906144278E+02  0.73906144278E+02  0.00000000000E+00 0.  1.
          3   -1    0    0  501    0  0.00000000000E+00 -0.00000000000E+00 -0.19544825909E+03  0.19544825909E+03  0.00000000000E+00 0. -1.
         23    2    1    2    0    0  0.27785995195E+02 -0.21160783238E+02 -0.84805445450E+02  0.14335985925E+03  0.11018278173E+03 0.  0.
          5    1    3    3  502    0 -0.28892341650E+02  0.95522233098E+01  0.66130189781E+01  0.31420006305E+02  0.41800000000E+01 0. -1.
         -5    1    3    3    0  502  0.56678336845E+02 -0.30713006548E+02 -0.91418464428E+02  0.11193985294E+03  0.41800000000E+01 0.  1.
        -11    1    1    2    0    0 -0.46631442511E+02  0.60736431427E+02 -0.25983152404E+02  0.80861175740E+02  0.00000000000E+00 0.  1.
         11    1    1    2    0    0  0.18845447316E+02 -0.39575648189E+02 -0.10753516957E+02  0.45133368378E+02  0.00000000000E+00 0. -1.
</event>
<event>
 7    1  0.5109948E-006  0.1966178E+03  0.7561462E-02  0.1152624E+00
         -2   -1    0    0    0  501 -0.00000000000E+00  0.00000000000E+00  0.37724974231E+02  0.37724974231E+02  0.00000000000E+00 0.  1.
          2   -1    0    0  501    0  0.00000000000E+00 -0.00000000000E+00 -0.11313995985E+04  0.11313995985E+04  0.00000000000E+00 0. -1.
         23    2    1    2    0    0  0.13661240519E+03 -0.10566306298E+03 -0.48252667338E+03  0.52754799171E+03  0.12508901191E+03 0.  0.
          5    1    3    3  502    0  0.35634610971E+02 -0.93051625629E+02 -0.32505990973E+03  0.34001448182E+03  0.41800000000E+01 0.  1.
         -5    1    3    3    0  502  0.10097779422E+03 -0.12611437355E+02 -0.15746676365E+03  0.18753350989E+03  0.41800000000E+01 0.  1.
        -11    1    1    2    0    0 -0.24594756150E+02  0.69852483303E+02 -0.29829142773E+03  0.30734678672E+03  0.00000000000E+00 0.  1.
         11    1    1    2    0    0 -0.11201764904E+03  0.35810579681E+02 -0.31285652321E+03  0.33422979434E+03  0.00000000000E+00 0. -1.
</event>
<event>
 7    1  0.5109948E-006  0.8077740E+02  0.7561462E-02  0.1326860E+00
         -1   -1    0    0    0  501 -0.00000000000E+00  0.00000000000E+00  0.24288222029E+03  0.24288222029E+03  0.00000000000E+00 0.  1.
          1   -1    0    0  501    0  0.00000000000E+00 -0.00000000000E+00 -0.59455493148E+02  0.59455493148E+02  0.00000000000E+00 0. -1.
         23    2    1    2    0    0 -0.87410770488E+01 -0.72918265725E+01  0.16860472537E+03  0.21024634474E+03  0.12508555032E+03 0.  0.
          5    1    3    3  502    0 -0.51590948393E+02  0.34816345887E+01  0.15556912399E+03  0.16399076948E+03  0.41800000000E+01 0. -1.
         -5    1    3    3    0  502  0.42849871344E+02 -0.10773461161E+02  0.13035601377E+02  0.46255575262E+02  0.41800000000E+01 0. -1.
        -11    1    1    2    0    0  0.19046317776E+02  0.32720171686E+02 -0.23797331426E+02  0.44717835804E+02  0.00000000000E+00 0. -1.
         11    1    1    2    0    0 -0.10305240727E+02 -0.25428345113E+02  0.38619333200E+02  0.47373532890E+02  0.00000000000E+00 0.  1.
</event>
<event>
 7    1  0.1075560E-005  0.4571425E+02  0.7561462E-02  0.1469931E+00
         -2   -1    0    0    0  501 -0.00000000000E+00  0.00000000000E+00  0.16583454608E+02  0.16583454608E+02  0.00000000000E+00 0.  1.
          2   -1    0    0  501    0  0.00000000000E+00 -0.00000000000E+00 -0.34786893607E+03  0.34786893607E+03  0.00000000000E+00 0. -1.
         23    2    1    2    0    0  0.12385215091E+02 -0.26354868612E+02 -0.23060458504E+03  0.25944454822E+03  0.11526068848E+03 0.  0.
          5    1    3    3  502    0  0.29921932405E+02 -0.30799116328E+02 -0.23615604148E+03  0.24006469114E+03  0.41800000000E+01 0. -1.
         -5    1    3    3    0  502 -0.17536717315E+02  0.44442477161E+01  0.55514564397E+01  0.19379857082E+02  0.41800000000E+01 0.  1.
        -11    1    1    2    0    0 -0.16984454675E+01  0.10245077789E+02 -0.30891272636E+02  0.32590137480E+02  0.00000000000E+00 0.  1.
         11    1    1    2    0    0 -0.10686769623E+02  0.16109790824E+02 -0.69789623784E+02  0.72417704971E+02  0.00000000000E+00 0. -1.
</event>
<event>
 7    1  0.5109948E-006  0.9497860E+02  0.7561462E-02  0.1291224E+00
         -2   -1    0    0    0  501 -0.00000000000E+00  0.00000000000E+00  0.10200261812E+03  0.10200261812E+03  0.00000000000E+00 0.  1.
          2   -1    0    0  501    0  0.00000000000E+00 -0.00000000000E+00 -0.14875152269E+03  0.14875152269E+03  0.00000000000E+00 0. -1.
         23    2    1    2    0    0  0.15541309572E+02  0.20648422715E+02  0.27537710596E+02  0.13067997162E+03  0.12510411589E+03 0.  0.
          5    1    3    3  502    0 -0.19938142358E+02  0.48603818564E+02  0.56181749179E+02  0.77030656498E+02  0.41800000000E+01 0.  1.
         -5    1    3    3    0  502  0.35479451931E+02 -0.27955395849E+02 -0.28644038583E+02  0.53649315119E+02  0.41800000000E+01 0.  1.
        -11    1    1    2    0    0 -0.51566467457E+02 -0.21475229648E+02 -0.58015658060E+02  0.80536343563E+02  0.00000000000E+00 0. -1.
         11    1    1    2    0    0  0.36025157885E+02  0.82680693236E+00 -0.16270957106E+02  0.39537825629E+02  0.00000000000E+00 0.  1.
</event>
<event>
 7    1  0.5109948E-006  0.1383478E+03  0.7561462E-02  0.1215570E+00
         -2   -1    0    0    0  501 -0.00000000000E+00  0.00000000000E+00  0.83783633902E+02  0.83783633902E+02  0.00000000000E+00 0.  1.
          2   -1    0    0  501    0  0.00000000000E+00 -0.00000000000E+00 -0.26373182554E+03  0.26373182554E+03  0.00000000000E+00 0. -1.
         23    2    1    2    0    0 -0.26869912839E+02  0.90145931297E+02 -0.53782225013E+02  0.16543233718E+03  0.12500819697E+03 0.  0.
          5    1    3    3  502    0  0.14306962235E+02 -0.23180541510E+02  0.95566319441E+01  0.29168961023E+02  0.41800000000E+01 0.  1.
         -5    1    3    3    0  502 -0.41176875074E+02  0.11332647281E+03 -0.63338856957E+02  0.13626337615E+03  0.41800000000E+01 0.  1.
        -11    1    1    2    0    0  0.38680106076E+02 -0.11339888080E+01 -0.56279352940E+02  0.68299356542E+02  0.00000000000E+00 0. -1.
         11    1    1    2    0    0 -0.11810193237E+02 -0.89011942489E+02 -0.69886613684E+02  0.11378376572E+03  0.00000000000E+00 0.  1.
</event>
<event>
 7    1  0.6941909E-006  0.2085372E+03  0.7561462E-02  0.1142730E+00
         -2   -1    0    0    0  501 -0.00000000000E+00  0.00000000000E+00  0.11265162702E+03  0.11265162702E+03  0.00000000000E+00 0.  1.
          2   -1    0    0  501    0  0.00000000000E+00 -0.00000000000E+00 -0.49952703147E+03  0.49952703147E+03  0.00000000000E+00 0. -1.
         23    2    1    2    0    0 -0.14842683349E+03 -0.12302799646E+03 -0.90133226965E+02  0.24685660174E+03  0.12509104847E+03 0.  0.
          5    1    3    3  502    0 -0.37210256980E+02  0.19896515769E+02 -0.41418445359E+02  0.59274232009E+02  0.41800000000E+01 0. -1.
         -5    1    3    3    0  502 -0.11121657651E+03 -0.14292451223E+03 -0.48714781606E+02  0.18758236973E+03  0.41800000000E+01 0. -1.
        -11    1    1    2    0    0  0.90045269866E+02  0.63767260512E+02 -0.89720563591E+02  0.14221179160E+03  0.00000000000E+00 0.  1.
         11    1    1    2    0    0  0.58381563625E+02  0.59260735953E+02 -0.20702161390E+03  0.22311026515E+03  0.00000000000E+00 0. -1.
</event>
<event>
 7    1  0.5109948E-006  0.4776679E+02  0.7561462E-02  0.1457773E+00
         -3   -1    0    0    0  501 -0.00000000000E+00  0.00000000000E+00  0.80415561287E+02  0.80415561287E+02  0.00000000000E+00 0. -1.
          3   -1    0    0  501    0  0.00000000000E+00 -0.00000000000E+00 -0.16899960941E+03  0.16899960941E+03  0.00000000000E+00 0.  1.
         23    2    1    2    0    0  0.30903329867E+02 -0.48799144360E+01 -0.14458138008E+02  0.12975810613E+03  0.12509715820E+03 0.  0.
          5    1    3    3  502    0  0.23861819556E+02 -0.88724290063E+01 -0.69413486803E+02  0.74052758079E+02  0.41800000000E+01 0. -1.
         -5    1    3    3    0  502  0.70415103111E+01  0.39925145703E+01  0.54955348795E+02  0.55705348049E+02  0.41800000000E+01 0. -1.
        -11    1    1    2    0    0 -0.25116215568E+01  0.25444146851E+02  0.10818886686E+02  0.27762585632E+02  0.00000000000E+00 0. -1.
         11    1    1    2    0    0 -0.28391708310E+02 -0.20564232415E+02 -0.84944796801E+02  0.91894478937E+02  0.00000000000E+00 0.  1.
</event>
<event>
 7    1  0.5109948E-006  0.6423647E+02  0.7561462E-02  0.1380867E+00
          2   -1    0    0  501    0  0.00000000000E+00  0.00000000000E+00  0.15403246114E+03  0.15403246114E+03  0.00000000000E+00 0.  1.
         -2   -1    0    0    0  501 -0.00000000000E+00 -0.00000000000E+00 -0.84350366610E+02  0.84350366610E+02  0.00000000000E+00 0. -1.
         23    2    1    2    0    0  0.19260677481E+02  0.23327182235E+02  0.35867068166E+02  0.13360283275E+03  0.12509252261E+03 0.  0.
          5    1    3    3  502    0  0.15079219248E+02  0.13814353968E+02 -0.46241271294E+02  0.50734079272E+02  0.41800000000E+01 0. -1.
         -5    1    3    3    0  502  0.41814582333E+01  0.95128282663E+01  0.82108339460E+02  0.82868753481E+02  0.41800000000E+01 0. -1.
        -11    1    1    2    0    0  0.27032989595E+02  0.19501160061E+02  0.24120156083E+00  0.33333705890E+02  0.00000000000E+00 0.  1.
         11    1    1    2    0    0 -0.46293667076E+02 -0.42828342295E+02  0.33573824800E+02  0.71446289105E+02  0.00000000000E+00 0. -1.
</event>
<event>
 7    1  0.5109948E-006  0.8983917E+02  0.7561462E-02  0.1303242E+00
         -1   -1    0    0    0  501 -0.00000000000E+00  0.00000000000E+00  0.42813544568E+03  0.42813544568E+03  0.00000000000E+00 0.  1.
          1   -1    0    0  501    0  0.00000000000E+00 -0.00000000000E+00 -0.45413913208E+02  0.45413913208E+02  0.00000000000E+00 0. -1.
         23    2    1    2    0    0  0.33503051095E+02 -0.61810702065E+02  0.30840429522E+03  0.34015293957E+03  0.12509114942E+03 0.  0.
          5    1    3    3  502    0 -0.95578777761E+01 -0.46260881985E+01  0.24247743812E+03  0.24274582204E+03  0.41800000000E+01 0.  1.
         -5    1    3    3    0  502  0.43060928872E+02 -0.57184613867E+02  0.65926857097E+02  0.97407117528E+02  0.41800000000E+01 0.  1.
        -11    1    1    2    0    0 -0.53821202922E+02  0.43351867243E+02  0.19049436037E+02  0.71686730228E+02  0.00000000000E+00 0. -1.
         11    1    1    2    0    0  0.20318151826E+02  0.18458834822E+02  0.55267801219E+02  0.61709689095E+02  0.00000000000E+00 0.  1.
</event>
<event>
 7    1  0.5109948E-006  0.1750476E+03  0.7561462E-02  0.1172684E+00
          2   -1    0    0  501    0  0.00000000000E+00  0.00000000000E+00  0.61402226733E+03  0.61402226733E+03  0.00000000000E+00 0. -1.
         -2   -1    0    0    0  501 -0.00000000000E+00 -0.00000000000E+00 -0.57195793473E+02  0.57195793473E+02  0.00000000000E+00 0.  1.
         23    2    1    2    0    0 -0.12187918108E+03 -0.72498876109E+02  0.19344809764E+03  0.27051781242E+03  0.12508836292E+03 0.  0.
          5    1    3    3  502    0 -0.30398547708E+02  0.32303566284E+02  0.21994012851E+02  0.49687031495E+02  0.41800000000E+01 0.  1.
         -5    1    3    3    0  502 -0.91480633368E+02 -0.10480244239E+03  0.17145408479E+03  0.22083078092E+03  0.41800000000E+01 0.  1.
        -11    1    1    2    0    0  0.52476118592E+02  0.80928478006E+02  0.17587831054E+03  0.20058998403E+03  0.00000000000E+00 0.  1.
         11    1    1    2    0    0  0.69403062485E+02 -0.84296018976E+01  0.18750006569E+03  0.20011026436E+03  0.00000000000E+00 0. -1.
</event>
<event>
 7    1  0.5109948E-006  0.9511905E+02  0.7561462E-02  0.1290908E+00
         -1   -1    0    0    0  501 -0.00000000000E+00  0.00000000000E+00  0.10145950030E+03  0.10145950030E+03  0.00000000000E+00 0.  1.
          1   -1    0    0  501    0  0.00000000000E+00 -0.00000000000E+00 -0.19810269105E+03  0.19810269105E+03  0.00000000000E+00 0. -1.
         23    2    1    2    0    0 -0.79984907935E+02  0.14841955989E+02 -0.11117418838E+02  0.14962834688E+03  0.12508867268E+03 0.  0.
          5    1    3    3  502    0 -0.54603061404E+02  0.28993840808E+02  0.51433662823E+02  0.80529691362E+02  0.41800000000E+01 0. -1.
         -5    1    3    3    0  502 -0.25381846531E+02 -0.14151884819E+02 -0.62551081662E+02  0.69098655517E+02  0.41800000000E+01 0. -1.
        -11    1    1    2    0    0  0.86114241587E+01 -0.25348450809E+02  0.11407875212E+02  0.29100518919E+02  0.00000000000E+00 0.  1.
         11    1    1    2    0    0  0.71373483776E+02  0.10506494820E+02 -0.96933647123E+02  0.12083332555E+03  0.00000000000E+00 0. -1.
</event>
<event>
 7    1  0.5109948E-006  0.3096778E+03  0.7561462E-02  0.1080500E+00
         -1   -1    0    0    0  501 -0.00000000000E+00  0.00000000000E+00  0.23508974825E+03  0.23508974825E+03  0.00000000000E+00 0.  1.
          1   -1    0    0  501    0  0.00000000000E+00 -0.00000000000E+00 -0.43728816402E+03  0.43728816402E+03  0.00000000000E+00 0. -1.
         23    2    1    2    0    0  0.12827628960E+03 -0.26901299645E+03 -0.14762788103E+03  0.35534692118E+03  0.12511852141E+03 0.  0.
          5    1    3    3  502    0  0.10573779892E+02 -0.10668105787E+03 -0.10539125725E+03  0.15039096527E+03  0.41800000000E+01 0. -1.
         -5    1    3    3    0  502  0.11770250971E+03 -0.16233193858E+03 -0.42236623782E+02  0.20495595591E+03  0.41800000000E+01 0. -1.
        -11    1    1    2    0    0 -0.91702350694E+02  0.88884953208E+02 -0.33449150113E+02  0.13201780817E+03  0.00000000000E+00 0. -1.
         11    1    1    2    0    0 -0.36573938907E+02  0.18012804324E+03 -0.21121384622E+02  0.18501318293E+03  0.00000000000E+00 0.  1.
</event>
<event>
 7    1  0.5109948E-006  0.1066987E+03  0.7561462E-02  0.1266808E+00
          1   -1    0    0  501    0  0.00000000000E+00  0.00000000000E+00  0.58509678263E+02  0.58509678263E+02  0.00000000000E+00 0. -1.
         -1   -1    0    0    0  501 -0.00000000000E+00 -0.00000000000E+00 -0.28234674327E+03  0.28234674327E+03  0.00000000000E+00 0.  1.
         23    2    1    2    0    0  0.47113599012E+02  0.40967585201E+02 -0.16098050537E+03  0.21321340004E+03  0.12508875488E+03 0.  0.
          5    1    3    3  502    0 -0.19494827805E+02  0.64770105904E+02 -0.92533589350E+02  0.11469591313E+03  0.41800000000E+01 0.  1.
         -5    1    3    3    0  502  0.66608426816E+02 -0.23802520703E+02 -0.68446916024E+02  0.98517486914E+02  0.41800000000E+01 0.  1.
        -11    1    1    2    0    0 -0.50137627827E+01 -0.31137840159E+02 -0.76142089256E+02  0.82415536540E+02  0.00000000000E+00 0.  1.
         11    1    1    2    0    0 -0.42099836229E+02 -0.98297450418E+01  0.13285529619E+02  0.45227484955E+02  0.00000000000E+00 0. -1.
</event>
<event>
 7    1  0.5109948E-006  0.3572541E+03  0.7561462E-02  0.1059676E+00
          2   -1    0    0  501    0  0.00000000000E+00  0.00000000000E+00  0.18060442323E+03  0.18060442323E+03  0.00000000000E+00 0. -1.
         -2   -1    0    0    0  501 -0.00000000000E+00 -0.00000000000E+00 -0.75465965223E+03  0.75465965223E+03  0.00000000000E+00 0.  1.
         23    2    1    2    0    0 -0.20159148021E+03  0.27937889512E+03 -0.40356523670E+03  0.54516513277E+03  0.12509368401E+03 0.  0.
          5    1    3    3  502    0 -0.10813961669E+03  0.56837667421E+02 -0.10442504001E+03  0.16076927106E+03  0.41800000000E+01 0. -1.
         -5    1    3    3    0  502 -0.93451863519E+02  0.22254122770E+03 -0.29914019669E+03  0.38439586171E+03  0.41800000000E+01 0. -1.
        -11    1    1    2    0    0  0.12065411946E+03 -0.21846640114E+03 -0.12045381489E+03  0.27711749582E+03  0.00000000000E+00 0.  1.
         11    1    1    2    0    0  0.80937360751E+02 -0.60912493979E+02 -0.50036177404E+02  0.11298144687E+03  0.00000000000E+00 0. -1.
</event>
<event>
 7    1  0.5109948E-006  0.1137754E+03  0.7561462E-02  0.1253734E+00
         -1   -1    0    0    0  501 -0.00000000000E+00  0.00000000000E+00  0.39693148622E+02  0.39693148622E+02  0.00000000000E+00 0.  1.
          1   -1    0    0  501    0  0.00000000000E+00 -0.00000000000E+00 -0.41820438969E+03  0.41820438969E+03  0.00000000000E+00 0. -1.
         23    2    1    2    0    0  0.35931209187E+02  0.52494906654E+02 -0.17482714015E+03  0.22418397998E+03  0.12508861232E+03 0.  0.
          5    1    3    3  502    0  0.75572523726E+02  0.31318459898E+02 -0.62207285055E+02  0.10285558316E+03  0.41800000000E+01 0. -1.
         -5    1    3    3    0  502 -0.39641314538E+02  0.21176446756E+02 -0.11261985509E+03  0.12132839683E+03  0.41800000000E+01 0. -1.
        -11    1    1    2    0    0 -0.56172930152E+02 -0.15402840648E+02 -0.58688098745E+02  0.82685781826E+02  0.00000000000E+00 0.  1.
         11    1    1    2    0    0  0.20241720965E+02 -0.37092066006E+02 -0.14499600217E+03  0.15102777650E+03  0.00000000000E+00 0. -1.
</event>
<event>
 7    1  0.5109948E-006  0.9713949E+02  0.7561462E-02  0.1286429E+00
          1   -1    0    0  501    0  0.00000000000E+00  0.00000000000E+00  0.44216232927E+03  0.44216232927E+03  0.00000000000E+00 0. -1.
         -1   -1    0    0    0  501 -0.00000000000E+00 -0.00000000000E+00 -0.44493273631E+02  0.44493273631E+02  0.00000000000E+00 0.  1.
         23    2    1    2    0    0 -0.36278081557E+01 -0.77792223415E+02  0.15112965894E+03  0.21107570287E+03  0.12509191626E+03 0.  0.
          5    1    3    3  502    0 -0.22358584122E+02 -0.86440880210E+02  0.16373222530E+03  0.18654127173E+03  0.41800000000E+01 0. -1.
         -5    1    3    3    0  502  0.18730775966E+02  0.86486567953E+01 -0.12602566357E+02  0.24534431141E+02  0.41800000000E+01 0. -1.
        -11    1    1    2    0    0 -0.74563314744E+01  0.69758540489E+02  0.25143684677E+03  0.26104087565E+03  0.00000000000E+00 0. -1.
         11    1    1    2    0    0  0.11084139630E+02  0.80336829254E+01 -0.48974500723E+01  0.14539024379E+02  0.00000000000E+00 0.  1.
</event>
<event>
 7    1  0.5109948E-006  0.1488605E+03  0.7561462E-02  0.1201880E+00
          2   -1    0    0  501    0  0.00000000000E+00  0.00000000000E+00  0.44499101020E+02  0.44499101020E+02  0.00000000000E+00 0. -1.
         -2   -1    0    0    0  501 -0.00000000000E+00 -0.00000000000E+00 -0.63645260218E+03  0.63645260218E+03  0.00000000000E+00 0.  1.
         23    2    1    2    0    0 -0.13497490732E+02  0.12211484131E+03 -0.37812448523E+03  0.41679504624E+03  0.12508304248E+03 0.  0.
          5    1    3    3  502    0  0.32442112170E+02  0.12438950022E+03 -0.29190048274E+03  0.31898056780E+03  0.41800000000E+01 0.  1.
         -5    1    3    3    0  502 -0.45939602903E+02 -0.22746589101E+01 -0.86224002492E+02  0.97814478447E+02  0.41800000000E+01 0.  1.
        -11    1    1    2    0    0  0.10492651874E+02 -0.78374413209E+02 -0.20460512688E+03  0.21935337320E+03  0.00000000000E+00 0.  1.
         11    1    1    2    0    0  0.30048388583E+01 -0.43740428098E+02 -0.92238890515E+01  0.44803283763E+02  0.00000000000E+00 0. -1.
</event>
<event>
 7    1  0.5109948E-006  0.1051087E+03  0.7561462E-02  0.1269906E+00
          1   -1    0    0  501    0  0.00000000000E+00  0.00000000000E+00  0.65731543310E+03  0.65731543310E+03  0.00000000000E+00 0. -1.
         -1   -1    0    0    0  501 -0.00000000000E+00 -0.00000000000E+00 -0.17542771838E+02  0.17542771838E+02  0.00000000000E+00 0.  1.
         23    2    1    2    0    0 -0.41307643187E+01  0.93237378588E+01  0.38626544770E+03  0.40614281514E+03  0.12508794867E+03 0.  0.
          5    1    3    3  502    0 -0.62274646355E+02  0.86711169016E+01  0.25215291547E+03  0.25990745473E+03  0.41800000000E+01 0. -1.
         -5    1    3    3    0  502  0.58143882036E+02  0.65262095722E+00  0.13411253223E+03  0.14623536041E+03  0.41800000000E+01 0. -1.
        -11    1    1    2    0    0  0.10367137820E+02 -0.48317073116E+02  0.13162445194E+03  0.14059521133E+03  0.00000000000E+00 0.  1.
         11    1    1    2    0    0 -0.62363735017E+01  0.38993335258E+02  0.12188276162E+03  0.12812017846E+03  0.00000000000E+00 0. -1.
</event>
<event>
 7    1  0.5109948E-006  0.1310510E+03  0.7561462E-02  0.1225905E+00
          2   -1    0    0  501    0  0.00000000000E+00  0.00000000000E+00  0.29270704460E+03  0.29270704460E+03  0.00000000000E+00 0. -1.
         -2   -1    0    0    0  501 -0.00000000000E+00 -0.00000000000E+00 -0.81308647162E+02  0.81308647162E+02  0.00000000000E+00 0.  1.
         23    2    1    2    0    0 -0.55387845553E+02  0.77762067938E+02  0.48831287492E+02  0.16476250684E+03  0.12508971331E+03 0.  0.
          5    1    3    3  502    0  0.23572396427E+02  0.33675449003E+02 -0.24694862227E+02  0.48135250694E+02  0.41800000000E+01 0. -1.
         -5    1    3    3    0  502 -0.78960241981E+02  0.44086618935E+02  0.73526149719E+02  0.11662725614E+03  0.41800000000E+01 0. -1.
        -11    1    1    2    0    0  0.73383516705E+02 -0.30117363939E+02  0.83230412694E+02  0.11497607461E+03  0.00000000000E+00 0.  1.
         11    1    1    2    0    0 -0.17995671152E+02 -0.47644703999E+02  0.79336697255E+02  0.94277110322E+02  0.00000000000E+00 0. -1.
</event>
<event>
 7    1  0.5109948E-006  0.1177669E+03  0.7561462E-02  0.1246827E+00
         -2   -1    0    0    0  501 -0.00000000000E+00  0.00000000000E+00  0.31995607074E+03  0.31995607074E+03  0.00000000000E+00 0.  1.
          2   -1    0    0  501    0  0.00000000000E+00 -0.00000000000E+00 -0.58835132993E+02  0.58835132993E+02  0.00000000000E+00 0. -1.
         23    2    1    2    0    0 -0.68179567438E+02  0.47650846156E+02  0.12676767279E+03  0.19656259967E+03  0.12509099156E+03 0.  0.
          5    1    3    3  502    0 -0.84995639916E+02  0.49181569203E+02  0.14249940483E+03  0.17310874712E+03  0.41800000000E+01 0. -1.
         -5    1    3    3    0  502  0.16816072478E+02 -0.15307230470E+01 -0.15731732034E+02  0.23453852549E+02  0.41800000000E+01 0. -1.
        -11    1    1    2    0    0  0.10394889235E+02 -0.59888604700E+02  0.47258327040E+02  0.76993819035E+02  0.00000000000E+00 0. -1.
         11    1    1    2    0    0  0.57784678202E+02  0.12237758543E+02  0.87094937912E+02  0.10523478502E+03  0.00000000000E+00 0.  1.
</event>
<event>
 7    1  0.5109948E-006  0.8798495E+02  0.7561462E-02  0.1307806E+00
          1   -1    0    0  501    0  0.00000000000E+00  0.00000000000E+00  0.68014458566E+03  0.68014458566E+03  0.00000000000E+00 0. -1.
         -1   -1    0    0    0  501 -0.00000000000E+00 -0.00000000000E+00 -0.23826953310E+02  0.23826953310E+02  0.00000000000E+00 0.  1.
         23    2    1    2    0    0  0.61467416498E+02  0.21578936286E+02  0.30200979593E+03  0.33331866473E+03  0.12509005413E+03 0.  0.
          5    1    3    3  502    0  0.53478399287E+02  0.47970637295E+01  0.30852081147E+03  0.31318607012E+03  0.41800000000E+01 0. -1.
         -5    1    3    3    0  502  0.79890172110E+01  0.16781872557E+02 -0.65110155370E+01  0.20132594613E+02  0.41800000000E+01 0. -1.
        -11    1    1    2    0    0 -0.53488675335E+01  0.27802254979E+02  0.51652939170E+02  0.58903326652E+02  0.00000000000E+00 0.  1.
         11    1    1    2    0    0 -0.56118548965E+02 -0.49381191265E+02  0.30265489725E+03  0.31174954758E+03  0.00000000000E+00 0. -1.
</event>
<event>
 7    1  0.5109948E-006  0.1232543E+03  0.7561462E-02  0.1237823E+00
         -3   -1    0    0    0  501 -0.00000000000E+00  0.00000000000E+00  0.57510359909E+03  0.57510359909E+03  0.00000000000E+00 0.  1.
          3   -1    0    0  501    0  0.00000000000E+00 -0.00000000000E+00 -0.38930627822E+02  0.38930627822E+02  0.00000000000E+00 0. -1.
         23    2    1    2    0    0  0.88332613740E+02  0.76248657114E+00  0.39949747202E+03  0.42784270247E+03  0.12509162988E+03 0.  0.
          5    1    3    3  502    0  0.52910336167E+02 -0.58615941365E+02  0.26514543769E+03  0.27668557567E+03  0.41800000000E+01 0. -1.
         -5    1    3    3    0  502  0.35422277573E+02  0.59378427936E+02  0.13435203434E+03  0.15115712680E+03  0.41800000000E+01 0. -1.
        -11    1    1    2    0    0 -0.55451791807E+02  0.20375820837E+02  0.13466152460E+03  0.14705033661E+03  0.00000000000E+00 0.  1.
         11    1    1    2    0    0 -0.32880821933E+02 -0.21138307408E+02  0.20139746410E+01  0.39141187832E+02  0.00000000000E+00 0. -1.
</event>
<event>
 7    1  0.5109948E-006  0.8085801E+02  0.7561462E-02  0.1326634E+00
          2   -1    0    0  501    0  0.00000000000E+00  0.00000000000E+00  0.71224471751E+03  0.71224471751E+03  0.00000000000E+00 0.  1.
         -2   -1    0    0    0  501 -0.00000000000E+00 -0.00000000000E+00 -0.18456704577E+02  0.18456704577E+02  0.00000000000E+00 0. -1.
         23    2    1    2    0    0  0.16634768223E+01  0.24080288636E+02  0.32449367585E+03  0.34860605781E+03  0.12508960956E+03 0.  0.
          5    1    3    3  502    0 -0.28504173318E+02  0.14642935922E+02  0.11973518118E+02  0.34463618572E+02  0.41800000000E+01 0. -1.
         -5    1    3    3    0  502  0.30167650140E+02  0.94373527142E+01  0.31252015773E+03  0.31414243923E+03  0.41800000000E+01 0. -1.
        -11    1    1    2    0    0 -0.22943750652E+02 -0.55220782419E+02  0.24583740897E+03  0.25300549826E+03  0.00000000000E+00 0.  1.
         11    1    1    2    0    0  0.21280273830E+02  0.31140493782E+02  0.12345692812E+03  0.12908986602E+03  0.00000000000E+00 0. -1.
</event>
<event>
 7    1  0.5109948E-006  0.9040843E+02  0.7561462E-02  0.1301866E+00
          2   -1    0    0  501    0  0.00000000000E+00  0.00000000000E+00  0.26870829421E+03  0.26870829421E+03  0.00000000000E+00 0. -1.
         -2   -1    0    0    0  501 -0.00000000000E+00 -0.00000000000E+00 -0.64234600699E+02  0.64234600699E+02  0.00000000000E+00 0.  1.
         23    2    1    2    0    0  0.54133408840E+01 -0.13480354288E+02  0.20828291309E+02  0.12763567177E+03  0.12508406284E+03 0.  0.
          5    1    3    3  502    0 -0.45385510712E+02 -0.20020863896E+01 -0.30113821867E+02  0.54664134493E+02  0.41800000000E+01 0. -1.
         -5    1    3    3    0  502  0.50798851596E+02 -0.11478267898E+02  0.50942113176E+02  0.72971537275E+02  0.41800000000E+01 0. -1.
        -11    1    1    2    0    0 -0.68900323847E+01  0.47952301786E+02  0.60977034209E+02  0.77878716565E+02  0.00000000000E+00 0.  1.
         11    1    1    2    0    0  0.14766915007E+01 -0.34471947498E+02  0.12266836799E+03  0.12742850658E+03  0.00000000000E+00 0. -1.
</event>
<event>
 7    1  0.5109948E-006  0.1004740E+03  0.7561462E-02  0.1279302E+00
          4   -1    0    0  501    0  0.00000000000E+00  0.00000000000E+00  0.88747975819E+02  0.88747975819E+02  0.00000000000E+00 0. -1.
         -4   -1    0    0    0  501 -0.00000000000E+00 -0.00000000000E+00 -0.14841405589E+03  0.14841405589E+03  0.00000000000E+00 0.  1.
         23    2    1    2    0    0 -0.12580441401E+02  0.29535642494E+02 -0.51393786302E+02  0.13899154055E+03  0.12508679143E+03 0.  0.
          5    1    3    3  502    0 -0.16875062594E+02 -0.45842059244E+02 -0.27997770855E+01  0.49107772145E+02  0.41800000000E+01 0.  1.
         -5    1    3    3    0  502  0.42946211925E+01  0.75377701738E+02 -0.48594009217E+02  0.89883768402E+02  0.41800000000E+01 0.  1.
        -11    1    1    2    0    0  0.81714375563E+01  0.22574625333E+02  0.26198685514E+02  0.35535295459E+02  0.00000000000E+00 0. -1.
         11    1    1    2    0    0  0.44090038451E+01 -0.52110267827E+02 -0.34470979278E+02  0.62635195699E+02  0.00000000000E+00 0.  1.
</event>
<event>
 7    1  0.5109948E-006  0.1090837E+03  0.7561462E-02  0.1262276E+00
         -2   -1    0    0    0  501 -0.00000000000E+00  0.00000000000E+00  0.37548962259E+02  0.37548962259E+02  0.00000000000E+00 0. -1.
          2   -1    0    0  501    0  0.00000000000E+00 -0.00000000000E+00 -0.42085555843E+03  0.42085555843E+03  0.00000000000E+00 0.  1.
         23    2    1    2    0    0 -0.38427214746E+02 -0.40951774983E+02 -0.16213159307E+03  0.21233948645E+03  0.12509078833E+03 0.  0.
          5    1    3    3  502    0  0.31655417989E+02 -0.86406001198E+01 -0.11967000499E+03  0.12415759321E+03  0.41800000000E+01 0. -1.
         -5    1    3    3    0  502 -0.70082632735E+02 -0.32311174863E+02 -0.42461588085E+02  0.88181893237E+02  0.41800000000E+01 0. -1.
        -11    1    1    2    0    0 -0.11840208034E+02  0.54476334342E+02 -0.11761455809E+03  0.13015777274E+03  0.00000000000E+00 0.  1.
         11    1    1    2    0    0  0.50267422780E+02 -0.13524559358E+02 -0.10356044501E+03  0.11590726150E+03  0.00000000000E+00 0. -1.
</event>
<event>
 7    1  0.5109948E-006  0.7774006E+02  0.7561462E-02  0.1335590E+00
          1   -1    0    0  501    0  0.00000000000E+00  0.00000000000E+00  0.37926750508E+03  0.37926750508E+03  0.00000000000E+00 0. -1.
         -1   -1    0    0    0  501 -0.00000000000E+00 -0.00000000000E+00 -0.29823372209E+02  0.29823372209E+02  0.00000000000E+00 0.  1.
         23    2    1    2    0    0 -0.95488002262E+01 -0.15585323077E+02  0.17884683960E+03  0.21398761026E+03  0.11606215331E+03 0.  0.
          5    1    3    3  502    0  0.12810421084E+02 -0.44737962636E+02  0.16953606952E+03  0.17585659913E+03  0.41800000000E+01 0. -1.
         -5    1    3    3    0  502 -0.22359221310E+02  0.29152639559E+02  0.93107700827E+01  0.38131011138E+02  0.41800000000E+01 0.  1.
        -11    1    1    2    0    0 -0.25777921579E+02  0.24265868179E+02  0.21034175448E+02  0.41179729676E+02  0.00000000000E+00 0.  1.
         11    1    1    2    0    0  0.35326721805E+02 -0.86805451024E+01  0.14956311782E+03  0.15392353735E+03  0.00000000000E+00 0. -1.
</event>
<event>
 7    1  0.5109948E-006  0.9346084E+02  0.7561462E-02  0.1294681E+00
         -2   -1    0    0    0  501 -0.00000000000E+00  0.00000000000E+00  0.15054351643E+03  0.15054351643E+03  0.00000000000E+00 0.  1.
          2   -1    0    0  501    0  0.00000000000E+00 -0.00000000000E+00 -0.88786072151E+02  0.88786072151E+02  0.00000000000E+00 0. -1.
         23    2    1    2    0    0  0.15815423283E+02 -0.39195319146E+02  0.43329079671E+02  0.13896790662E+03  0.12509304245E+03 0.  0.
          5    1    3    3  502    0  0.48457049175E+02 -0.11943779431E+02  0.71860312236E+02  0.87590617970E+02  0.41800000000E+01 0.  1.
         -5    1    3    3    0  502 -0.32641625891E+02 -0.27251539715E+02 -0.28531232565E+02  0.51377288653E+02  0.41800000000E+01 0.  1.
        -11    1    1    2    0    0  0.32867502481E+02  0.30139907293E+02 -0.62575111696E+01  0.45031579775E+02  0.00000000000E+00 0. -1.
         11    1    1    2    0    0 -0.48682925764E+02  0.90554118530E+01  0.24685875778E+02  0.55330102184E+02  0.00000000000E+00 0.  1.
</event>
<event>
 7    1  0.5109948E-006  0.1574698E+03  0.7561462E-02  0.1191583E+00
          2   -1    0    0  501    0  0.00000000000E+00  0.00000000000E+00  0.82719887349E+03  0.82719887349E+03  0.00000000000E+00 0. -1.
         -2   -1    0    0    0  501 -0.00000000000E+00 -0.00000000000E+00 -0.41879827149E+02  0.41879827149E+02  0.00000000000E+00 0.  1.
         23    2    1    2    0    0 -0.44968517789E+01  0.11436098879E+03  0.18412592656E+03  0.25029589277E+03  0.12508804768E+03 0.  0.
          5    1    3    3  502    0 -0.14390604481E+02 -0.25310516862E+02  0.34233362872E+02  0.45134325016E+02  0.41800000000E+01 0.  1.
         -5    1    3    3    0  502  0.98937527025E+01  0.13967150565E+03  0.14989256369E+03  0.20516156775E+03  0.41800000000E+01 0.  1.
        -11    1    1    2    0    0 -0.39242352050E+02 -0.26668826163E+02  0.23227121796E+03  0.23706772698E+03  0.00000000000E+00 0.  1.
         11    1    1    2    0    0  0.43739203828E+02 -0.87692162622E+02  0.36892190181E+03  0.38171508088E+03  0.00000000000E+00 0. -1.
</event>
<event>
 7    1  0.5109948E-006  0.1196947E+03  0.7561462E-02  0.1243602E+00
         -2   -1    0    0    0  501 -0.00000000000E+00  0.00000000000E+00  0.38697777808E+03  0.38697777808E+03  0.00000000000E+00 0.  1.
          2   -1    0    0  501    0  0.00000000000E+00 -0.00000000000E+00 -0.45834248340E+02  0.45834248340E+02  0.00000000000E+00 0. -1.
         23    2    1    2    0    0  0.73214207754E+02 -0.25356058265E+02  0.20433888896E+03  0.25180339308E+03  0.12508923742E+03 0.  0.
          5    1    3    3  502    0  0.85654913141E+02 -0.56012642506E+02  0.10359287064E+03  0.14568162380E+03  0.41800000000E+01 0.  1.
         -5    1    3    3    0  502 -0.12440705387E+02  0.30656584240E+02  0.10074601832E+03  0.10612176928E+03  0.41800000000E+01 0.  1.
        -11    1    1    2    0    0 -0.52943354735E+02  0.49229246611E+02  0.13031468729E+03  0.14902494844E+03  0.00000000000E+00 0.  1.
         11    1    1    2    0    0 -0.20270853019E+02 -0.23873188346E+02  0.64899534922E+01  0.31983684907E+02  0.00000000000E+00 0. -1.
</event>
<event>
 7    1  0.5109948E-006  0.2737434E+03  0.7561462E-02  0.1099156E+00
          2   -1    0    0  501    0  0.00000000000E+00  0.00000000000E+00  0.25343894026E+03  0.25343894026E+03  0.00000000000E+00 0. -1.
         -2   -1    0    0    0  501 -0.00000000000E+00 -0.00000000000E+00 -0.39272376836E+03  0.39272376836E+03  0.00000000000E+00 0.  1.
         23    2    1    2    0    0  0.65161339700E+02 -0.25967026395E+03 -0.19951626974E+03  0.35655264136E+03  0.12509355699E+03 0.  0.
          5    1    3    3  502    0  0.73524634801E+01 -0.13664312125E+03 -0.31658556619E+02  0.14051739362E+03  0.41800000000E+01 0.  1.
         -5    1    3    3    0  502  0.57808876220E+02 -0.12302714270E+03 -0.16785771312E+03  0.21603524774E+03  0.41800000000E+01 0.  1.
        -11    1    1    2    0    0  0.90600800969E+01  0.75202060357E+02  0.49489620963E+02  0.90480149847E+02  0.00000000000E+00 0. -1.
         11    1    1    2    0    0 -0.74221419797E+02  0.18446820360E+03  0.10741820676E+02  0.19912991741E+03  0.00000000000E+00 0.  1.
</event>
<event>
 7    1  0.5109948E-006  0.1534479E+03  0.7561462E-02  0.1196299E+00
          1   -1    0    0  501    0  0.00000000000E+00  0.00000000000E+00  0.20092664149E+03  0.20092664149E+03  0.00000000000E+00 0. -1.
         -1   -1    0    0    0  501 -0.00000000000E+00 -0.00000000000E+00 -0.13274627174E+03  0.13274627174E+03  0.00000000000E+00 0.  1.
         23    2    1    2    0    0 -0.13981442799E+02 -0.11315650855E+03 -0.60412642021E+01  0.16936038364E+03  0.12508623626E+03 0.  0.
          5    1    3    3  502    0  0.50597257322E+02 -0.72168560288E+02 -0.22388126535E+02  0.91033423270E+02  0.41800000000E+01 0.  1.
         -5    1    3    3    0  502 -0.64578700121E+02 -0.40987948263E+02  0.16346862333E+02  0.78326960366E+02  0.41800000000E+01 0.  1.
        -11    1    1    2    0    0  0.49766182509E+02  0.71891893435E+02  0.64929492907E+02  0.10890801767E+03  0.00000000000E+00 0. -1.
         11    1    1    2    0    0 -0.35784739710E+02  0.41264615115E+02  0.92921410373E+01  0.55404511927E+02  0.00000000000E+00 0.  1.
</event>
<event>
 7    1  0.5109948E-006  0.7904344E+02  0.7561462E-02  0.1331788E+00
         -2   -1    0    0    0  501 -0.00000000000E+00  0.00000000000E+00  0.15620395426E+03  0.15620395426E+03  0.00000000000E+00 0.  1.
          2   -1    0    0  501    0  0.00000000000E+00 -0.00000000000E+00 -0.15882037595E+03  0.15882037595E+03  0.00000000000E+00 0. -1.
         23    2    1    2    0    0  0.39418491321E+02  0.50273648573E+02  0.92109233684E+02  0.16796704699E+03  0.12509021043E+03 0.  0.
          5    1    3    3  502    0 -0.13066110939E+02  0.35531609101E+02  0.10508343143E+03  0.11177306680E+03  0.41800000000E+01 0.  1.
         -5    1    3    3    0  502  0.52484602260E+02  0.14742039472E+02 -0.12974197748E+02  0.56193980188E+02  0.41800000000E+01 0.  1.
        -11    1    1    2    0    0 -0.12596391385E+02 -0.27070151113E+02  0.13793614584E+02  0.32889602620E+02  0.00000000000E+00 0.  1.
         11    1    1    2    0    0 -0.26822099936E+02 -0.23203497460E+02 -0.10851926996E+03  0.11416768059E+03  0.00000000000E+00 0. -1.
</event>
<event>
 7    1  0.5109948E-006  0.9255095E+02  0.7561462E-02  0.1296789E+00
          1   -1    0    0  501    0  0.00000000000E+00  0.00000000000E+00  0.19643804490E+03  0.19643804490E+03  0.00000000000E+00 0. -1.
         -1   -1    0    0    0  501 -0.00000000000E+00 -0.00000000000E+00 -0.98155381571E+02  0.98155381571E+02  0.00000000000E+00 0.  1.
         23    2    1    2    0    0  0.43713136871E+02  0.63005215902E+02  0.10488217488E+02  0.14709733603E+03  0.12508848066E+03 0.  0.
          5    1    3    3  502    0  0.12545724518E+02  0.60547259363E+02 -0.49503666727E+02  0.79318668921E+02  0.41800000000E+01 0. -1.
         -5    1    3    3    0  502  0.31167412353E+02  0.24579565387E+01  0.59991884215E+02  0.67778667106E+02  0.41800000000E+01 0. -1.
        -11    1    1    2    0    0  0.11310078532E+02 -0.13032536426E+02 -0.13462678773E+02  0.21886265141E+02  0.00000000000E+00 0.  1.
         11    1    1    2    0    0 -0.55023215402E+02 -0.49972679476E+02  0.10125712461E+03  0.12560982530E+03  0.00000000000E+00 0. -1.
</event>
<event>
 7    1  0.5109948E-006  0.1904572E+03  0.7561462E-02  0.1158050E+00
          2   -1    0    0  501    0  0.00000000000E+00  0.00000000000E+00  0.55745497082E+02  0.55745497082E+02  0.00000000000E+00 0. -1.
         -2   -1    0    0    0  501 -0.00000000000E+00 -0.00000000000E+00 -0.74664167619E+03  0.74664167619E+03  0.00000000000E+00 0.  1.
         23    2    1    2    0    0  0.13403720390E+03  0.10187395297E+03 -0.43211625311E+03  0.48032245999E+03  0.12506372395E+03 0.  0.
          5    1    3    3  502    0  0.26230467394E+02 -0.14695804150E+02 -0.17858313571E+03  0.18114472898E+03  0.41800000000E+01 0.  1.
         -5    1    3    3    0  502  0.10780673650E+03  0.11656975712E+03 -0.25353311740E+03  0.29917773101E+03  0.41800000000E+01 0.  1.
        -11    1    1    2    0    0 -0.75332063300E+01 -0.57002364560E+02 -0.78092851945E+02  0.96976864705E+02  0.00000000000E+00 0.  1.
         11    1    1    2    0    0 -0.12650399757E+03 -0.44871588411E+02 -0.18068707405E+03  0.22508784858E+03  0.00000000000E+00 0. -1.
</event>
<event>
 7    1  0.5109948E-006  0.1277762E+03  0.7561462E-02  0.1230793E+00
         -1   -1    0    0    0  501 -0.00000000000E+00  0.00000000000E+00  0.15472537922E+03  0.15472537922E+03  0.00000000000E+00 0.  1.
          1   -1    0    0  501    0  0.00000000000E+00 -0.00000000000E+00 -0.17066518838E+03  0.17066518838E+03  0.00000000000E+00 0. -1.
         23    2    1    2    0    0 -0.93452670413E+02  0.63882546113E+02  0.33707907074E+02  0.17203975874E+03  0.12508826597E+03 0.  0.
          5    1    3    3  502    0 -0.45846654008E+02  0.54382863417E+02 -0.41478454518E+02  0.82446019348E+02  0.41800000000E+01 0.  1.
         -5    1    3    3    0  502 -0.47606016405E+02  0.94996826963E+01  0.75186361593E+02  0.89593739395E+02  0.41800000000E+01 0.  1.
        -11    1    1    2    0    0  0.75355754469E+01 -0.47520943578E+02 -0.44820789660E+02  0.65756582648E+02  0.00000000000E+00 0.  1.
         11    1    1    2    0    0  0.85917094966E+02 -0.16361602535E+02 -0.48269265761E+01  0.87594226209E+02  0.00000000000E+00 0. -1.
</event>
<event>
 7    1  0.5109948E-006  0.3000416E+03  0.7561462E-02  0.1085220E+00
         -2   -1    0    0    0  501 -0.00000000000E+00  0.00000000000E+00  0.73341303972E+02  0.73341303972E+02  0.00000000000E+00 0. -1.
          2   -1    0    0  501    0  0.00000000000E+00 -0.00000000000E+00 -0.12643405750E+04  0.12643405750E+04  0.00000000000E+00 0.  1.
         23    2    1    2    0    0  0.28488423721E+03 -0.98812561188E+01 -0.65228802759E+03  0.72276137019E+03  0.12509060499E+03 0.  0.
          5    1    3    3  502    0  0.18488663790E+03 -0.58566920771E+02 -0.34297255931E+03  0.39403147326E+03  0.41800000000E+01 0. -1.
         -5    1    3    3    0  502  0.99997599303E+02  0.48685664652E+02 -0.30931546829E+03  0.32872989692E+03  0.41800000000E+01 0. -1.
        -11    1    1    2    0    0 -0.21829241783E+03  0.39636102225E+02 -0.37535026037E+03  0.43601653437E+03  0.00000000000E+00 0.  1.
         11    1    1    2    0    0 -0.66591819376E+02 -0.29754846106E+02 -0.16336098302E+03  0.17890397438E+03  0.00000000000E+00 0. -1.
</event>
<event>
 7    1  0.5109948E-006  0.1107071E+03  0.7561462E-02  0.1259266E+00
         -1   -1    0    0    0  501 -0.00000000000E+00  0.00000000000E+00  0.44070650502E+03  0.44070650502E+03  0.00000000000E+00 0.  1.
          1   -1    0    0  501    0  0.00000000000E+00 -0.00000000000E+00 -0.98983058300E+02  0.98983058300E+02  0.00000000000E+00 0. -1.
         23    2    1    2    0    0 -0.76720268323E+02 -0.12981915583E+02  0.38771069714E+03  0.41386377139E+03  0.12210285374E+03 0.  0.
          5    1    3    3  502    0  0.51598597727E+01  0.23448082125E+02  0.11216123993E+02  0.26827421524E+02  0.41800000000E+01 0. -1.
         -5    1    3    3    0  502 -0.81880128095E+02 -0.36429997708E+02  0.37649457315E+03  0.38703634987E+03  0.41800000000E+01 0.  1.
        -11    1    1    2    0    0  0.75098004360E+02 -0.17248922248E+02 -0.83216098267E+01  0.77501514615E+02  0.00000000000E+00 0. -1.
         11    1    1    2    0    0  0.16222639631E+01  0.30230837830E+02 -0.37665640595E+02  0.48324277312E+02  0.00000000000E+00 0.  1.
</event>
<event>
 7    1  0.5109948E-006  0.1055686E+03  0.7561462E-02  0.1269003E+00
          2   -1    0    0  501    0  0.00000000000E+00  0.00000000000E+00  0.34973455537E+03  0.34973455537E+03  0.00000000000E+00 0. -1.
         -2   -1    0    0    0  501 -0.00000000000E+00 -0.00000000000E+00 -0.22343855185E+03  0.22343855185E+03  0.00000000000E+00 0.  1.
         23    2    1    2    0    0  0.13321871363E+02  0.17946655858E+02 -0.19889251414E+03  0.23331442872E+03  0.11990761340E+03 0.  0.
          5    1    3    3  502    0 -0.47747521352E+02 -0.16472722083E+02 -0.98837869914E+02  0.11107462940E+03  0.41800000000E+01 0. -1.
         -5    1    3    3    0  502  0.61069392714E+02  0.34419377941E+02 -0.10005464423E+03  0.12223979931E+03  0.41800000000E+01 0.  1.
        -11    1    1    2    0    0  0.36644750557E+02 -0.16640623756E+02  0.21675053157E+03  0.22045530394E+03  0.00000000000E+00 0.  1.
         11    1    1    2    0    0 -0.49966621920E+02 -0.13060321020E+01  0.10843798610E+03  0.11940337455E+03  0.00000000000E+00 0. -1.
</event>
<event>
 7    1  0.5109948E-006  0.1026895E+03  0.7561462E-02  0.1274740E+00
          1   -1    0    0  501    0  0.00000000000E+00  0.00000000000E+00  0.14141116428E+03  0.14141116428E+03  0.00000000000E+00 0. -1.
         -1   -1    0    0    0  501 -0.00000000000E+00 -0.00000000000E+00 -0.90398835353E+02  0.90398835353E+02  0.00000000000E+00 0.  1.
         23    2    1    2    0    0 -0.10238368598E+02 -0.12969320460E+02  0.26040190832E-01  0.12617761160E+03  0.12509101297E+03 0.  0.
          5    1    3    3  502    0  0.42303288113E+02  0.27391171176E+02  0.23500511048E+02  0.55763705607E+02  0.41800000000E+01 0.  1.
         -5    1    3    3    0  502 -0.52541656711E+02 -0.40360491636E+02 -0.23474470857E+02  0.70413905992E+02  0.41800000000E+01 0.  1.
        -11    1    1    2    0    0  0.14340551171E+02  0.49565260879E+02  0.44714406150E+02  0.68276969845E+02  0.00000000000E+00 0. -1.
         11    1    1    2    0    0 -0.41021825734E+01 -0.36595940418E+02  0.62718825867E+01  0.37355418190E+02  0.00000000000E+00 0.  1.
</event>
<event>
 7    1  0.5109948E-006  0.9900989E+02  0.7561462E-02  0.1282392E+00
          1   -1    0    0  501    0  0.00000000000E+00  0.00000000000E+00  0.35223585758E+02  0.35223585758E+02  0.00000000000E+00 0. -1.
         -1   -1    0    0    0  501 -0.00000000000E+00 -0.00000000000E+00 -0.39475026054E+03  0.39475026054E+03  0.00000000000E+00 0.  1.
         23    2    1    2    0    0 -0.37199443613E+02 -0.18574579795E+02 -0.23189236344E+03  0.26675881942E+03  0.12512947653E+03 0.  0.
          5    1    3    3  502    0 -0.69711375311E+02 -0.43661599026E+02 -0.10578019209E+03  0.13406316614E+03  0.41800000000E+01 0.  1.
         -5    1    3    3    0  502  0.32511931698E+02  0.25087019231E+02 -0.12611217135E+03  0.13269565328E+03  0.41800000000E+01 0.  1.
        -11    1    1    2    0    0 -0.99827014712E+01  0.24852149104E+02 -0.10876409299E+03  0.11201299731E+03  0.00000000000E+00 0.  1.
         11    1    1    2    0    0  0.47182145084E+02 -0.62775693086E+01 -0.18870218363E+02  0.51202029571E+02  0.00000000000E+00 0. -1.
</event>
<event>
 7    1  0.5109948E-006  0.1023513E+03  0.7561462E-02  0.1275428E+00
         -2   -1    0    0    0  501 -0.00000000000E+00  0.00000000000E+00  0.72694014471E+02  0.72694014471E+02  0.00000000000E+00 0. -1.
          2   -1    0    0  501    0  0.00000000000E+00 -0.00000000000E+00 -0.15843351177E+03  0.15843351177E+03  0.00000000000E+00 0.  1.
         23    2    1    2    0    0  0.16245576109E+02  0.34197178210E+02 -0.53299368535E+02  0.14114399682E+03  0.12508972545E+03 0.  0.
          5    1    3    3  502    0  0.40064658499E+02 -0.36645474414E+02 -0.32637854712E+02  0.63488342362E+02  0.41800000000E+01 0. -1.
         -5    1    3    3    0  502 -0.23819082390E+02  0.70842652623E+02 -0.20661513823E+02  0.77655654463E+02  0.41800000000E+01 0. -1.
        -11    1    1    2    0    0 -0.24899910597E+02  0.12524871411E+02 -0.32037466095E+02  0.42465011308E+02  0.00000000000E+00 0.  1.
         11    1    1    2    0    0  0.86543344881E+01 -0.46722049621E+02 -0.40266267206E+00  0.47518518111E+02  0.00000000000E+00 0. -1.
</event>
<event>
 7    1  0.5109948E-006  0.1089038E+03  0.7561462E-02  0.1262613E+00
          1   -1    0    0  501    0  0.00000000000E+00  0.00000000000E+00  0.40174030038E+02  0.40174030038E+02  0.00000000000E+00 0. -1.
         -1   -1    0    0    0  501 -0.00000000000E+00 -0.00000000000E+00 -0.44476121360E+03  0.44476121360E+03  0.00000000000E+00 0.  1.
         23    2    1    2    0    0  0.45395338007E+02 -0.54305498961E+02 -0.27930749614E+03  0.31446153243E+03  0.12595060163E+03 0.  0.
          5    1    3    3  502    0 -0.17613968463E+02 -0.69411243876E+02 -0.94924425449E+02  0.11898021520E+03  0.41800000000E+01 0. -1.
         -5    1    3    3    0  502  0.63009306470E+02  0.15105744916E+02 -0.18438307069E+03  0.19548131723E+03  0.41800000000E+01 0. -1.
        -11    1    1    2    0    0 -0.22982241602E+02  0.54046975435E+02 -0.13409155371E+03  0.14638922009E+03  0.00000000000E+00 0.  1.
         11    1    1    2    0    0 -0.22413096405E+02  0.25852352589E+00  0.88118662851E+01  0.24084491116E+02  0.00000000000E+00 0. -1.
</event>
<event>
 7    1  0.5109948E-006  0.1476142E+03  0.7561462E-02  0.1203436E+00
          2   -1    0    0  501    0  0.00000000000E+00  0.00000000000E+00  0.15180883393E+04  0.15180883393E+04  0.00000000000E+00 0. -1.
         -2   -1    0    0    0  501 -0.00000000000E+00 -0.00000000000E+00 -0.16547936855E+02  0.16547936855E+02  0.00000000000E+00 0.  1.
         23    2    1    2    0    0 -0.11239928065E+03 -0.14084846714E+02  0.90823911917E+03  0.92378502778E+03  0.12509395970E+03 0.  0.
          5    1    3    3  502    0 -0.24448772110E+02 -0.63091845371E+02  0.34343918741E+03  0.35006609556E+03  0.41800000000E+01 0. -1.
         -5    1    3    3    0  502 -0.87950508536E+02  0.49006998657E+02  0.56479993176E+03  0.57371893222E+03  0.41800000000E+01 0. -1.
        -11    1    1    2    0    0  0.11069094160E+03 -0.17849584546E+01  0.57878074755E+03  0.58927313223E+03  0.00000000000E+00 0. -1.
         11    1    1    2    0    0  0.17083390420E+01  0.15869805169E+02  0.14520535683E+02  0.21578116111E+02  0.00000000000E+00 0.  1.
</event>
<event>
 6    1  0.5109948E-006  0.1291446E+03  0.7561462E-02  0.1228731E+00
          2   -1    0    0  501    0  0.00000000000E+00  0.00000000000E+00  0.46887690217E+03  0.46887690217E+03  0.00000000000E+00 0. -1.
         -2   -1    0    0    0  501 -0.00000000000E+00 -0.00000000000E+00 -0.42826315225E+02  0.42826315225E+02  0.00000000000E+00 0.  1.
          5    1    1    2  502    0  0.58258490212E+02 -0.76074306157E+02  0.72042429085E+02  0.11995389001E+03  0.41800000000E+01 0. -1.
         -5    1    1    2    0  502  0.15971190974E+02  0.36755652217E+02  0.12424012728E+03  0.13061063716E+03  0.41800000000E+01 0.  1.
        -11    1    1    2    0    0 -0.82150081848E+02  0.58820311389E+02  0.16983337263E+03  0.19761538259E+03  0.00000000000E+00 0.  1.
         11    1    1    2    0    0  0.79204006615E+01 -0.19501657449E+02  0.59934657952E+02  0.63523307641E+02  0.00000000000E+00 0. -1.
</event>
<event>
 7    1  0.5109948E-006  0.7412334E+02  0.7561462E-02  0.1346607E+00
         -1   -1    0    0    0  501 -0.00000000000E+00  0.00000000000E+00  0.12219544620E+03  0.12219544620E+03  0.00000000000E+00 0.  1.
          1   -1    0    0  501    0  0.00000000000E+00 -0.00000000000E+00 -0.11143149300E+03  0.11143149300E+03  0.00000000000E+00 0. -1.
         23    2    1    2    0    0  0.40421419801E+02  0.54104383188E+01  0.87968107783E+01  0.13186177290E+03  0.12508788611E+03 0.  0.
          5    1    3    3  502    0  0.41617525416E+02 -0.18209812903E+00  0.63863241217E+02  0.76341584737E+02  0.41800000000E+01 0. -1.
         -5    1    3    3    0  502 -0.11961056157E+01  0.55925364479E+01 -0.55066430438E+02  0.55520188164E+02  0.41800000000E+01 0. -1.
        -11    1    1    2    0    0  0.21817154493E+02 -0.25850496117E+02  0.11147337871E+02  0.35616000916E+02  0.00000000000E+00 0. -1.
         11    1    1    2    0    0 -0.62238574293E+02  0.20440057798E+02 -0.91801954484E+01  0.66149165387E+02  0.00000000000E+00 0.  1.
</event>
<event>
 7    1  0.5109948E-006  0.1466675E+03  0.7561462E-02  0.1204629E+00
          2   -1    0    0  501    0  0.00000000000E+00  0.00000000000E+00  0.33623293048E+03  0.33623293048E+03  0.00000000000E+00 0. -1.
         -2   -1    0    0    0  501 -0.00000000000E+00 -0.00000000000E+00 -0.73238494311E+02  0.73238494311E+02  0.00000000000E+00 0.  1.
         23    2    1    2    0    0 -0.31051713425E+02 -0.10725113555E+03  0.10886022388E+03  0.19991342925E+03  0.12509123019E+03 0.  0.
          5    1    3    3  502    0 -0.69083949590E+02 -0.10604155361E+03  0.67270430083E+02  0.14338823643E+03  0.41800000000E+01 0. -1.
         -5    1    3    3    0  502  0.38032236166E+02 -0.12095819438E+01  0.41589793793E+02  0.56525192826E+02  0.41800000000E+01 0. -1.
        -11    1    1    2    0    0 -0.19212295457E+02  0.40880638851E+02  0.10140153726E+03  0.11100725512E+03  0.00000000000E+00 0. -1.
         11    1    1    2    0    0  0.50264008882E+02  0.66370496701E+02  0.52732675033E+02  0.98550740420E+02  0.00000000000E+00 0.  1.
</event>
<event>
 7    1  0.5109948E-006  0.1852858E+03  0.7561462E-02  0.1162783E+00
         -2   -1    0    0    0  501 -0.00000000000E+00  0.00000000000E+00  0.63867317865E+02  0.63867317865E+02  0.00000000000E+00 0.  1.
          2   -1    0    0  501    0  0.00000000000E+00 -0.00000000000E+00 -0.67827332173E+03  0.67827332173E+03  0.00000000000E+00 0. -1.
         23    2    1    2    0    0 -0.73030181184E+02 -0.14510680594E+03 -0.19298469622E+03  0.28156638573E+03  0.12508854505E+03 0.  0.
          5    1    3    3  502    0 -0.88328734040E+02 -0.14382479912E+03 -0.20201008505E+03  0.26327378328E+03  0.41800000000E+01 0.  1.
         -5    1    3    3    0  502  0.15298552856E+02 -0.12820068191E+01  0.90253888298E+01  0.18292602453E+02  0.41800000000E+01 0.  1.
        -11    1    1    2    0    0  0.79841495283E+02  0.58567216514E+02 -0.22314783266E+03  0.24413057662E+03  0.00000000000E+00 0. -1.
         11    1    1    2    0    0 -0.68113140989E+01  0.86539589426E+02 -0.19827347499E+03  0.21644367725E+03  0.00000000000E+00 0.  1.
</event>
<event>
 7    1  0.5109948E-006  0.4202613E+03  0.7561462E-02  0.1036981E+00
         -2   -1    0    0    0  501 -0.00000000000E+00  0.00000000000E+00  0.10426658999E+03  0.10426658999E+03  0.00000000000E+00 0.  1.
          2   -1    0    0  501    0  0.00000000000E+00 -0.00000000000E+00 -0.19486277248E+04  0.19486277248E+04  0.00000000000E+00 0. -1.
         23    2    1    2    0    0  0.39787988701E+03 -0.12357383685E+03 -0.12342093673E+04  0.13086246369E+04  0.12508709094E+03 0.  0.
          5    1    3    3  502    0  0.12244439084E+02  0.50957805528E+01 -0.64988751891E+01  0.15349301178E+02  0.41800000000E+01 0. -1.
         -5    1    3    3    0  502  0.38563544793E+03 -0.12866961740E+03 -0.12277104921E+04  0.12932753357E+04  0.41800000000E+01 0. -1.
        -11    1    1    2    0    0 -0.22794609480E+03  0.98377386183E+02 -0.29708083059E+03  0.38716217810E+03  0.00000000000E+00 0.  1.
         11    1    1    2    0    0 -0.16993379221E+03  0.25196450662E+02 -0.31307093694E+03  0.35710749981E+03  0.00000000000E+00 0. -1.
</event>
<event>
 7    1  0.5109948E-006  0.5935300E+02  0.7561462E-02  0.1400567E+00
          2   -1    0    0  501    0  0.00000000000E+00  0.00000000000E+00  0.69918927030E+02  0.69918927030E+02  0.00000000000E+00 0. -1.
         -2   -1    0    0    0  501 -0.00000000000E+00 -0.00000000000E+00 -0.16896945726E+03  0.16896945726E+03  0.00000000000E+00 0.  1.
         23    2    1    2    0    0 -0.10794643146E+02 -0.13274539583E+02 -0.60612203634E+02  0.14004761992E+03  0.12508700529E+03 0.  0.
          5    1    3    3  502    0  0.52957611382E+01  0.24047284622E+02 -0.87594117840E+02  0.91085228572E+02  0.41800000000E+01 0. -1.
         -5    1    3    3    0  502 -0.16090404285E+02 -0.37321824205E+02  0.26981914206E+02  0.48962391346E+02  0.41800000000E+01 0. -1.
        -11    1    1    2    0    0 -0.64317553769E+01  0.28905382089E+02  0.20140623119E+02  0.35812473952E+02  0.00000000000E+00 0. -1.
         11    1    1    2    0    0  0.17226398523E+02 -0.15630842507E+02 -0.58578949712E+02  0.63028290417E+02  0.00000000000E+00 0.  1.
</event>
<event>
 7    1  0.5109948E-006  0.1177005E+03  0.7561462E-02  0.1246939E+00
          2   -1    0    0  501    0  0.00000000000E+00  0.00000000000E+00  0.22470844655E+02  0.22470844655E+02  0.00000000000E+00 0. -1.
         -2   -1    0    0    0  501 -0.00000000000E+00 -0.00000000000E+00 -0.77123456621E+03  0.77123456621E+03  0.00000000000E+00 0.  1.
         23    2    1    2    0    0 -0.33839336311E+02 -0.65307604966E+02 -0.37905385703E+03  0.40588280922E+03  0.12509534102E+03 0.  0.
          5    1    3    3  502    0  0.50752977696E+01 -0.82675882876E+02 -0.13760349996E+03  0.16066504242E+03  0.41800000000E+01 0. -1.
         -5    1    3    3    0  502 -0.38914634081E+02  0.17368277910E+02 -0.24145035707E+03  0.24521776680E+03  0.41800000000E+01 0. -1.
        -11    1    1    2    0    0  0.56845470503E+02  0.22675213768E+02 -0.13587098688E+03  0.14901844823E+03  0.00000000000E+00 0. -1.
         11    1    1    2    0    0 -0.23006134192E+02  0.42632391199E+02 -0.23383887765E+03  0.23880415342E+03  0.00000000000E+00 0.  1.
</event>
<event>
 7    1  0.5109948E-006  0.1151914E+03  0.7561462E-02  0.1251247E+00
          2   -1    0    0  501    0  0.00000000000E+00  0.00000000000E+00  0.88968672805E+03  0.88968672805E+03  0.00000000000E+00 0. -1.
         -2   -1    0    0    0  501 -0.00000000000E+00 -0.00000000000E+00 -0.16843057740E+02  0.16843057740E+02  0.00000000000E+00 0.  1.
         23    2    1    2    0    0 -0.84167804652E+01 -0.46795214248E+02  0.37458264802E+03  0.39776920674E+03  0.12509015694E+03 0.  0.
          5    1    3    3  502    0 -0.62322307823E+02 -0.59661637765E+01  0.13644422449E+03  0.15018043801E+03  0.41800000000E+01 0.  1.
         -5    1    3    3    0  502  0.53905527357E+02 -0.40829050471E+02  0.23813842353E+03  0.24758876874E+03  0.41800000000E+01 0.  1.
        -11    1    1    2    0    0  0.37658665530E+02 -0.73297398769E+01  0.13577530705E+03  0.14109158083E+03  0.00000000000E+00 0.  1.
         11    1    1    2    0    0 -0.29241885065E+02  0.54124954124E+02  0.36248571523E+03  0.36766899822E+03  0.00000000000E+00 0. -1.
</event>
<event>
 7    1  0.5109948E-006  0.7008063E+02  0.7561462E-02  0.1359819E+00
          2   -1    0    0  501    0  0.00000000000E+00  0.00000000000E+00  0.15746759774E+03  0.15746759774E+03  0.00000000000E+00 0.  1.
         -2   -1    0    0    0  501 -0.00000000000E+00 -0.00000000000E+00 -0.10026478750E+03  0.10026478750E+03  0.00000000000E+00 0. -1.
         23    2    1    2    0    0 -0.36141780632E+02  0.38007485562E+02 -0.44383100009E+01  0.13571491332E+03  0.12509213339E+03 0.  0.
          5    1    3    3  502    0 -0.39173772299E+02  0.40191676901E+02 -0.58608663684E+02  0.81255173294E+02  0.41800000000E+01 0. -1.
         -5    1    3    3    0  502  0.30319916674E+01 -0.21841913392E+01  0.54170353683E+02  0.54459740023E+02  0.41800000000E+01 0. -1.
        -11    1    1    2    0    0 -0.14823744261E+02 -0.21427246740E+00 -0.15957184245E+02  0.21781208315E+02  0.00000000000E+00 0. -1.
         11    1    1    2    0    0  0.50965524893E+02 -0.37793213094E+02  0.77598304484E+02  0.10023626361E+03  0.00000000000E+00 0.  1.
</event>
<event>
 7    1  0.5109948E-006  0.1293927E+03  0.7561462E-02  0.1228360E+00
         -2   -1    0    0    0  501 -0.00000000000E+00  0.00000000000E+00  0.13574053668E+03  0.13574053668E+03  0.00000000000E+00 0.  1.
          2   -1    0    0  501    0  0.00000000000E+00 -0.00000000000E+00 -0.12921471714E+03  0.12921471714E+03  0.00000000000E+00 0. -1.
         23    2    1    2    0    0 -0.26880061330E+02 -0.64010650460E+02  0.27375638579E+02  0.14566033434E+03  0.12509039269E+03 0.  0.
          5    1    3    3  502    0 -0.29321902472E+02  0.32985930517E+02  0.18838464884E+02  0.48168513947E+02  0.41800000000E+01 0. -1.
         -5    1    3    3    0  502  0.24418411421E+01 -0.96996580977E+02  0.85371736944E+01  0.97491820396E+02  0.41800000000E+01 0. -1.
        -11    1    1    2    0    0  0.58051445437E+01 -0.25102481003E+02 -0.68462753074E+01  0.26659064899E+02  0.00000000000E+00 0.  1.
         11    1    1    2    0    0  0.21074916786E+02  0.89113131464E+02 -0.14003543734E+02  0.92635854581E+02  0.00000000000E+00 0. -1.
</event>
<event>
 7    1  0.5109948E-006  0.7775197E+02  0.7561462E-02  0.1335555E+00
         -2   -1    0    0    0  501 -0.00000000000E+00  0.00000000000E+00  0.12963273083E+03  0.12963273083E+03  0.00000000000E+00 0.  1.
          2   -1    0    0  501    0  0.00000000000E+00 -0.00000000000E+00 -0.12731253287E+03  0.12731253287E+03  0.00000000000E+00 0. -1.
         23    2    1    2    0    0 -0.28568787997E+02  0.28981262122E+02  0.57652376789E+02  0.14362349076E+03  0.12509125208E+03 0.  0.
          5    1    3    3  502    0 -0.47292989807E+02  0.20615865856E+02 -0.25625243156E+02  0.57756093156E+02  0.41800000000E+01 0. -1.
         -5    1    3    3    0  502  0.18724201809E+02  0.83653962656E+01  0.83277619945E+02  0.85867397607E+02  0.41800000000E+01 0. -1.
        -11    1    1    2    0    0  0.24392709003E+02  0.21285646873E+02  0.70155234372E+01  0.33125527685E+02  0.00000000000E+00 0.  1.
         11    1    1    2    0    0  0.41760789948E+01 -0.50266908995E+02 -0.62347702263E+02  0.80196245256E+02  0.00000000000E+00 0. -1.
</event>
<event>
 7    1  0.5109948E-006  0.1024095E+03  0.7561462E-02  0.1275309E+00
         -4   -1    0    0    0  501 -0.00000000000E+00  0.00000000000E+00  0.67363248286E+02  0.67363248286E+02  0.00000000000E+00 0.  1.
          4   -1    0    0  501    0  0.00000000000E+00 -0.00000000000E+00 -0.22363944692E+03  0.22363944692E+03  0.00000000000E+00 0. -1.
         23    2    1    2    0    0 -0.13730886427E+01  0.16295620276E+02 -0.21912427978E+02  0.12802500975E+03  0.12507124374E+03 0.  0.
          5    1    3    3  502    0 -0.10675420917E+02 -0.50236084999E+02 -0.30956051193E+02  0.60111382892E+02  0.41800000000E+01 0. -1.
         -5    1    3    3    0  502  0.93023322739E+01  0.66531705275E+02  0.90436232149E+01  0.67913626861E+02  0.41800000000E+01 0. -1.
        -11    1    1    2    0    0  0.33446791251E+02 -0.35358448931E+02 -0.45618101171E+02  0.66707712524E+02  0.00000000000E+00 0.  1.
         11    1    1    2    0    0 -0.32073702608E+02  0.19062828654E+02 -0.88745669486E+02  0.96269972930E+02  0.00000000000E+00 0. -1.
</event>
<event>
 7    1  0.5109948E-006  0.9325944E+02  0.7561462E-02  0.1295145E+00
          1   -1    0    0  501    0  0.00000000000E+00  0.00000000000E+00  0.95907685290E+02  0.95907685290E+02  0.00000000000E+00 0. -1.
         -1   -1    0    0    0  501 -0.00000000000E+00 -0.00000000000E+00 -0.20730650800E+03  0.20730650800E+03  0.00000000000E+00 0.  1.
         23    2    1    2    0    0 -0.16996706873E+01 -0.24582576815E+02 -0.15541961264E+03  0.19827862565E+03  0.12063152753E+03 0.  0.
          5    1    3    3  502    0 -0.69146619605E+01  0.32849283229E+02 -0.15047318342E+01  0.33861845440E+02  0.41800000000E+01 0. -1.
         -5    1    3    3    0  502  0.52149912731E+01 -0.57431860045E+02 -0.15391488080E+03  0.16441678021E+03  0.41800000000E+01 0.  1.
        -11    1    1    2    0    0  0.45717917998E+02  0.22109331502E+02  0.28249911810E+02  0.58112030449E+02  0.00000000000E+00 0. -1.
         11    1    1    2    0    0 -0.44018247311E+02  0.24732453127E+01  0.15770878115E+02  0.46823537192E+02  0.00000000000E+00 0.  1.
</event>
<event>
 7    1  0.5109948E-006  0.1267823E+03  0.7561462E-02  0.1232310E+00
          1   -1    0    0  501    0  0.00000000000E+00  0.00000000000E+00  0.10610363491E+03  0.10610363491E+03  0.00000000000E+00 0. -1.
         -1   -1    0    0    0  501 -0.00000000000E+00 -0.00000000000E+00 -0.15943113924E+03  0.15943113924E+03  0.00000000000E+00 0.  1.
         23    2    1    2    0    0  0.20840964854E+02  0.13035422307E+02 -0.50244341070E+02  0.13702569133E+03  0.12508908115E+03 0.  0.
          5    1    3    3  502    0  0.30248659421E+02 -0.51987978265E+02 -0.33997478421E+02  0.69217282667E+02  0.41800000000E+01 0.  1.
         -5    1    3    3    0  502 -0.94076945670E+01  0.65023400572E+02 -0.16246862649E+02  0.67808408659E+02  0.41800000000E+01 0.  1.
        -11    1    1    2    0    0 -0.31301353439E+02  0.52473250132E+02  0.66476967132E+01  0.61460626243E+02  0.00000000000E+00 0. -1.
         11    1    1    2    0    0  0.10460388585E+02 -0.65508672439E+02 -0.97308599671E+01  0.67048456580E+02  0.00000000000E+00 0.  1.
</event>
<event>
 7    1  0.5109948E-006  0.1131741E+03  0.7561462E-02  0.1254802E+00
          2   -1    0    0  501    0  0.00000000000E+00  0.00000000000E+00  0.11130328254E+02  0.11130328254E+02  0.00000000000E+00 0. -1.
         -2   -1    0    0    0  501 -0.00000000000E+00 -0.00000000000E+00 -0.14531920087E+04  0.14531920087E+04  0.00000000000E+00 0.  1.
         23    2    1    2    0    0 -0.53693611914E+02  0.18951624964E+02 -0.10239070548E+04  0.10330899847E+04  0.12508833494E+03 0.  0.
          5    1    3    3  502    0  0.20091475405E+02  0.51282686379E+02 -0.34261094242E+03  0.34703502932E+03  0.41800000000E+01 0.  1.
         -5    1    3    3    0  502 -0.73785087319E+02 -0.32331061415E+02 -0.68129611237E+03  0.68605495536E+03  0.41800000000E+01 0.  1.
        -11    1    1    2    0    0 -0.15273161172E+02 -0.14935604372E+02 -0.29141395546E+02  0.36132570688E+02  0.00000000000E+00 0. -1.
         11    1    1    2    0    0  0.68966773086E+02 -0.40160205919E+01 -0.38901323006E+03  0.39509978154E+03  0.00000000000E+00 0.  1.
</event>
<event>
 7    1  0.5109948E-006  0.1148805E+03  0.7561462E-02  0.1251790E+00
          2   -1    0    0  501    0  0.00000000000E+00  0.00000000000E+00  0.14406020775E+03  0.14406020775E+03  0.00000000000E+00 0. -1.
         -2   -1    0    0    0  501 -0.00000000000E+00 -0.00000000000E+00 -0.12276334879E+03  0.12276334879E+03  0.00000000000E+00 0.  1.
         23    2    1    2    0    0 -0.69917053623E+02 -0.15910364700E+02 -0.14998696937E+02  0.14496493618E+03  0.12509331605E+03 0.  0.
          5    1    3    3  502    0 -0.89812820415E+02 -0.21846885891E+02 -0.49156959694E+02  0.10477360460E+03  0.41800000000E+01 0.  1.
         -5    1    3    3    0  502  0.19895766792E+02  0.59365211914E+01  0.34158262757E+02  0.40191331587E+02  0.41800000000E+01 0.  1.
        -11    1    1    2    0    0  0.36312972143E+02 -0.37980128525E+02  0.20588740552E+02  0.56435966778E+02  0.00000000000E+00 0. -1.
         11    1    1    2    0    0  0.33604081481E+02  0.53890493225E+02  0.15706815345E+02  0.65422653573E+02  0.00000000000E+00 0.  1.
</event>
<event>
 7    1  0.5109948E-006  0.1228597E+03  0.7561462E-02  0.1238453E+00
          2   -1    0    0  501    0  0.00000000000E+00  0.00000000000E+00  0.16887302512E+03  0.16887302512E+03  0.00000000000E+00 0. -1.
         -2   -1    0    0    0  501 -0.00000000000E+00 -0.00000000000E+00 -0.14938269754E+03  0.14938269754E+03  0.00000000000E+00 0.  1.
         23    2    1    2    0    0  0.31993713666E+02  0.10487375386E+03 -0.36743699196E+02  0.17035187356E+03  0.12509020519E+03 0.  0.
          5    1    3    3  502    0 -0.14589254578E+02  0.76437740850E+01 -0.57953151076E+02  0.60392994221E+02  0.41800000000E+01 0. -1.
         -5    1    3    3    0  502  0.46582968243E+02  0.97229979773E+02  0.21209451880E+02  0.10995887934E+03  0.41800000000E+01 0. -1.
        -11    1    1    2    0    0  0.11532287647E+02 -0.47139658796E+02 -0.10340282352E+02  0.49619175012E+02  0.00000000000E+00 0.  1.
         11    1    1    2    0    0 -0.43526001313E+02 -0.57734095062E+02  0.66574309135E+02  0.98284674084E+02  0.00000000000E+00 0. -1.
</event>
<event>
 7    1  0.5109948E-006  0.2133163E+03  0.7561462E-02  0.1138966E+00
         -1   -1    0    0    0  501 -0.00000000000E+00  0.00000000000E+00  0.51853776860E+03  0.51853776860E+03  0.00000000000E+00 0.  1.
          1   -1    0    0  501    0  0.00000000000E+00 -0.00000000000E+00 -0.18163234441E+03  0.18163234441E+03  0.00000000000E+00 0. -1.
         23    2    1    2    0    0  0.17029278432E+03 -0.77327496607E+02  0.41959208344E+03  0.47611417425E+03  0.12509203136E+03 0.  0.
          5    1    3    3  502    0  0.50162478493E+02 -0.90704493830E+02  0.20651248702E+03  0.23110270259E+03  0.41800000000E+01 0. -1.
         -5    1    3    3    0  502  0.12013030583E+03  0.13376997223E+02  0.21307959642E+03  0.24501147165E+03  0.41800000000E+01 0. -1.
        -11    1    1    2    0    0 -0.77211515084E+02 -0.54285181072E+01 -0.58878249286E+02  0.97250887448E+02  0.00000000000E+00 0. -1.
         11    1    1    2    0    0 -0.93081269239E+02  0.82756014714E+02 -0.23808409961E+02  0.12680505132E+03  0.00000000000E+00 0.  1.
</event>
<event>
 7    1  0.5109948E-006  0.1310130E+03  0.7561462E-02  0.1225960E+00
          3   -1    0    0  501    0  0.00000000000E+00  0.00000000000E+00  0.97373360728E+02  0.97373360728E+02  0.00000000000E+00 0. -1.
         -3   -1    0    0    0  501 -0.00000000000E+00 -0.00000000000E+00 -0.20657100324E+03  0.20657100324E+03  0.00000000000E+00 0.  1.
         23    2    1    2    0    0 -0.15325126724E+02 -0.89394074958E+02 -0.60041261568E+02  0.16576678246E+03  0.12509001930E+03 0.  0.
          5    1    3    3  502    0  0.48878292845E+02 -0.73253585697E+02 -0.35422149519E+02  0.95012506574E+02  0.41800000000E+01 0. -1.
         -5    1    3    3    0  502 -0.64203419569E+02 -0.16140489261E+02 -0.24619112049E+02  0.70754275885E+02  0.41800000000E+01 0. -1.
        -11    1    1    2    0    0 -0.19358907120E+02  0.12147758175E+02  0.18808970908E+02  0.29599201006E+02  0.00000000000E+00 0. -1.
         11    1    1    2    0    0  0.34684033844E+02  0.77246316783E+02 -0.67965351852E+02  0.10857838050E+03  0.00000000000E+00 0.  1.
</event>
<event>
 6    1  0.5109948E-006  0.1200072E+03  0.7561462E-02  0.1243085E+00
         -2   -1    0    0    0  501 -0.00000000000E+00  0.00000000000E+00  0.85714818902E+02  0.85714818902E+02  0.00000000000E+00 0.  1.
          2   -1    0    0  501    0  0.00000000000E+00 -0.00000000000E+00 -0.31396129031E+03  0.31396129031E+03  0.00000000000E+00 0. -1.
          5    1    1    2  502    0  0.49713448140E+02  0.71626233008E+02 -0.16104656922E+02  0.88761346066E+02  0.41800000000E+01 0. -1.
         -5    1    1    2    0  502 -0.46525733334E+02 -0.16772204524E+02  0.22220385274E+02  0.54379854989E+02  0.41800000000E+01 0.  1.
        -11    1    1    2    0    0  0.32651711484E+02  0.52932636043E+01 -0.94591276908E+02  0.10020809633E+03  0.00000000000E+00 0.  1.
         11    1    1    2    0    0 -0.35839426290E+02 -0.60147292088E+02 -0.13977092286E+03  0.15632681183E+03  0.00000000000E+00 0. -1.
</event>
<event>
 7    1  0.5109948E-006  0.1096303E+03  0.7561462E-02  0.1261256E+00
          1   -1    0    0  501    0  0.00000000000E+00  0.00000000000E+00  0.27001691946E+02  0.27001691946E+02  0.00000000000E+00 0. -1.
         -1   -1    0    0    0  501 -0.00000000000E+00 -0.00000000000E+00 -0.12489815230E+04  0.12489815230E+04  0.00000000000E+00 0.  1.
         23    2    1    2    0    0  0.39143444362E+02  0.60965362693E+02 -0.10921803018E+04  0.11017053703E+04  0.12509167319E+03 0.  0.
          5    1    3    3  502    0  0.38520100540E+02 -0.52696481416E+01 -0.10099725575E+03  0.10830274884E+03  0.41800000000E+01 0. -1.
         -5    1    3    3    0  502  0.62334382151E+00  0.66235010835E+02 -0.99118304601E+03  0.99340262146E+03  0.41800000000E+01 0. -1.
        -11    1    1    2    0    0 -0.43383101734E+02  0.84877155581E+01 -0.68610560666E+02  0.81618281447E+02  0.00000000000E+00 0. -1.
         11    1    1    2    0    0  0.42396573724E+01 -0.69453078251E+02 -0.61188968660E+02  0.92659563235E+02  0.00000000000E+00 0.  1.
</event>
<event>
 7    1  0.5109948E-006  0.1198457E+03  0.7561462E-02  0.1243352E+00
          1   -1    0    0  501    0  0.00000000000E+00  0.00000000000E+00  0.32008270410E+03  0.32008270410E+03  0.00000000000E+00 0. -1.
         -1   -1    0    0    0  501 -0.00000000000E+00 -0.00000000000E+00 -0.56202420381E+02  0.56202420381E+02  0.00000000000E+00 0.  1.
         23    2    1    2    0    0 -0.22452866843E+02 -0.78628627773E+02  0.13403901657E+03  0.20075057249E+03  0.12509093515E+03 0.  0.
          5    1    3    3  502    0 -0.72328654231E+02 -0.52915857458E+02  0.10260487700E+03  0.13629657141E+03  0.41800000000E+01 0. -1.
         -5    1    3    3    0  502  0.49875787388E+02 -0.25712770315E+02  0.31434139572E+02  0.64454001082E+02  0.41800000000E+01 0. -1.
        -11    1    1    2    0    0 -0.12417499758E+02  0.75448030887E+01 -0.79891696534E+01  0.16581471155E+02  0.00000000000E+00 0.  1.
         11    1    1    2    0    0  0.34870366601E+02  0.71083824685E+02  0.13783043680E+03  0.15895308084E+03  0.00000000000E+00 0. -1.
</event>
<event>
 7    1  0.5109948E-006  0.1306455E+03  0.7561462E-02  0.1226501E+00
          1   -1    0    0  501    0  0.00000000000E+00  0.00000000000E+00  0.10586354883E+04  0.10586354883E+04  0.00000000000E+00 0. -1.
         -1   -1    0    0    0  501 -0.00000000000E+00 -0.00000000000E+00 -0.17641201463E+02  0.17641201463E+02  0.00000000000E+00 0.  1.
         23    2    1    2    0    0  0.47803661385E+02 -0.66860078678E+02  0.57810071791E+03  0.59716304238E+03  0.12509116264E+03 0.  0.
          5    1    3    3  502    0 -0.18698779627E+02  0.21377889126E+02  0.23348408491E+03  0.23524231935E+03  0.41800000000E+01 0. -1.
         -5    1    3    3    0  502  0.66502441013E+02 -0.88237967804E+02  0.34461663300E+03  0.36192072304E+03  0.41800000000E+01 0. -1.
        -11    1    1    2    0    0  0.90654224242E+01 -0.17828664466E+02  0.51150661370E+02  0.54922065866E+02  0.00000000000E+00 0.  1.
         11    1    1    2    0    0 -0.56869083810E+02  0.84688743144E+02  0.41174290755E+03  0.42419158151E+03  0.00000000000E+00 0. -1.
</event>
<event>
 7    1  0.5109948E-006  0.1013279E+03  0.7561462E-02  0.1277528E+00
          2   -1    0    0  501    0  0.00000000000E+00  0.00000000000E+00  0.28974833051E+02  0.28974833051E+02  0.00000000000E+00 0. -1.
         -2   -1    0    0    0  501 -0.00000000000E+00 -0.00000000000E+00 -0.69052580414E+03  0.69052580414E+03  0.00000000000E+00 0.  1.
         23    2    1    2    0    0 -0.73143892233E+02  0.25227007988E+02 -0.53134883004E+03  0.55134321364E+03  0.12514523218E+03 0.  0.
          5    1    3    3  502    0  0.77084599538E+01  0.29219804372E+02 -0.27678997497E+02  0.41192434072E+02  0.41800000000E+01 0. -1.
         -5    1    3    3    0  502 -0.80852352187E+02 -0.39927963837E+01 -0.50366983254E+03  0.51015077957E+03  0.41800000000E+01 0. -1.
        -11    1    1    2    0    0  0.29357901588E+02 -0.35548273191E+02 -0.10915337538E+03  0.11849061342E+03  0.00000000000E+00 0.  1.
         11    1    1    2    0    0  0.43785990645E+02  0.10321265203E+02 -0.21048765665E+02  0.49666810127E+02  0.00000000000E+00 0. -1.
</event>
<event>
 7    1  0.5109948E-006  0.8114184E+02  0.7561462E-02  0.1325842E+00
          1   -1    0    0  501    0  0.00000000000E+00  0.00000000000E+00  0.93242267971E+02  0.93242267971E+02  0.00000000000E+00 0. -1.
         -1   -1    0    0    0  501 -0.00000000000E+00 -0.00000000000E+00 -0.16185056730E+03  0.16185056730E+03  0.00000000000E+00 0.  1.
         23    2    1    2    0    0  0.27576386286E+02  0.31621912734E+02 -0.69343726709E+02  0.14905073976E+03  0.12508864114E+03 0.  0.
          5    1    3    3  502    0 -0.27440185234E+02  0.85105581280E+01 -0.82794580386E+02  0.87737154653E+02  0.41800000000E+01 0.  1.
         -5    1    3    3    0  502  0.55016571520E+02  0.23111354606E+02  0.13450853677E+02  0.61313585103E+02  0.41800000000E+01 0.  1.
        -11    1    1    2    0    0  0.18277176727E+02 -0.17866773583E+02  0.37708467103E+02  0.45554421066E+02  0.00000000000E+00 0. -1.
         11    1    1    2    0    0 -0.45853563012E+02 -0.13755139151E+02 -0.36973039723E+02  0.60487674450E+02  0.00000000000E+00 0.  1.
</event>
<event>
 6    1  0.5109948E-006  0.2110917E+03  0.7561462E-02  0.1140704E+00
         -2   -1    0    0    0  501 -0.00000000000E+00  0.00000000000E+00  0.62307938827E+03  0.62307938827E+03  0.00000000000E+00 0.  1.
          2   -1    0    0  501    0  0.00000000000E+00 -0.00000000000E+00 -0.14489600378E+03  0.14489600378E+03  0.00000000000E+00 0. -1.
          5    1    1    2  502    0  0.12995043992E+03  0.49170589614E+02  0.40177812695E+03  0.42514468056E+03  0.41800000000E+01 0. -1.
         -5    1    1    2    0  502  0.42062804297E+02 -0.75632335965E+02  0.11353272991E+03  0.14281695596E+03  0.41800000000E+01 0.  1.
        -11    1    1    2    0    0 -0.86235910248E+02 -0.32815851913E+02 -0.16971729994E+02  0.93816586871E+02  0.00000000000E+00 0.  1.
         11    1    1    2    0    0 -0.85777333970E+02  0.59277598264E+02 -0.20155742385E+02  0.10619716865E+03  0.00000000000E+00 0. -1.
</event>
<event>
 7    1  0.5109948E-006  0.1418854E+03  0.7561462E-02  0.1210814E+00
          2   -1    0    0  501    0  0.00000000000E+00  0.00000000000E+00  0.76091617930E+03  0.76091617930E+03  0.00000000000E+00 0.  1.
         -2   -1    0    0    0  501 -0.00000000000E+00 -0.00000000000E+00 -0.38482982247E+02  0.38482982247E+02  0.00000000000E+00 0. -1.
         23    2    1    2    0    0  0.84197750121E+02  0.79555021242E+02  0.23446950212E+03  0.28990004865E+03  0.12509127967E+03 0.  0.
          5    1    3    3  502    0 -0.13876234277E+02  0.36027687330E+02  0.14506423817E+03  0.15017206707E+03  0.41800000000E+01 0.  1.
         -5    1    3    3    0  502  0.98073984398E+02  0.43527333912E+02  0.89405263948E+02  0.13972798157E+03  0.41800000000E+01 0.  1.
        -11    1    1    2    0    0 -0.30830654721E+02 -0.78326411093E+02  0.37805704808E+03  0.38731471383E+03  0.00000000000E+00 0.  1.
         11    1    1    2    0    0 -0.53367095401E+02 -0.12286101488E+01  0.10990664686E+03  0.12218439908E+03  0.00000000000E+00 0. -1.
</event>
<event>
 7    1  0.5109948E-006  0.1744549E+03  0.7561462E-02  0.1173280E+00
         -1   -1    0    0    0  501 -0.00000000000E+00  0.00000000000E+00  0.21342629713E+03  0.21342629713E+03  0.00000000000E+00 0.  1.
          1   -1    0    0  501    0  0.00000000000E+00 -0.00000000000E+00 -0.20004329008E+03  0.20004329008E+03  0.00000000000E+00 0. -1.
         23    2    1    2    0    0  0.92318356656E+02  0.11127413618E+03  0.10823436244E+03  0.21970403358E+03  0.12510224937E+03 0.  0.
          5    1    3    3  502    0  0.58531012967E+02  0.12888843149E+03  0.50397430255E+02  0.15031793182E+03  0.41800000000E+01 0.  1.
         -5    1    3    3    0  502  0.33787343689E+02 -0.17614295305E+02  0.57836932181E+02  0.69386101755E+02  0.41800000000E+01 0.  1.
        -11    1    1    2    0    0 -0.14282487062E+02 -0.85638746883E+02 -0.48250319654E+02  0.99328131720E+02  0.00000000000E+00 0.  1.
         11    1    1    2    0    0 -0.78035869594E+02 -0.25635389300E+02 -0.46601035732E+02  0.94437421922E+02  0.00000000000E+00 0. -1.
</event>
<event>
 6    1  0.5109948E-006  0.1442360E+03  0.7561462E-02  0.1207740E+00
         -2   -1    0    0    0  501 -0.00000000000E+00  0.00000000000E+00  0.56215296129E+02  0.56215296129E+02  0.00000000000E+00 0.  1.
          2   -1    0    0  501    0  0.00000000000E+00 -0.00000000000E+00 -0.46104945874E+03  0.46104945874E+03  0.00000000000E+00 0. -1.
          5    1    1    2  502    0 -0.79464627451E+02  0.15155706011E+01 -0.18956669605E+03  0.20559651899E+03  0.41800000000E+01 0. -1.
         -5    1    1    2    0  502  0.68041299831E+02  0.75396551749E+02 -0.62542213069E+02  0.11934512690E+03  0.41800000000E+01 0.  1.
        -11    1    1    2    0    0 -0.31178753083E+02 -0.24235857778E+02 -0.22299082034E+02  0.45351301035E+02  0.00000000000E+00 0.  1.
         11    1    1    2    0    0  0.42602080703E+02 -0.52676264573E+02 -0.13042617146E+03  0.14697180795E+03  0.00000000000E+00 0. -1.
</event>
<event>
 6    1  0.5109948E-006  0.1351167E+03  0.7561462E-02  0.1220055E+00
         -2   -1    0    0    0  501 -0.00000000000E+00  0.00000000000E+00  0.12149637306E+03  0.12149637306E+03  0.00000000000E+00 0.  1.
          2   -1    0    0  501    0  0.00000000000E+00 -0.00000000000E+00 -0.46616702887E+03  0.46616702887E+03  0.00000000000E+00 0. -1.
          5    1    1    2  502    0 -0.10183186900E+03  0.26988441068E+02 -0.63077918015E+02  0.12285927575E+03  0.41800000000E+01 0. -1.
         -5    1    1    2    0  502  0.57842199515E+02  0.14055236493E+02  0.72246983507E+02  0.93703621827E+02  0.41800000000E+01 0.  1.
        -11    1    1    2    0    0 -0.20950619966E+02 -0.33829028964E+02 -0.20065996712E+03  0.20456723610E+03  0.00000000000E+00 0.  1.
         11    1    1    2    0    0  0.64940289452E+02 -0.72146485973E+01 -0.15317975418E+03  0.16653326826E+03  0.00000000000E+00 0. -1.
</event>
<event>
 7    1  0.5109948E-006  0.1152767E+03  0.7561462E-02  0.1251099E+00
          2   -1    0    0  501    0  0.00000000000E+00  0.00000000000E+00  0.65197528167E+03  0.65197528167E+03  0.00000000000E+00 0. -1.
         -2   -1    0    0    0  501 -0.00000000000E+00 -0.00000000000E+00 -0.24169661547E+02  0.24169661547E+02  0.00000000000E+00 0.  1.
         23    2    1    2    0    0 -0.29193635228E+02 -0.33554031341E+02  0.23075904178E+03  0.26620725073E+03  0.12505368296E+03 0.  0.
          5    1    3    3  502    0  0.39892839365E+02  0.18584676817E+02  0.10007420399E+03  0.10940359935E+03  0.41800000000E+01 0.  1.
         -5    1    3    3    0  502 -0.69086474592E+02 -0.52138708158E+02  0.13068483779E+03  0.15680365138E+03  0.41800000000E+01 0.  1.
        -11    1    1    2    0    0  0.52648506878E+02  0.48743857394E+02  0.32096830827E+03  0.32888977458E+03  0.00000000000E+00 0. -1.
         11    1    1    2    0    0 -0.23454871651E+02 -0.15189826053E+02  0.76078270072E+02  0.81047917905E+02  0.00000000000E+00 0.  1.
</event>
<event>
 7    1  0.5109948E-006  0.4557458E+03  0.7561462E-02  0.1026022E+00
         -3   -1    0    0    0  501 -0.00000000000E+00  0.00000000000E+00  0.61125426770E+03  0.61125426770E+03  0.00000000000E+00 0.  1.
          3   -1    0    0  501    0  0.00000000000E+00 -0.00000000000E+00 -0.55558847238E+03  0.55558847238E+03  0.00000000000E+00 0. -1.
         23    2    1    2    0    0  0.44507477352E+03 -0.55029700579E+02  0.38415536497E+03  0.60360834644E+03  0.12509144450E+03 0.  0.
          5    1    3    3  502    0  0.10858868078E+03  0.35815446888E+02  0.12358172443E+03  0.16841663469E+03  0.41800000000E+01 0.  1.
         -5    1    3    3    0  502  0.33648609274E+03 -0.90845147468E+02  0.26057364055E+03  0.43519171175E+03  0.41800000000E+01 0.  1.
        -11    1    1    2    0    0 -0.29223102592E+03  0.39330929473E+02 -0.26683883220E+03  0.39767933928E+03  0.00000000000E+00 0. -1.
         11    1    1    2    0    0 -0.15284374760E+03  0.15698771106E+02 -0.61650737458E+02  0.16555505436E+03  0.00000000000E+00 0.  1.
</event>
<event>
 7    1  0.5109948E-006  0.4144256E+03  0.7561462E-02  0.1038896E+00
          2   -1    0    0  501    0  0.00000000000E+00  0.00000000000E+00  0.93013589374E+03  0.93013589374E+03  0.00000000000E+00 0. -1.
         -2   -1    0    0    0  501 -0.00000000000E+00 -0.00000000000E+00 -0.19890905469E+03  0.19890905469E+03  0.00000000000E+00 0.  1.
         23    2    1    2    0    0  0.21607693280E+03  0.34302642871E+03  0.24573904944E+03  0.49029732961E+03  0.12508964515E+03 0.  0.
          5    1    3    3  502    0  0.16104914998E+03  0.14203482517E+03  0.10735680620E+03  0.24011180002E+03  0.41800000000E+01 0. -1.
         -5    1    3    3    0  502  0.55027782827E+02  0.20099160354E+03  0.13838224323E+03  0.25018552960E+03  0.41800000000E+01 0. -1.
        -11    1    1    2    0    0 -0.28829728240E+02 -0.55142405421E+02  0.32213464637E+02  0.70068148326E+02  0.00000000000E+00 0. -1.
         11    1    1    2    0    0 -0.18724720456E+03 -0.28788402329E+03  0.45327432497E+03  0.56867947049E+03  0.00000000000E+00 0.  1.
</event>
<event>
 7    1  0.5109948E-006  0.1552567E+03  0.7561462E-02  0.1194158E+00
         -1   -1    0    0    0  501 -0.00000000000E+00  0.00000000000E+00  0.26055299722E+02  0.26055299722E+02  0.00000000000E+00 0.  1.
          1   -1    0    0  501    0  0.00000000000E+00 -0.00000000000E+00 -0.13732241147E+04  0.13732241147E+04  0.00000000000E+00 0. -1.
         23    2    1    2    0    0 -0.72584460172E+02 -0.10199584766E+03 -0.39712706887E+03  0.43477260278E+03  0.12508257471E+03 0.  0.
          5    1    3    3  502    0 -0.85438324309E+02 -0.74172797106E+02 -0.16213681397E+03  0.19775522732E+03  0.41800000000E+01 0. -1.
         -5    1    3    3    0  502  0.12853864137E+02 -0.27823050550E+02 -0.23499025491E+03  0.23701737545E+03  0.41800000000E+01 0. -1.
        -11    1    1    2    0    0  0.50564850136E+02 -0.10573193762E+02 -0.28370971749E+03  0.28837440992E+03  0.00000000000E+00 0. -1.
         11    1    1    2    0    0  0.22019610036E+02  0.11256904142E+03 -0.66633202866E+03  0.67613240178E+03  0.00000000000E+00 0.  1.
</event>
<event>
 7    1  0.5109948E-006  0.1028740E+03  0.7561462E-02  0.1274366E+00
          1   -1    0    0  501    0  0.00000000000E+00  0.00000000000E+00  0.67428780596E+02  0.67428780596E+02  0.00000000000E+00 0. -1.
         -1   -1    0    0    0  501 -0.00000000000E+00 -0.00000000000E+00 -0.20481526700E+03  0.20481526700E+03  0.00000000000E+00 0.  1.
         23    2    1    2    0    0 -0.46313268794E+02  0.58053158323E+01 -0.85326362264E+02  0.15845156414E+03  0.12509072517E+03 0.  0.
          5    1    3    3  502    0 -0.63367469146E+01  0.58503354208E+02 -0.67846803807E+02  0.89908053042E+02  0.41800000000E+01 0. -1.
         -5    1    3    3    0  502 -0.39976521880E+02 -0.52698038375E+02 -0.17479558457E+02  0.68543511101E+02  0.41800000000E+01 0. -1.
        -11    1    1    2    0    0 -0.12640805340E+01  0.24196876903E+02 -0.52195461475E+02  0.57545225259E+02  0.00000000000E+00 0.  1.
         11    1    1    2    0    0  0.47577349328E+02 -0.30002192735E+02  0.13533733661E+00  0.56247258193E+02  0.00000000000E+00 0. -1.
</event>
<event>
 7    1  0.5109948E-006  0.1232155E+03  0.7561462E-02  0.1237885E+00
         -1   -1    0    0    0  501 -0.00000000000E+00  0.00000000000E+00  0.15930140282E+03  0.15930140282E+03  0.00000000000E+00 0.  1.
          1   -1    0    0  501    0  0.00000000000E+00 -0.00000000000E+00 -0.11869662742E+03  0.11869662742E+03  0.00000000000E+00 0. -1.
         23    2    1    2    0    0  0.81448590615E+02 -0.91480781302E+01  0.35973686655E+02  0.15381685305E+03  0.12509179790E+03 0.  0.
          5    1    3    3  502    0  0.10197488227E+03 -0.25678414481E+02  0.57144015178E+02  0.11975461767E+03  0.41800000000E+01 0.  1.
         -5    1    3    3    0  502 -0.20526291650E+02  0.16530336351E+02 -0.21170328523E+02  0.34062235373E+02  0.41800000000E+01 0.  1.
        -11    1    1    2    0    0 -0.21894873055E+02  0.41360298688E+02  0.25546774065E+02  0.53316952640E+02  0.00000000000E+00 0.  1.
         11    1    1    2    0    0 -0.59553717559E+02 -0.32212220558E+02 -0.20915685320E+02  0.70864224548E+02  0.00000000000E+00 0. -1.
</event>
<event>
 7    1  0.5109948E-006  0.6492254E+02  0.7561462E-02  0.1378263E+00
          1   -1    0    0  501    0  0.00000000000E+00  0.00000000000E+00  0.48335966858E+02  0.48335966858E+02  0.00000000000E+00 0. -1.
         -1   -1    0    0    0  501 -0.00000000000E+00 -0.00000000000E+00 -0.48145814632E+03  0.48145814632E+03  0.00000000000E+00 0.  1.
         23    2    1    2    0    0 -0.46278159244E+01  0.35634350249E+02 -0.40682799402E+03  0.42668067840E+03  0.12351583301E+03 0.  0.
          5    1    3    3  502    0 -0.17134612509E+01  0.16548262601E+02 -0.40656256698E+03  0.40692428561E+03  0.41800000000E+01 0.  1.
         -5    1    3    3    0  502 -0.29143546735E+01  0.19086087649E+02 -0.26542704035E+00  0.19756392798E+02  0.41800000000E+01 0. -1.
        -11    1    1    2    0    0  0.66353029480E+01 -0.64078818008E+02 -0.14192985542E+00  0.64421598137E+02  0.00000000000E+00 0. -1.
         11    1    1    2    0    0 -0.20074870235E+01  0.28444467758E+02 -0.26152255581E+02  0.38691836635E+02  0.00000000000E+00 0.  1.
</event>
<event>
 7    1  0.5109948E-006  0.1978055E+03  0.7561462E-02  0.1151604E+00
         -1   -1    0    0    0  501 -0.00000000000E+00  0.00000000000E+00  0.65983597424E+02  0.65983597424E+02  0.00000000000E+00 0.  1.
          1   -1    0    0  501    0  0.00000000000E+00 -0.00000000000E+00 -0.61548759751E+03  0.61548759751E+03  0.00000000000E+00 0. -1.
         23    2    1    2    0    0 -0.94026989133E+02 -0.14062267203E+03 -0.27379680476E+03  0.34529384336E+03  0.12508931764E+03 0.  0.
          5    1    3    3  502    0  0.55569391452E+01  0.17293255119E+02 -0.52639135965E+02  0.55841626771E+02  0.41800000000E+01 0. -1.
         -5    1    3    3    0  502 -0.99583928278E+02 -0.15791592715E+03 -0.22115766880E+03  0.28945221659E+03  0.41800000000E+01 0. -1.
        -11    1    1    2    0    0  0.73401462570E+02  0.15043810589E+03 -0.22386681299E+03  0.27952772379E+03  0.00000000000E+00 0.  1.
         11    1    1    2    0    0  0.20625526563E+02 -0.98154338623E+01 -0.51840382329E+02  0.56649627783E+02  0.00000000000E+00 0. -1.
</event>
<event>
 7    1  0.5109948E-006  0.1194041E+03  0.7561462E-02  0.1244083E+00
         -3   -1    0    0    0  501 -0.00000000000E+00  0.00000000000E+00  0.55087604599E+03  0.55087604599E+03  0.00000000000E+00 0.  1.
          3   -1    0    0  501    0  0.00000000000E+00 -0.00000000000E+00 -0.26132581541E+02  0.26132581541E+02  0.00000000000E+00 0. -1.
         23    2    1    2    0    0  0.32941684066E+02 -0.38172397208E+02  0.31038063352E+03  0.33842917958E+03  0.12512348088E+03 0.  0.
          5    1    3    3  502    0  0.72640327812E+02 -0.55259098131E+02  0.21679370653E+03  0.23525978990E+03  0.41800000000E+01 0.  1.
         -5    1    3    3    0  502 -0.39698643746E+02  0.17086700923E+02  0.93586926993E+02  0.10316938968E+03  0.41800000000E+01 0.  1.
        -11    1    1    2    0    0 -0.65655935571E+01 -0.30112244518E+02  0.51419186026E+02  0.59948202477E+02  0.00000000000E+00 0. -1.
         11    1    1    2    0    0 -0.26376090509E+02  0.68284641725E+02  0.16294364490E+03  0.17863124547E+03  0.00000000000E+00 0.  1.
</event>
<event>
 7    1  0.5109948E-006  0.9124890E+02  0.7561462E-02  0.1299855E+00
          2   -1    0    0  501    0  0.00000000000E+00  0.00000000000E+00  0.64329287274E+02  0.64329287274E+02  0.00000000000E+00 0. -1.
         -2   -1    0    0    0  501 -0.00000000000E+00 -0.00000000000E+00 -0.29837278385E+03  0.29837278385E+03  0.00000000000E+00 0.  1.
         23    2    1    2    0    0 -0.57399072043E+02 -0.15182903612E+02 -0.20450251088E+03  0.24696519714E+03  0.12508140393E+03 0.  0.
          5    1    3    3  502    0 -0.67761858777E+02 -0.26197038746E+02 -0.21572954081E+03  0.22767226779E+03  0.41800000000E+01 0. -1.
         -5    1    3    3    0  502  0.10362786734E+02  0.11014135134E+02  0.11227029931E+02  0.19292929345E+02  0.41800000000E+01 0. -1.
        -11    1    1    2    0    0  0.73901736881E+02  0.20513651482E+02 -0.47945316729E+02  0.90449046470E+02  0.00000000000E+00 0.  1.
         11    1    1    2    0    0 -0.16502664838E+02 -0.53307478706E+01  0.18404331033E+02  0.25287827514E+02  0.00000000000E+00 0. -1.
</event>
<event>
 7    1  0.5109948E-006  0.9547528E+02  0.7561462E-02  0.1290109E+00
         -1   -1    0    0    0  501 -0.00000000000E+00  0.00000000000E+00  0.32173820016E+03  0.32173820016E+03  0.00000000000E+00 0.  1.
          1   -1    0    0  501    0  0.00000000000E+00 -0.00000000000E+00 -0.71856980225E+02  0.71856980225E+02  0.00000000000E+00 0. -1.
         23    2    1    2    0    0  0.71659018696E+02 -0.47588198868E+02  0.21867951061E+03  0.26620954995E+03  0.12508854661E+03 0.  0.
          5    1    3    3  502    0  0.75989658971E+02 -0.34320280214E+02  0.23194103488E+03  0.24650847037E+03  0.41800000000E+01 0.  1.
         -5    1    3    3    0  502 -0.43306402748E+01 -0.13267918655E+02 -0.13261524271E+02  0.19701079579E+02  0.41800000000E+01 0.  1.
        -11    1    1    2    0    0 -0.31681511549E+01  0.18018066731E+02  0.47607387903E+02  0.51001483247E+02  0.00000000000E+00 0.  1.
         11    1    1    2    0    0 -0.68490867541E+02  0.29570132137E+02 -0.16405678580E+02  0.76384147183E+02  0.00000000000E+00 0. -1.
</event>
<event>
 7    1  0.5109948E-006  0.1534257E+03  0.7561462E-02  0.1196326E+00
          2   -1    0    0  501    0  0.00000000000E+00  0.00000000000E+00  0.26455290041E+03  0.26455290041E+03  0.00000000000E+00 0. -1.
         -2   -1    0    0    0  501 -0.00000000000E+00 -0.00000000000E+00 -0.12658144771E+03  0.12658144771E+03  0.00000000000E+00 0.  1.
         23    2    1    2    0    0  0.37654856961E+02  0.12096206428E+03  0.14772611989E+03  0.23134282081E+03  0.12508710962E+03 0.  0.
          5    1    3    3  502    0  0.40089296494E+01 -0.18060035134E+02  0.61311115994E+02  0.64177579655E+02  0.41800000000E+01 0. -1.
         -5    1    3    3    0  502  0.33645927312E+02  0.13902209942E+03  0.86415003900E+02  0.16716524115E+03  0.41800000000E+01 0. -1.
        -11    1    1    2    0    0 -0.34555760501E+02 -0.13213895985E+02  0.27113958400E+02  0.45868010323E+02  0.00000000000E+00 0. -1.
         11    1    1    2    0    0 -0.30990964604E+01 -0.10774816830E+03 -0.36868625596E+02  0.11392351699E+03  0.00000000000E+00 0.  1.
</event>
<event>
 7    1  0.5109948E-006  0.1063831E+03  0.7561462E-02  0.1267418E+00
         -2   -1    0    0    0  501 -0.00000000000E+00  0.00000000000E+00  0.37299896224E+02  0.37299896224E+02  0.00000000000E+00 0.  1.
          2   -1    0    0  501    0  0.00000000000E+00 -0.00000000000E+00 -0.36219708434E+03  0.36219708434E+03  0.00000000000E+00 0. -1.
         23    2    1    2    0    0 -0.18716302355E+02  0.36528324799E+02 -0.20650714566E+03  0.24490306998E+03  0.12509074303E+03 0.  0.
          5    1    3    3  502    0 -0.66321021116E+02  0.15135684147E+02 -0.65653617016E+02  0.94633168624E+02  0.41800000000E+01 0. -1.
         -5    1    3    3    0  502  0.47604718761E+02  0.21392640652E+02 -0.14085352864E+03  0.15026990135E+03  0.41800000000E+01 0. -1.
        -11    1    1    2    0    0 -0.19407453704E+02 -0.48545549516E+02 -0.94577229163E+02  0.10806559079E+03  0.00000000000E+00 0. -1.
         11    1    1    2    0    0  0.38123756059E+02  0.12017224717E+02 -0.23812813299E+02  0.46528319797E+02  0.00000000000E+00 0.  1.
</event>
<event>
 7    1  0.5109948E-006  0.1322684E+03  0.7561462E-02  0.1224128E+00
          2   -1    0    0  501    0  0.00000000000E+00  0.00000000000E+00  0.65367162686E+02  0.65367162686E+02  0.00000000000E+00 0.  1.
         -2   -1    0    0    0  501 -0.00000000000E+00 -0.00000000000E+00 -0.59656199402E+03  0.59656199402E+03  0.00000000000E+00 0. -1.
         23    2    1    2    0    0  0.10589281298E+02  0.91659645829E+02 -0.50727784595E+03  0.53055719146E+03  0.12508595792E+03 0.  0.
          5    1    3    3  502    0 -0.44450629819E+02  0.29930411529E+01 -0.22886231445E+03  0.23319572930E+03  0.41800000000E+01 0. -1.
         -5    1    3    3    0  502  0.55039911117E+02  0.88666604677E+02 -0.27841553150E+03  0.29736146216E+03  0.41800000000E+01 0. -1.
        -11    1    1    2    0    0  0.22383531958E+02 -0.75262719947E+02 -0.43393945136E+02  0.89713622105E+02  0.00000000000E+00 0. -1.
         11    1    1    2    0    0 -0.32972813256E+02 -0.16396925883E+02  0.19476959748E+02  0.41658343143E+02  0.00000000000E+00 0.  1.
</event>
<event>
 7    1  0.5109948E-006  0.1120929E+03  0.7561462E-02  0.1256743E+00
          1   -1    0    0  501    0  0.00000000000E+00  0.00000000000E+00  0.11918758120E+03  0.11918758120E+03  0.00000000000E+00 0.  1.
         -1   -1    0    0    0  501 -0.00000000000E+00 -0.00000000000E+00 -0.14694708750E+03  0.14694708750E+03  0.00000000000E+00 0. -1.
         23    2    1    2    0    0 -0.45966762640E+02 -0.65988293958E+02 -0.24823745277E+02  0.15079132464E+03  0.12511757291E+03 0.  0.
          5    1    3    3  502    0  0.18994819711E+02  0.59823720145E+01 -0.47027432166E+02  0.51241035576E+02  0.41800000000E+01 0. -1.
         -5    1    3    3    0  502 -0.64961582351E+02 -0.71970665973E+02  0.22203686889E+02  0.99550289068E+02  0.41800000000E+01 0. -1.
        -11    1    1    2    0    0  0.18071515505E+02  0.75259706812E+02 -0.21806043020E+02  0.80412105147E+02  0.00000000000E+00 0. -1.
         11    1    1    2    0    0  0.27895247135E+02 -0.92714128532E+01  0.18870281997E+02  0.34931238908E+02  0.00000000000E+00 0.  1.
</event>
<event>
 7    1  0.5109948E-006  0.1107388E+03  0.7561462E-02  0.1259208E+00
          2   -1    0    0  501    0  0.00000000000E+00  0.00000000000E+00  0.98079828680E+03  0.98079828680E+03  0.00000000000E+00 0.  1.
         -2   -1    0    0    0  501 -0.00000000000E+00 -0.00000000000E+00 -0.13345618229E+02  0.13345618229E+02  0.00000000000E+00 0. -1.
         23    2    1    2    0    0  0.30664228725E+02  0.27766007512E+02  0.55933352004E+03  0.57464135040E+03  0.12508976322E+03 0.  0.
          5    1    3    3  502    0 -0.66764569916E+01  0.72431949868E+02  0.28482975052E+03  0.29400071705E+03  0.41800000000E+01 0. -1.
         -5    1    3    3    0  502  0.37340685717E+02 -0.44665942356E+02  0.27450376951E+03  0.28064063336E+03  0.41800000000E+01 0. -1.
        -11    1    1    2    0    0 -0.17902768878E+02 -0.56254313386E+02  0.33239432551E+03  0.33759597827E+03  0.00000000000E+00 0.  1.
         11    1    1    2    0    0 -0.12761459847E+02  0.28488305874E+02  0.75724823025E+02  0.81906576361E+02  0.00000000000E+00 0. -1.
</event>
<event>
 7    1  0.5109948E-006  0.2004890E+03  0.7561462E-02  0.1149327E+00
          4   -1    0    0  501    0  0.00000000000E+00  0.00000000000E+00  0.15866621014E+04  0.15866621014E+04  0.00000000000E+00 0. -1.
         -4   -1    0    0    0  501 -0.00000000000E+00 -0.00000000000E+00 -0.27765586505E+02  0.27765586505E+02  0.00000000000E+00 0.  1.
         23    2    1    2    0    0  0.17009788098E+03  0.29993968047E+02  0.62321149690E+03  0.65869087823E+03  0.12509266955E+03 0.  0.
          5    1    3    3  502    0  0.55145367909E+02 -0.46866497846E+02  0.26361368919E+03  0.27339921315E+03  0.41800000000E+01 0.  1.
         -5    1    3    3    0  502  0.11495251307E+03  0.76860465892E+02  0.35959780771E+03  0.38529166509E+03  0.41800000000E+01 0.  1.
        -11    1    1    2    0    0 -0.92374255368E+02  0.24077730315E+02  0.36637376905E+03  0.37860596773E+03  0.00000000000E+00 0.  1.
         11    1    1    2    0    0 -0.77723625608E+02 -0.54071698362E+02  0.56931124891E+03  0.57713084190E+03  0.00000000000E+00 0. -1.
</event>
<event>
 7    1  0.5109948E-006  0.1196346E+03  0.7561462E-02  0.1243701E+00
         -2   -1    0    0    0  501 -0.00000000000E+00  0.00000000000E+00  0.31906407112E+03  0.31906407112E+03  0.00000000000E+00 0.  1.
          2   -1    0    0  501    0  0.00000000000E+00 -0.00000000000E+00 -0.51992631019E+02  0.51992631019E+02  0.00000000000E+00 0. -1.
         23    2    1    2    0    0 -0.29667339247E+02  0.41855729917E+02  0.20841144983E+03  0.24842094776E+03  0.12508229979E+03 0.  0.
          5    1    3    3  502    0 -0.39523527382E+02 -0.35983797022E+02  0.59784441282E+02  0.80303142431E+02  0.41800000000E+01 0.  1.
         -5    1    3    3    0  502  0.98561881349E+01  0.77839526939E+02  0.14862700855E+03  0.16811780533E+03  0.41800000000E+01 0.  1.
        -11    1    1    2    0    0 -0.17001327884E+02 -0.55834974535E+02  0.25435441445E+02  0.63667505155E+02  0.00000000000E+00 0. -1.
         11    1    1    2    0    0  0.46668667131E+02  0.13979244618E+02  0.33224548825E+02  0.58968249224E+02  0.00000000000E+00 0.  1.
</event>
<event>
 6    1  0.5109948E-006  0.1364480E+03  0.7561462E-02  0.1218190E+00
         -4   -1    0    0    0  501 -0.00000000000E+00  0.00000000000E+00  0.57636036225E+03  0.57636036225E+03  0.00000000000E+00 0.  1.
          4   -1    0    0  501    0  0.00000000000E+00 -0.00000000000E+00 -0.48059875912E+02  0.48059875912E+02  0.00000000000E+00 0. -1.
          5    1    1    2  502    0 -0.73076260184E+02  0.94251103287E+02  0.10895216014E+03  0.16159039536E+03  0.41800000000E+01 0. -1.
         -5    1    1    2    0  502  0.15757486860E+02 -0.35568017713E+02  0.23026560561E+03  0.23356605876E+03  0.41800000000E+01 0.  1.
        -11    1    1    2    0    0  0.19763142797E+02  0.19459724857E+02  0.86020262112E+01  0.29038897356E+02  0.00000000000E+00 0. -1.
         11    1    1    2    0    0  0.37555630527E+02 -0.78142810431E+02  0.18048069438E+03  0.20022488669E+03  0.00000000000E+00 0.  1.
</event>
<event>
 7    1  0.5109948E-006  0.1324433E+03  0.7561462E-02  0.1223875E+00
          2   -1    0    0  501    0  0.00000000000E+00  0.00000000000E+00  0.45901301083E+03  0.45901301083E+03  0.00000000000E+00 0. -1.
         -2   -1    0    0    0  501 -0.00000000000E+00 -0.00000000000E+00 -0.38816765727E+02  0.38816765727E+02  0.00000000000E+00 0.  1.
         23    2    1    2    0    0 -0.74261605231E+02 -0.84566665174E+01  0.20672231520E+03  0.25291950331E+03  0.12509139991E+03 0.  0.
          5    1    3    3  502    0 -0.10598691276E+03 -0.25876727746E+02  0.15909185294E+03  0.19295212045E+03  0.41800000000E+01 0.  1.
         -5    1    3    3    0  502  0.31725307532E+02  0.17420061229E+02  0.47630462262E+02  0.59967382855E+02  0.41800000000E+01 0.  1.
        -11    1    1    2    0    0  0.92045818255E+02 -0.11246533093E+02  0.17675499294E+03  0.19960271715E+03  0.00000000000E+00 0. -1.
         11    1    1    2    0    0 -0.17784213024E+02  0.19703199610E+02  0.36718936954E+02  0.45307556089E+02  0.00000000000E+00 0.  1.
</event>
<event>
 7    1  0.5109948E-006  0.2392198E+03  0.7561462E-02  0.1120314E+00
         -2   -1    0    0    0  501 -0.00000000000E+00  0.00000000000E+00  0.45238883197E+02  0.45238883197E+02  0.00000000000E+00 0.  1.
          2   -1    0    0  501    0  0.00000000000E+00 -0.00000000000E+00 -0.14209840965E+04  0.14209840965E+04  0.00000000000E+00 0. -1.
         23    2    1    2    0    0  0.52272250306E+01  0.22808446673E+03 -0.70623298662E+03  0.75263758398E+03  0.12509377915E+03 0.  0.
          5    1    3    3  502    0 -0.23952114357E+01  0.23513652602E+03 -0.57942513907E+03  0.62533661902E+03  0.41800000000E+01 0. -1.
         -5    1    3    3    0  502  0.76224364662E+01 -0.70520592904E+01 -0.12680784755E+03  0.12730096496E+03  0.41800000000E+01 0. -1.
        -11    1    1    2    0    0  0.18770855860E+02 -0.10029543700E+03 -0.42012315274E+03  0.43233665491E+03  0.00000000000E+00 0. -1.
         11    1    1    2    0    0 -0.23998080890E+02 -0.12778902973E+03 -0.24938907398E+03  0.28124874084E+03  0.00000000000E+00 0.  1.
</event>
<event>
 7    1  0.5109948E-006  0.1026099E+03  0.7561462E-02  0.1274902E+00
         -1   -1    0    0    0  501 -0.00000000000E+00  0.00000000000E+00  0.28472999271E+03  0.28472999271E+03  0.00000000000E+00 0.  1.
          1   -1    0    0  501    0  0.00000000000E+00 -0.00000000000E+00 -0.45378167607E+02  0.45378167607E+02  0.00000000000E+00 0. -1.
         23    2    1    2    0    0  0.60775135553E+01  0.42624499991E+02  0.14289526503E+03  0.19472595214E+03  0.12508139549E+03 0.  0.
          5    1    3    3  502    0 -0.58002119209E+02  0.15000543376E+02  0.84336775060E+02  0.10353466164E+03  0.41800000000E+01 0. -1.
         -5    1    3    3    0  502  0.64079632764E+02  0.27623956615E+02  0.58558489967E+02  0.91191290491E+02  0.41800000000E+01 0. -1.
        -11    1    1    2    0    0  0.11055292823E+02  0.12994133702E+02 -0.55507188174E+01  0.17940944497E+02  0.00000000000E+00 0. -1.
         11    1    1    2    0    0 -0.17132806378E+02 -0.55618633693E+02  0.10200727889E+03  0.11744126368E+03  0.00000000000E+00 0.  1.
</event>
<event>
 7    1  0.5109948E-006  0.1676805E+03  0.7561462E-02  0.1180289E+00
         -1   -1    0    0    0  501 -0.00000000000E+00  0.00000000000E+00  0.23065264328E+03  0.23065264328E+03  0.00000000000E+00 0.  1.
          1   -1    0    0  501    0  0.00000000000E+00 -0.00000000000E+00 -0.13723139972E+03  0.13723139972E+03  0.00000000000E+00 0. -1.
         23    2    1    2    0    0  0.39917798917E+02 -0.12574838090E+03  0.94559484106E+02  0.20492635695E+03  0.12508888747E+03 0.  0.
          5    1    3    3  502    0  0.71072771800E+02 -0.25893038540E+02  0.27455752329E+02  0.80579644279E+02  0.41800000000E+01 0.  1.
         -5    1    3    3    0  502 -0.31154972884E+02 -0.99855342359E+02  0.67103731776E+02  0.12434671267E+03  0.41800000000E+01 0.  1.
        -11    1    1    2    0    0  0.84452654798E+01  0.99561938599E+02  0.23574926461E+02  0.10266294017E+03  0.00000000000E+00 0.  1.
         11    1    1    2    0    0 -0.48363064396E+02  0.26186442299E+02 -0.24713166998E+02  0.60294745884E+02  0.00000000000E+00 0. -1.
</event>
<event>
 7    1  0.5109948E-006  0.1237862E+03  0.7561462E-02  0.1236979E+00
          2   -1    0    0  501    0  0.00000000000E+00  0.00000000000E+00  0.96858871252E+03  0.96858871252E+03  0.00000000000E+00 0.  1.
         -2   -1    0    0    0  501 -0.00000000000E+00 -0.00000000000E+00 -0.16734437495E+02  0.16734437495E+02  0.00000000000E+00 0. -1.
         23    2    1    2    0    0 -0.60081529367E+02  0.28519369098E+02  0.51010129257E+03  0.52940882040E+03  0.12508887182E+03 0.  0.
          5    1    3    3  502    0 -0.88835666368E+02 -0.86648865463E+01  0.39556701983E+03  0.40553371680E+03  0.41800000000E+01 0. -1.
         -5    1    3    3    0  502  0.28754137001E+02  0.37184255645E+02  0.11453427273E+03  0.12387510361E+03  0.41800000000E+01 0. -1.
        -11    1    1    2    0    0  0.52083628674E+02 -0.59473772466E+02  0.34776503552E+03  0.35663756661E+03  0.00000000000E+00 0.  1.
         11    1    1    2    0    0  0.79979006925E+01  0.30954403367E+02  0.93987946936E+02  0.99276763004E+02  0.00000000000E+00 0. -1.
</event>
<event>
 7    1  0.5109948E-006  0.1219563E+03  0.7561462E-02  0.1239904E+00
          1   -1    0    0  501    0  0.00000000000E+00  0.00000000000E+00  0.48486875891E+03  0.48486875891E+03  0.00000000000E+00 0. -1.
         -1   -1    0    0    0  501 -0.00000000000E+00 -0.00000000000E+00 -0.39224750184E+02  0.39224750184E+02  0.00000000000E+00 0.  1.
         23    2    1    2    0    0 -0.67872747478E+02 -0.41944467630E+02  0.18933525537E+03  0.24033908067E+03  0.12469557553E+03 0.  0.
          5    1    3    3  502    0  0.43731979883E+01 -0.50590505928E+02  0.17813057817E+02  0.53975008842E+02  0.41800000000E+01 0. -1.
         -5    1    3    3    0  502 -0.72245945467E+02  0.86460382980E+01  0.17152219755E+03  0.18636407182E+03  0.41800000000E+01 0.  1.
        -11    1    1    2    0    0  0.45772365502E+02  0.70448256744E+02  0.19943848789E+03  0.21641112904E+03  0.00000000000E+00 0. -1.
         11    1    1    2    0    0  0.22100381977E+02 -0.28503789114E+02  0.56870265469E+02  0.67343299384E+02  0.00000000000E+00 0.  1.
</event>
<event>
 7    1  0.5109948E-006  0.1623118E+03  0.7561462E-02  0.1186111E+00
          1   -1    0    0  501    0  0.00000000000E+00  0.00000000000E+00  0.30473960138E+03  0.30473960138E+03  0.00000000000E+00 0. -1.
         -1   -1    0    0    0  501 -0.00000000000E+00 -0.00000000000E+00 -0.10886674643E+03  0.10886674643E+03  0.00000000000E+00 0.  1.
         23    2    1    2    0    0  0.26294061882E+02 -0.13159624035E+03  0.39066706666E+02  0.18757132358E+03  0.12509134940E+03 0.  0.
          5    1    3    3  502    0  0.52687834108E+02 -0.14255356024E+03  0.43991073619E+02  0.15827258877E+03  0.41800000000E+01 0. -1.
         -5    1    3    3    0  502 -0.26393772226E+02  0.10957319883E+02 -0.49243669531E+01  0.29298734805E+02  0.41800000000E+01 0. -1.
        -11    1    1    2    0    0 -0.41602071411E+02  0.10612783789E+03  0.68791132851E+02  0.13313928902E+03  0.00000000000E+00 0. -1.
         11    1    1    2    0    0  0.15308009528E+02  0.25468402462E+02  0.88015015427E+02  0.92895735210E+02  0.00000000000E+00 0.  1.
</event>
<event>
 7    1  0.5109948E-006  0.1167941E+03  0.7561462E-02  0.1248481E+00
         -3   -1    0    0    0  501 -0.00000000000E+00  0.00000000000E+00  0.72868459831E+02  0.72868459831E+02  0.00000000000E+00 0.  1.
          3   -1    0    0  501    0  0.00000000000E+00 -0.00000000000E+00 -0.27242265096E+03  0.27242265096E+03  0.00000000000E+00 0. -1.
         23    2    1    2    0    0  0.58074378161E+02  0.62806014120E+02 -0.74326501009E+02  0.16878837053E+03  0.12509139245E+03 0.  0.
          5    1    3    3  502    0 -0.33872552634E-01 -0.34202102829E+02 -0.20488334288E+01  0.34517460853E+02  0.41800000000E+01 0. -1.
         -5    1    3    3    0  502  0.58108250713E+02  0.97008116949E+02 -0.72277667580E+02  0.13427090968E+03  0.41800000000E+01 0. -1.
        -11    1    1    2    0    0 -0.37825351628E+02 -0.46725146563E+02 -0.13584318117E+03  0.14855088831E+03  0.00000000000E+00 0. -1.
         11    1    1    2    0    0 -0.20249026533E+02 -0.16080867556E+02  0.10615491055E+02  0.27951851946E+02  0.00000000000E+00 0.  1.
</event>
<event>
 7    1  0.5109948E-006  0.9687221E+02  0.7561462E-02  0.1287014E+00
         -1   -1    0    0    0  501 -0.00000000000E+00  0.00000000000E+00  0.47509422183E+02  0.47509422183E+02  0.00000000000E+00 0.  1.
          1   -1    0    0  501    0  0.00000000000E+00 -0.00000000000E+00 -0.29012578611E+03  0.29012578611E+03  0.00000000000E+00 0. -1.
         23    2    1    2    0    0  0.26171116877E+02  0.24494421435E+02 -0.17977954325E+03  0.22192886799E+03  0.12508730646E+03 0.  0.
          5    1    3    3  502    0 -0.41658475754E+02 -0.31264412152E+01 -0.12052972442E+03  0.12763263731E+03  0.41800000000E+01 0.  1.
         -5    1    3    3    0  502  0.67829592631E+02  0.27620862650E+02 -0.59249818831E+02  0.94296230686E+02  0.41800000000E+01 0.  1.
        -11    1    1    2    0    0 -0.50324233040E+02 -0.16318975315E+02 -0.57899984786E+01  0.53219934881E+02  0.00000000000E+00 0.  1.
         11    1    1    2    0    0  0.24153116163E+02 -0.81754461201E+01 -0.57046822198E+02  0.62486405422E+02  0.00000000000E+00 0. -1.
</event>
<event>
 7    1  0.5109948E-006  0.1280853E+03  0.7561462E-02  0.1230325E+00
         -2   -1    0    0    0  501 -0.00000000000E+00  0.00000000000E+00  0.15617483930E+02  0.15617483930E+02  0.00000000000E+00 0.  1.
          2   -1    0    0  501    0  0.00000000000E+00 -0.00000000000E+00 -0.12085381139E+04  0.12085381139E+04  0.00000000000E+00 0. -1.
         23    2    1    2    0    0  0.80280595959E+02  0.54936403244E+01 -0.55716366772E+03  0.57667500088E+03  0.12509016684E+03 0.  0.
          5    1    3    3  502    0 -0.19809021284E+02 -0.23032351179E+02 -0.47946264714E+02  0.56913998498E+02  0.41800000000E+01 0. -1.
         -5    1    3    3    0  502  0.10008961724E+03  0.28525991503E+02 -0.50921740301E+03  0.51976100238E+03  0.41800000000E+01 0. -1.
        -11    1    1    2    0    0  0.79945972559E+01 -0.28928854394E+02 -0.11980715780E+03  0.12350930030E+03  0.00000000000E+00 0.  1.
         11    1    1    2    0    0 -0.88275193215E+02  0.23435214070E+02 -0.51594980441E+03  0.52397129661E+03  0.00000000000E+00 0. -1.
</event>
<event>
 7    1  0.5109948E-006  0.1006117E+03  0.7561462E-02  0.1279015E+00
         -2   -1    0    0    0  501 -0.00000000000E+00  0.00000000000E+00  0.91165020965E+02  0.91165020965E+02  0.00000000000E+00 0.  1.
          2   -1    0    0  501    0  0.00000000000E+00 -0.00000000000E+00 -0.13506535196E+03  0.13506535196E+03  0.00000000000E+00 0. -1.
         23    2    1    2    0    0 -0.78388712255E+01  0.99224454615E+01 -0.75419605301E+01  0.12595469626E+03  0.12509117281E+03 0.  0.
          5    1    3    3  502    0  0.51836524495E+02 -0.71202406374E+01  0.22219907326E+02  0.56999296312E+02  0.41800000000E+01 0.  1.
         -5    1    3    3    0  502 -0.59675395720E+02  0.17042686099E+02 -0.29761867856E+02  0.68955399949E+02  0.41800000000E+01 0.  1.
        -11    1    1    2    0    0 -0.19203070043E+02  0.31601429114E+02 -0.34676944959E+02  0.50694168627E+02  0.00000000000E+00 0. -1.
         11    1    1    2    0    0  0.27041941269E+02 -0.41523874575E+02 -0.16814255041E+01  0.49581508035E+02  0.00000000000E+00 0.  1.
</event>
<event>
 7    1  0.5109948E-006  0.1012419E+03  0.7561462E-02  0.1277706E+00
         -2   -1    0    0    0  501 -0.00000000000E+00  0.00000000000E+00  0.14596075814E+03  0.14596075814E+03  0.00000000000E+00 0.  1.
          2   -1    0    0  501    0  0.00000000000E+00 -0.00000000000E+00 -0.11561248269E+03  0.11561248269E+03  0.00000000000E+00 0. -1.
         23    2    1    2    0    0 -0.32749197024E+02 -0.55994565131E+02  0.46406281246E+02  0.14835552492E+03  0.12509163684E+03 0.  0.
          5    1    3    3  502    0 -0.16701666724E+02 -0.86994268955E+02  0.63687694874E+02  0.10918124097E+03  0.41800000000E+01 0. -1.
         -5    1    3    3    0  502 -0.16047530300E+02  0.30999703824E+02 -0.17281413628E+02  0.39174283949E+02  0.41800000000E+01 0. -1.
        -11    1    1    2    0    0  0.40337704625E+02  0.26674596558E+02  0.30864720301E+02  0.57369813275E+02  0.00000000000E+00 0.  1.
         11    1    1    2    0    0 -0.75885076011E+01  0.29319968573E+02 -0.46922726092E+02  0.55847902634E+02  0.00000000000E+00 0. -1.
</event>
<event>
 7    1  0.5109948E-006  0.1039829E+03  0.7561462E-02  0.1272137E+00
         -2   -1    0    0    0  501 -0.00000000000E+00  0.00000000000E+00  0.49846771335E+02  0.49846771335E+02  0.00000000000E+00 0.  1.
          2   -1    0    0  501    0  0.00000000000E+00 -0.00000000000E+00 -0.43717836019E+03  0.43717836019E+03  0.00000000000E+00 0. -1.
         23    2    1    2    0    0 -0.27523666607E+01 -0.75170655508E+02 -0.10733286125E+03  0.18101054783E+03  0.12484499330E+03 0.  0.
          5    1    3    3  502    0 -0.28565771119E+02 -0.14857265492E+02  0.19698868891E+02  0.37977091161E+02  0.41800000000E+01 0. -1.
         -5    1    3    3    0  502  0.25813404458E+02 -0.60313390016E+02 -0.12703173014E+03  0.14303345667E+03  0.41800000000E+01 0. -1.
        -11    1    1    2    0    0 -0.25001919023E+02 -0.44900117365E+01 -0.14215704183E+03  0.14440872793E+03  0.00000000000E+00 0. -1.
         11    1    1    2    0    0  0.27754285683E+02  0.79660667244E+02 -0.13784168578E+03  0.16160585577E+03  0.00000000000E+00 0.  1.
</event>
<event>
 7    1  0.5109948E-006  0.1621499E+03  0.7561462E-02  0.1186291E+00
         -3   -1    0    0    0  501 -0.00000000000E+00  0.00000000000E+00  0.68614373141E+03  0.68614373141E+03  0.00000000000E+00 0.  1.
          3   -1    0    0  501    0  0.00000000000E+00 -0.00000000000E+00 -0.50837125871E+02  0.50837125871E+02  0.00000000000E+00 0. -1.
         23    2    1    2    0    0  0.81401976443E+02 -0.12537542958E+03  0.38222427377E+03  0.42905598148E+03  0.12509340380E+03 0.  0.
          5    1    3    3  502    0  0.89676950681E+02 -0.11772018791E+03  0.38831442117E+03  0.41557858488E+03  0.41800000000E+01 0.  1.
         -5    1    3    3    0  502 -0.82749742382E+01 -0.76552416758E+01 -0.60901473987E+01  0.13477396599E+02  0.41800000000E+01 0.  1.
        -11    1    1    2    0    0 -0.45661145726E+02  0.11960898734E+03  0.14249382727E+03  0.19156132410E+03  0.00000000000E+00 0. -1.
         11    1    1    2    0    0 -0.35740830717E+02  0.57664422429E+01  0.11058850449E+03  0.11636355169E+03  0.00000000000E+00 0.  1.
</event>
<event>
 6    1  0.5109948E-006  0.1431361E+03  0.7561462E-02  0.1209170E+00
         -1   -1    0    0    0  501 -0.00000000000E+00  0.00000000000E+00  0.65244868891E+03  0.65244868891E+03  0.00000000000E+00 0.  1.
          1   -1    0    0  501    0  0.00000000000E+00 -0.00000000000E+00 -0.13115297870E+03  0.13115297870E+03  0.00000000000E+00 0. -1.
          5    1    1    2  502    0 -0.73058149556E+01 -0.63261743729E+02  0.18173101509E+02  0.66356289606E+02  0.41800000000E+01 0. -1.
         -5    1    1    2    0  502  0.68270068575E+02  0.10533962669E+03  0.52996113107E+03  0.54464071833E+03  0.41800000000E+01 0.  1.
        -11    1    1    2    0    0  0.11999741288E+02 -0.14577299306E+02  0.55846807226E+02  0.58952161312E+02  0.00000000000E+00 0.  1.
         11    1    1    2    0    0 -0.72963994908E+02 -0.27500583660E+02 -0.82685329599E+02  0.11365249837E+03  0.00000000000E+00 0. -1.
</event>
<event>
 7    1  0.5109948E-006  0.8151216E+02  0.7561462E-02  0.1324814E+00
         -2   -1    0    0    0  501 -0.00000000000E+00  0.00000000000E+00  0.32997325294E+02  0.32997325294E+02  0.00000000000E+00 0. -1.
          2   -1    0    0  501    0  0.00000000000E+00 -0.00000000000E+00 -0.53027034398E+03  0.53027034398E+03  0.00000000000E+00 0.  1.
         23    2    1    2    0    0  0.51948035391E+02  0.23534833448E+01 -0.15853631743E+03  0.20853027217E+03  0.12508786193E+03 0.  0.
          5    1    3    3  502    0  0.21921104355E+02 -0.20953509289E+02  0.12651965283E+02  0.33122937569E+02  0.41800000000E+01 0. -1.
         -5    1    3    3    0  502  0.30026931036E+02  0.23306992634E+02 -0.17118828272E+03  0.17540733460E+03  0.41800000000E+01 0. -1.
        -11    1    1    2    0    0  0.20901697851E+02 -0.41099508213E+01 -0.25945315955E+02  0.33569809187E+02  0.00000000000E+00 0. -1.
         11    1    1    2    0    0 -0.72849733242E+02  0.17564674764E+01 -0.31279138529E+03  0.32116758791E+03  0.00000000000E+00 0.  1.
</event>
<event>
 7    1  0.5109948E-006  0.1101329E+03  0.7561462E-02  0.1260324E+00
          3   -1    0    0  501    0  0.00000000000E+00  0.00000000000E+00  0.75670167767E+02  0.75670167767E+02  0.00000000000E+00 0. -1.
         -3   -1    0    0    0  501 -0.00000000000E+00 -0.00000000000E+00 -0.25110514021E+03  0.25110514021E+03  0.00000000000E+00 0.  1.
         23    2    1    2    0    0 -0.31098279598E+02  0.72169456484E+02 -0.13489591430E+03  0.20005369621E+03  0.12509612396E+03 0.  0.
          5    1    3    3  502    0 -0.72959523234E+02  0.64586422656E+02 -0.62060392693E+02  0.11560044448E+03  0.41800000000E+01 0.  1.
         -5    1    3    3    0  502  0.41861243636E+02  0.75830338278E+01 -0.72835521602E+02  0.84453251731E+02  0.41800000000E+01 0.  1.
        -11    1    1    2    0    0  0.19937529357E+02 -0.27627906654E+02 -0.65957351909E+02  0.74237312544E+02  0.00000000000E+00 0.  1.
         11    1    1    2    0    0  0.11160750242E+02 -0.44541549830E+02  0.25418293762E+02  0.52484299224E+02  0.00000000000E+00 0. -1.
</event>
<event>
 7    1  0.5109948E-006  0.1403265E+03  0.7561462E-02  0.1212890E+00
          2   -1    0    0  501    0  0.00000000000E+00  0.00000000000E+00  0.10400038913E+04  0.10400038913E+04  0.00000000000E+00 0. -1.
         -2   -1    0    0    0  501 -0.00000000000E+00 -0.00000000000E+00 -0.22018744608E+02  0.22018744608E+02  0.00000000000E+00 0.  1.
         23    2    1    2    0    0 -0.15275993207E+02  0.96507768243E+02  0.69362319948E+03  0.71155290555E+03  0.12508912523E+03 0.  0.
          5    1    3    3  502    0  0.14049885837E+02 -0.23987886936E+02  0.22620513404E+03  0.22794528527E+03  0.41800000000E+01 0. -1.
         -5    1    3    3    0  502 -0.29325879044E+02  0.12049565518E+03  0.46741806544E+03  0.48360762028E+03  0.41800000000E+01 0. -1.
        -11    1    1    2    0    0 -0.24268433331E+02 -0.83303856424E+02  0.25698427775E+03  0.27123681232E+03  0.00000000000E+00 0.  1.
         11    1    1    2    0    0  0.39544426537E+02 -0.13203911818E+02  0.67377669516E+02  0.79232918076E+02  0.00000000000E+00 0. -1.
</event>
<event>
 7    1  0.5109948E-006  0.1452872E+03  0.7561462E-02  0.1206387E+00
          2   -1    0    0  501    0  0.00000000000E+00  0.00000000000E+00  0.13284015472E+03  0.13284015472E+03  0.00000000000E+00 0. -1.
         -2   -1    0    0    0  501 -0.00000000000E+00 -0.00000000000E+00 -0.19617937050E+03  0.19617937050E+03  0.00000000000E+00 0.  1.
         23    2    1    2    0    0  0.93573958017E+02 -0.74029673955E+02 -0.31516468358E+02  0.17571238154E+03  0.12508027424E+03 0.  0.
          5    1    3    3  502    0 -0.70789598169E+01  0.22279496838E+02  0.15806706476E+02  0.28527390716E+02  0.41800000000E+01 0.  1.
         -5    1    3    3    0  502  0.10065291783E+03 -0.96309170793E+02 -0.47323174833E+02  0.14718499082E+03  0.41800000000E+01 0.  1.
        -11    1    1    2    0    0 -0.57282825359E+02  0.70728626489E+02  0.16790971661E+02  0.92551593262E+02  0.00000000000E+00 0. -1.
         11    1    1    2    0    0 -0.36291132659E+02  0.33010474660E+01 -0.48613719080E+02  0.60755550420E+02  0.00000000000E+00 0.  1.
</event>
<event>
 7    1  0.5109948E-006  0.2228865E+03  0.7561462E-02  0.1131749E+00
          3   -1    0    0  501    0  0.00000000000E+00  0.00000000000E+00  0.19973369843E+03  0.19973369843E+03  0.00000000000E+00 0. -1.
         -3   -1    0    0    0  501 -0.00000000000E+00 -0.00000000000E+00 -0.31036271204E+03  0.31036271204E+03  0.00000000000E+00 0.  1.
         23    2    1    2    0    0  0.13733315715E+03  0.17044866060E+03 -0.10746448120E+03  0.27406172858E+03  0.12509226356E+03 0.  0.
          5    1    3    3  502    0  0.90539123332E+02  0.92689506485E+02  0.46955443399E+01  0.12972354452E+03  0.41800000000E+01 0.  1.
         -5    1    3    3    0  502  0.46794033817E+02  0.77759154116E+02 -0.11216002554E+03  0.14433818406E+03  0.41800000000E+01 0.  1.
        -11    1    1    2    0    0 -0.10400844784E+03 -0.87593986679E+02  0.32602224976E+02  0.13983336082E+03  0.00000000000E+00 0. -1.
         11    1    1    2    0    0 -0.33324709305E+02 -0.82854673923E+02 -0.35766757380E+02  0.96201321065E+02  0.00000000000E+00 0.  1.
</event>
<event>
 7    1  0.5109948E-006  0.1285078E+03  0.7561462E-02  0.1229687E+00
          2   -1    0    0  501    0  0.00000000000E+00  0.00000000000E+00  0.31107292075E+03  0.31107292075E+03  0.00000000000E+00 0.  1.
         -2   -1    0    0    0  501 -0.00000000000E+00 -0.00000000000E+00 -0.89131049727E+02  0.89131049727E+02  0.00000000000E+00 0. -1.
         23    2    1    2    0    0  0.33609067941E+02 -0.85038494551E+02  0.16036453554E+02  0.15575287729E+03  0.12506268804E+03 0.  0.
          5    1    3    3  502    0 -0.30028166491E+02  0.15253876562E+02  0.14459603437E+02  0.36890704311E+02  0.41800000000E+01 0.  1.
         -5    1    3    3    0  502  0.63637234432E+02 -0.10029237111E+03  0.15768501172E+01  0.11886217298E+03  0.41800000000E+01 0.  1.
        -11    1    1    2    0    0 -0.45798411306E+02  0.53571643760E+02  0.19746536152E+03  0.20966636471E+03  0.00000000000E+00 0.  1.
         11    1    1    2    0    0  0.12189343365E+02  0.31466850790E+02  0.84400559534E+01  0.34784728471E+02  0.00000000000E+00 0. -1.
</event>
<event>
 7    1  0.5109948E-006  0.2220899E+03  0.7561462E-02  0.1132334E+00
         -2   -1    0    0    0  501 -0.00000000000E+00  0.00000000000E+00  0.48826446599E+02  0.48826446599E+02  0.00000000000E+00 0.  1.
          2   -1    0    0  501    0  0.00000000000E+00 -0.00000000000E+00 -0.11095944550E+04  0.11095944550E+04  0.00000000000E+00 0. -1.
         23    2    1    2    0    0 -0.18882961976E+03  0.56859314241E+02 -0.40262492783E+03  0.46544984095E+03  0.12508842879E+03 0.  0.
          5    1    3    3  502    0 -0.41411476361E+02  0.70526520079E+02 -0.18374612330E+03  0.20116910955E+03  0.41800000000E+01 0.  1.
         -5    1    3    3    0  502 -0.14741814340E+03 -0.13667205838E+02 -0.21887880453E+03  0.26428073140E+03  0.41800000000E+01 0.  1.
        -11    1    1    2    0    0  0.15934441512E+03 -0.11085309002E+02 -0.53481899441E+03  0.55816205844E+03  0.00000000000E+00 0. -1.
         11    1    1    2    0    0  0.29485204633E+02 -0.45774005239E+02 -0.12332408619E+03  0.13480900223E+03  0.00000000000E+00 0.  1.
</event>
<event>
 7    1  0.5109948E-006  0.7878769E+02  0.7561462E-02  0.1332527E+00
         -1   -1    0    0    0  501 -0.00000000000E+00  0.00000000000E+00  0.28127174039E+03  0.28127174039E+03  0.00000000000E+00 0.  1.
          1   -1    0    0  501    0  0.00000000000E+00 -0.00000000000E+00 -0.51798388914E+02  0.51798388914E+02  0.00000000000E+00 0. -1.
         23    2    1    2    0    0 -0.76587509538E+01  0.47676430238E+02  0.17673321983E+03  0.22184046674E+03  0.12508742234E+03 0.  0.
          5    1    3    3  502    0 -0.16143581060E+02  0.70566069589E+01 -0.16293770230E+02  0.24359192505E+02  0.41800000000E+01 0. -1.
         -5    1    3    3    0  502  0.84848301058E+01  0.40619823279E+02  0.19302699005E+03  0.19748127424E+03  0.41800000000E+01 0. -1.
        -11    1    1    2    0    0  0.32183682835E+02 -0.61642624964E+02  0.40444574587E+02  0.80444802609E+02  0.00000000000E+00 0.  1.
         11    1    1    2    0    0 -0.24524931881E+02  0.13966194726E+02  0.12295557067E+02  0.30784859956E+02  0.00000000000E+00 0. -1.
</event>
<event>
 7    1  0.5109948E-006  0.9176982E+02  0.7561462E-02  0.1298622E+00
          1   -1    0    0  501    0  0.00000000000E+00  0.00000000000E+00  0.21216846061E+03  0.21216846061E+03  0.00000000000E+00 0. -1.
         -1   -1    0    0    0  501 -0.00000000000E+00 -0.00000000000E+00 -0.68779810143E+02  0.68779810143E+02  0.00000000000E+00 0.  1.
         23    2    1    2    0    0 -0.14032440749E+02 -0.49491586463E+02  0.76533824480E+02  0.15540569031E+03  0.12508867162E+03 0.  0.
          5    1    3    3  502    0 -0.21874238729E+02  0.29072260743E+02  0.66218779709E+02  0.75670852056E+02  0.41800000000E+01 0.  1.
         -5    1    3    3    0  502  0.78417979802E+01 -0.78563847206E+02  0.10315044771E+02  0.79734838257E+02  0.41800000000E+01 0.  1.
        -11    1    1    2    0    0 -0.21637398583E+01  0.51488796005E+02 -0.50762203937E+01  0.51783645079E+02  0.00000000000E+00 0.  1.
         11    1    1    2    0    0  0.16196180607E+02 -0.19972095422E+01  0.71931046383E+02  0.73758935364E+02  0.00000000000E+00 0. -1.
</event>
<event>
 7    1  0.5109948E-006  0.1083113E+03  0.7561462E-02  0.1263729E+00
          1   -1    0    0  501    0  0.00000000000E+00  0.00000000000E+00  0.93851026963E+03  0.93851026963E+03  0.00000000000E+00 0. -1.
         -1   -1    0    0    0  501 -0.00000000000E+00 -0.00000000000E+00 -0.12807807189E+02  0.12807807189E+02  0.00000000000E+00 0.  1.
         23    2    1    2    0    0 -0.91915331641E+01  0.27699815094E+02  0.51179974508E+03  0.52767210586E+03  0.12508840155E+03 0.  0.
          5    1    3    3  502    0 -0.49362780938E+02 -0.29974832983E+02  0.21893171867E+03  0.22645914553E+03  0.41800000000E+01 0. -1.
         -5    1    3    3    0  502  0.40171247774E+02  0.57674648077E+02  0.29286802641E+03  0.30121296033E+03  0.41800000000E+01 0. -1.
        -11    1    1    2    0    0 -0.15373568063E+02  0.25464424754E+02  0.10014157191E+03  0.10446586977E+03  0.00000000000E+00 0. -1.
         11    1    1    2    0    0  0.24565101227E+02 -0.53164239848E+02  0.31376114546E+03  0.31918010119E+03  0.00000000000E+00 0.  1.
</event>
<event>
 7    1  0.5109948E-006  0.8359882E+02  0.7561462E-02  0.1319138E+00
         -3   -1    0    0    0  501 -0.00000000000E+00  0.00000000000E+00  0.41165546145E+02  0.41165546145E+02  0.00000000000E+00 0.  1.
          3   -1    0    0  501    0  0.00000000000E+00 -0.00000000000E+00 -0.39834280849E+03  0.39834280849E+03  0.00000000000E+00 0. -1.
         23    2    1    2    0    0  0.10587235142E+02  0.30773892122E+02 -0.95983954247E+02  0.16075474160E+03  0.12477998834E+03 0.  0.
          5    1    3    3  502    0  0.47873512097E+02  0.31075615918E+02 -0.10726337510E+03  0.12157496083E+03  0.41800000000E+01 0. -1.
         -5    1    3    3    0  502 -0.37286276955E+02 -0.30172379626E+00  0.11279420848E+02  0.39179780768E+02  0.41800000000E+01 0.  1.
        -11    1    1    2    0    0  0.45262649545E+01  0.19465676229E+02 -0.10395119176E+02  0.22526831295E+02  0.00000000000E+00 0. -1.
         11    1    1    2    0    0 -0.15113500097E+02 -0.50239568351E+02 -0.25079818892E+03  0.25622678174E+03  0.00000000000E+00 0.  1.
</event>
<event>
 7    1  0.5109948E-006  0.1014762E+03  0.7561462E-02  0.1277222E+00
         -1   -1    0    0    0  501 -0.00000000000E+00  0.00000000000E+00  0.73813595887E+02  0.73813595887E+02  0.00000000000E+00 0.  1.
          1   -1    0    0  501    0  0.00000000000E+00 -0.00000000000E+00 -0.18852814051E+03  0.18852814051E+03  0.00000000000E+00 0. -1.
         23    2    1    2    0    0  0.39392549265E+02  0.32899552287E+02 -0.62886248003E+02  0.14911741105E+03  0.12508864302E+03 0.  0.
          5    1    3    3  502    0 -0.12394574745E+02 -0.25902871896E+02  0.19796856472E+02  0.35127940187E+02  0.41800000000E+01 0.  1.
         -5    1    3    3    0  502  0.51787124010E+02  0.58802424184E+02 -0.82683104475E+02  0.11398947087E+03  0.41800000000E+01 0.  1.
        -11    1    1    2    0    0  0.25600169109E+01  0.24353959752E+02  0.13637631392E+01  0.24526085951E+02  0.00000000000E+00 0.  1.
         11    1    1    2    0    0 -0.41952566176E+02 -0.57253512040E+02 -0.53192059758E+02  0.88698239390E+02  0.00000000000E+00 0. -1.
</event>
<event>
 7    1  0.5109948E-006  0.1585577E+03  0.7561462E-02  0.1190335E+00
         -1   -1    0    0    0  501 -0.00000000000E+00  0.00000000000E+00  0.37031489456E+02  0.37031489456E+02  0.00000000000E+00 0.  1.
          1   -1    0    0  501    0  0.00000000000E+00 -0.00000000000E+00 -0.75113067702E+03  0.75113067702E+03  0.00000000000E+00 0. -1.
         23    2    1    2    0    0  0.10145857933E+03  0.51241247111E+02 -0.26920804122E+03  0.31787130162E+03  0.12509870590E+03 0.  0.
          5    1    3    3  502    0  0.97820715411E+02 -0.15328520226E+02 -0.18969749269E+03  0.21402445427E+03  0.41800000000E+01 0.  1.
         -5    1    3    3    0  502  0.36378639146E+01  0.66569767337E+02 -0.79510548530E+02  0.10384684735E+03  0.41800000000E+01 0.  1.
        -11    1    1    2    0    0 -0.34373411180E+02 -0.72999470867E+02 -0.26714986089E+03  0.27906899204E+03  0.00000000000E+00 0. -1.
         11    1    1    2    0    0 -0.67085168146E+02  0.21758223756E+02 -0.17774128546E+03  0.19122187281E+03  0.00000000000E+00 0.  1.
</event>
<event>
 7    1  0.5109948E-006  0.1227067E+03  0.7561462E-02  0.1238697E+00
          2   -1    0    0  501    0  0.00000000000E+00  0.00000000000E+00  0.12138790537E+03  0.12138790537E+03  0.00000000000E+00 0. -1.
         -2   -1    0    0    0  501 -0.00000000000E+00 -0.00000000000E+00 -0.15429956185E+03  0.15429956185E+03  0.00000000000E+00 0.  1.
         23    2    1    2    0    0 -0.14648234673E+02  0.81155087227E+02 -0.90302123873E+01  0.15009755285E+03  0.12508801571E+03 0.  0.
          5    1    3    3  502    0  0.21885798934E+02  0.10250767506E+03  0.58048378859E+01  0.10506179222E+03  0.41800000000E+01 0. -1.
         -5    1    3    3    0  502 -0.36534033608E+02 -0.21352587833E+02 -0.14835050273E+02  0.45035760629E+02  0.41800000000E+01 0. -1.
        -11    1    1    2    0    0 -0.17516651312E+02 -0.50907267678E+02 -0.50681888438E+02  0.73939412976E+02  0.00000000000E+00 0.  1.
         11    1    1    2    0    0  0.32164885985E+02 -0.30247819548E+02  0.26800444344E+02  0.51650501401E+02  0.00000000000E+00 0. -1.
</event>
<event>
 7    1  0.5109948E-006  0.7606462E+02  0.7561462E-02  0.1340606E+00
          1   -1    0    0  501    0  0.00000000000E+00  0.00000000000E+00  0.63377403303E+02  0.63377403303E+02  0.00000000000E+00 0. -1.
         -1   -1    0    0    0  501 -0.00000000000E+00 -0.00000000000E+00 -0.20323354089E+03  0.20323354089E+03  0.00000000000E+00 0.  1.
         23    2    1    2    0    0  0.72906382523E+01  0.33151823014E+02 -0.10007136492E+03  0.16375061524E+03  0.12509112334E+03 0.  0.
          5    1    3    3  502    0  0.39455018547E+02  0.35417354363E+02  0.53278041986E+01  0.53450401086E+02  0.41800000000E+01 0. -1.
         -5    1    3    3    0  502 -0.32164380295E+02 -0.22655313496E+01 -0.10539916912E+03  0.11030021415E+03  0.41800000000E+01 0. -1.
        -11    1    1    2    0    0  0.23028149413E+02 -0.27014215725E+02  0.16105852114E+02  0.38980276922E+02  0.00000000000E+00 0. -1.
         11    1    1    2    0    0 -0.30318787665E+02 -0.61376072885E+01 -0.55890624779E+02  0.63880052027E+02  0.00000000000E+00 0.  1.
</event>
<event>
 7    1  0.5109948E-006  0.1019442E+03  0.7561462E-02  0.1276260E+00
          2   -1    0    0  501    0  0.00000000000E+00  0.00000000000E+00  0.31706161866E+03  0.31706161866E+03  0.00000000000E+00 0. -1.
         -2   -1    0    0    0  501 -0.00000000000E+00 -0.00000000000E+00 -0.59600920624E+02  0.59600920624E+02  0.00000000000E+00 0.  1.
         23    2    1    2    0    0 -0.25582540552E+02  0.79158315828E+02  0.12999876495E+03  0.19866335670E+03  0.12508774944E+03 0.  0.
          5    1    3    3  502    0  0.21064295582E+02  0.61163858488E+02  0.62429996768E+01  0.65124262595E+02  0.41800000000E+01 0. -1.
         -5    1    3    3    0  502 -0.46646836134E+02  0.17994457340E+02  0.12375576527E+03  0.13353909410E+03  0.41800000000E+01 0. -1.
        -11    1    1    2    0    0  0.32930376901E+02 -0.61384380795E+02  0.25407775365E+02  0.74148546698E+02  0.00000000000E+00 0.  1.
         11    1    1    2    0    0 -0.73478363488E+01 -0.17773935032E+02  0.10205415773E+03  0.10385063589E+03  0.00000000000E+00 0. -1.
</event>
<event>
 7    1  0.5109948E-006  0.1951656E+03  0.7561462E-02  0.1153883E+00
         -2   -1    0    0    0  501 -0.00000000000E+00  0.00000000000E+00  0.47152489488E+02  0.47152489488E+02  0.00000000000E+00 0.  1.
          2   -1    0    0  501    0  0.00000000000E+00 -0.00000000000E+00 -0.89878738076E+03  0.89878738076E+03  0.00000000000E+00 0. -1.
         23    2    1    2    0    0 -0.16775643377E+03 -0.25218694008E+02 -0.35112716146E+03  0.40953294454E+03  0.12509494613E+03 0.  0.
          5    1    3    3  502    0 -0.24275545356E+02  0.42920735497E+02 -0.11178712249E+03  0.12225107276E+03  0.41800000000E+01 0. -1.
         -5    1    3    3    0  502 -0.14348088842E+03 -0.68139429505E+02 -0.23934003897E+03  0.28728187177E+03  0.41800000000E+01 0. -1.
        -11    1    1    2    0    0  0.76257140091E+02  0.44710682505E+02 -0.33312784156E+03  0.34465686612E+03  0.00000000000E+00 0. -1.
         11    1    1    2    0    0  0.91499293682E+02 -0.19491988497E+02 -0.16737988826E+03  0.19175005959E+03  0.00000000000E+00 0.  1.
</event>
<event>
 7    1  0.5109948E-006  0.1062068E+03  0.7561462E-02  0.1267760E+00
          1   -1    0    0  501    0  0.00000000000E+00  0.00000000000E+00  0.19508457892E+03  0.19508457892E+03  0.00000000000E+00 0. -1.
         -1   -1    0    0    0  501 -0.00000000000E+00 -0.00000000000E+00 -0.10456825570E+03  0.10456825570E+03  0.00000000000E+00 0.  1.
         23    2    1    2    0    0  0.58295963130E+02 -0.15683286093E+02 -0.26008727373E+02  0.14132077797E+03  0.12510285212E+03 0.  0.
          5    1    3    3  502    0 -0.80391920357E+00  0.42088224167E+02 -0.39022116939E+02  0.57552262423E+02  0.41800000000E+01 0.  1.
         -5    1    3    3    0  502  0.59099882333E+02 -0.57771510260E+02  0.13013389566E+02  0.83768515551E+02  0.41800000000E+01 0.  1.
        -11    1    1    2    0    0 -0.31247277842E+02 -0.23953885829E+02  0.87159492861E+01  0.40325535220E+02  0.00000000000E+00 0.  1.
         11    1    1    2    0    0 -0.27048685288E+02  0.39637171922E+02  0.10780910131E+03  0.11800652142E+03  0.00000000000E+00 0. -1.
</event>
<event>
 7    1  0.5109948E-006  0.8055078E+02  0.7561462E-02  0.1327496E+00
          2   -1    0    0  501    0  0.00000000000E+00  0.00000000000E+00  0.50555598869E+03  0.50555598869E+03  0.00000000000E+00 0. -1.
         -2   -1    0    0    0  501 -0.00000000000E+00 -0.00000000000E+00 -0.26671803906E+02  0.26671803906E+02  0.00000000000E+00 0.  1.
         23    2    1    2    0    0  0.36642892113E+02 -0.15317180758E+02  0.25163905755E+03  0.28380780423E+03  0.12508931564E+03 0.  0.
          5    1    3    3  502    0  0.38907383574E+02 -0.32821223592E+02  0.25760580110E+02  0.57202247353E+02  0.41800000000E+01 0. -1.
         -5    1    3    3    0  502 -0.22644914610E+01  0.17504042834E+02  0.22587847744E+03  0.22660555687E+03  0.41800000000E+01 0. -1.
        -11    1    1    2    0    0 -0.60482286758E+02  0.25915941654E+02  0.10892107299E+03  0.12725385332E+03  0.00000000000E+00 0.  1.
         11    1    1    2    0    0  0.23839394645E+02 -0.10598760896E+02  0.11832405425E+03  0.12116613506E+03  0.00000000000E+00 0. -1.
</event>
<event>
 7    1  0.5109948E-006  0.1020100E+03  0.7561462E-02  0.1276125E+00
         -2   -1    0    0    0  501 -0.00000000000E+00  0.00000000000E+00  0.12399114258E+03  0.12399114258E+03  0.00000000000E+00 0.  1.
          2   -1    0    0  501    0  0.00000000000E+00 -0.00000000000E+00 -0.11234800671E+03  0.11234800671E+03  0.00000000000E+00 0. -1.
         23    2    1    2    0    0 -0.36333244780E+02 -0.23855657597E+02  0.15401471028E+02  0.13332020297E+03  0.12509146308E+03 0.  0.
          5    1    3    3  502    0 -0.36778581377E+02 -0.60844839188E+02 -0.27656000858E+02  0.76400819939E+02  0.41800000000E+01 0.  1.
         -5    1    3    3    0  502  0.44533659699E+00  0.36989181590E+02  0.43057471886E+02  0.56919383031E+02  0.41800000000E+01 0.  1.
        -11    1    1    2    0    0  0.45657596907E+02 -0.20643475341E+02 -0.21085854441E+02  0.54363429684E+02  0.00000000000E+00 0. -1.
         11    1    1    2    0    0 -0.93243521270E+01  0.44499132938E+02  0.17327519278E+02  0.48655516637E+02  0.00000000000E+00 0.  1.
</event>
<event>
 7    1  0.5109948E-006  0.9860637E+02  0.7561462E-02  0.1283254E+00
         -2   -1    0    0    0  501 -0.00000000000E+00  0.00000000000E+00  0.11476866359E+04  0.11476866359E+04  0.00000000000E+00 0.  1.
          2   -1    0    0  501    0  0.00000000000E+00 -0.00000000000E+00 -0.24852497533E+02  0.24852497533E+02  0.00000000000E+00 0. -1.
         23    2    1    2    0    0 -0.55915576485E+02 -0.34759899961E+01  0.10002079464E+04  0.10095575183E+04  0.12510720384E+03 0.  0.
          5    1    3    3  502    0 -0.22704807399E+02 -0.46573450928E+02  0.17524943151E+03  0.18279614398E+03  0.41800000000E+01 0.  1.
         -5    1    3    3    0  502 -0.33210769087E+02  0.43097460932E+02  0.82495851491E+03  0.82676137431E+03  0.41800000000E+01 0.  1.
        -11    1    1    2    0    0  0.63873793107E+02 -0.19145505431E+02  0.41862571903E+02  0.78733009281E+02  0.00000000000E+00 0. -1.
         11    1    1    2    0    0 -0.79582166215E+01  0.22621495427E+02  0.80763620038E+02  0.84248605856E+02  0.00000000000E+00 0.  1.
</event>
<event>
 7    1  0.5109948E-006  0.2258873E+03  0.7561462E-02  0.1129568E+00
         -2   -1    0    0    0  501 -0.00000000000E+00  0.00000000000E+00  0.66140126877E+02  0.66140126877E+02  0.00000000000E+00 0.  1.
          2   -1    0    0  501    0  0.00000000000E+00 -0.00000000000E+00 -0.10937804732E+04  0.10937804732E+04  0.00000000000E+00 0. -1.
         23    2    1    2    0    0  0.40287498000E+02  0.20258828183E+03 -0.23976435629E+03  0.34029385871E+03  0.12509144375E+03 0.  0.
          5    1    3    3  502    0  0.60924625832E+02  0.75775781820E+02 -0.45701721619E+02  0.10751697030E+03  0.41800000000E+01 0. -1.
         -5    1    3    3    0  502 -0.20637127831E+02  0.12681250001E+03 -0.19406263467E+03  0.23277688841E+03  0.41800000000E+01 0. -1.
        -11    1    1    2    0    0  0.17268404884E+01 -0.17637699393E+03 -0.61885526589E+03  0.64350110030E+03  0.00000000000E+00 0. -1.
         11    1    1    2    0    0 -0.42014338489E+02 -0.26211287897E+02 -0.16902072409E+03  0.17612564102E+03  0.00000000000E+00 0.  1.
</event>
<event>
 7    1  0.5109948E-006  0.1064278E+03  0.7561462E-02  0.1267332E+00
         -2   -1    0    0    0  501 -0.00000000000E+00  0.00000000000E+00  0.28864841681E+02  0.28864841681E+02  0.00000000000E+00 0.  1.
          2   -1    0    0  501    0  0.00000000000E+00 -0.00000000000E+00 -0.45629484482E+03  0.45629484482E+03  0.00000000000E+00 0. -1.
         23    2    1    2    0    0  0.28641511383E+02  0.14567611457E+02 -0.19643418996E+03  0.23508795167E+03  0.12508957812E+03 0.  0.
          5    1    3    3  502    0 -0.40326928342E+02 -0.26372029615E+02 -0.83743437139E+02  0.96706673810E+02  0.41800000000E+01 0.  1.
         -5    1    3    3    0  502  0.68968439726E+02  0.40939641072E+02 -0.11269075282E+03  0.13838127786E+03  0.41800000000E+01 0.  1.
        -11    1    1    2    0    0  0.26976255644E+02 -0.82064838388E+01 -0.28943258540E+02  0.40407634928E+02  0.00000000000E+00 0.  1.
         11    1    1    2    0    0 -0.55617767028E+02 -0.63611276181E+01 -0.20205255464E+03  0.20966409991E+03  0.00000000000E+00 0. -1.
</event>
<event>
 7    1  0.5109948E-006  0.9330343E+02  0.7561462E-02  0.1295044E+00
          2   -1    0    0  501    0  0.00000000000E+00  0.00000000000E+00  0.23119503712E+03  0.23119503712E+03  0.00000000000E+00 0. -1.
         -2   -1    0    0    0  501 -0.00000000000E+00 -0.00000000000E+00 -0.10524888230E+03  0.10524888230E+03  0.00000000000E+00 0.  1.
         23    2    1    2    0    0  0.34130878226E+01 -0.12173187641E+02 -0.52753907716E+02  0.13633735643E+03  0.12508023150E+03 0.  0.
          5    1    3    3  502    0 -0.19294279665E+02 -0.57332270616E+02 -0.59761677362E+02  0.85136296390E+02  0.41800000000E+01 0.  1.
         -5    1    3    3    0  502  0.22707367488E+02  0.45159082976E+02  0.70077696460E+01  0.51201060036E+02  0.41800000000E+01 0.  1.
        -11    1    1    2    0    0  0.24042454470E+02  0.32972487875E+02  0.14944121618E+03  0.15491256136E+03  0.00000000000E+00 0. -1.
         11    1    1    2    0    0 -0.27455542293E+02 -0.20799300234E+02  0.29258846355E+02  0.45194001624E+02  0.00000000000E+00 0.  1.
</event>
<event>
 7    1  0.5109948E-006  0.8774988E+02  0.7561462E-02  0.1308394E+00
         -1   -1    0    0    0  501 -0.00000000000E+00  0.00000000000E+00  0.36018186950E+02  0.36018186950E+02  0.00000000000E+00 0.  1.
          1   -1    0    0  501    0  0.00000000000E+00 -0.00000000000E+00 -0.34270451560E+03  0.34270451560E+03  0.00000000000E+00 0. -1.
         23    2    1    2    0    0 -0.15115969500E+02  0.11432390735E+02 -0.20271145041E+03  0.23895363590E+03  0.12509083056E+03 0.  0.
          5    1    3    3  502    0  0.18271267858E+02 -0.36200332303E+02 -0.16767219215E+02  0.44078513226E+02  0.41800000000E+01 0. -1.
         -5    1    3    3    0  502 -0.33387237359E+02  0.47632723038E+02 -0.18594423120E+03  0.19487512267E+03  0.41800000000E+01 0. -1.
        -11    1    1    2    0    0  0.34457104967E+02 -0.32815965263E+02 -0.21155687136E+02  0.52074396367E+02  0.00000000000E+00 0.  1.
         11    1    1    2    0    0 -0.19341135467E+02  0.21383574528E+02 -0.82819191109E+02  0.87694670286E+02  0.00000000000E+00 0. -1.
</event>
<event>
 7    1  0.5109948E-006  0.1194889E+03  0.7561462E-02  0.1243943E+00
          1   -1    0    0  501    0  0.00000000000E+00  0.00000000000E+00  0.17378013782E+03  0.17378013782E+03  0.00000000000E+00 0.  1.
         -1   -1    0    0    0  501 -0.00000000000E+00 -0.00000000000E+00 -0.16187517103E+03  0.16187517103E+03  0.00000000000E+00 0. -1.
         23    2    1    2    0    0 -0.65269684634E+02 -0.72313639953E+02 -0.76507311113E+02  0.17603481279E+03  0.12508194276E+03 0.  0.
          5    1    3    3  502    0 -0.52278912200E+02 -0.43405478086E+01 -0.91080209100E+02  0.10519031279E+03  0.41800000000E+01 0. -1.
         -5    1    3    3    0  502 -0.12990772434E+02 -0.67973092145E+02  0.14572897987E+02  0.70844499997E+02  0.41800000000E+01 0. -1.
        -11    1    1    2    0    0 -0.54652203759E-01  0.46946486169E+02  0.74680665933E+02  0.88210982392E+02  0.00000000000E+00 0.  1.
         11    1    1    2    0    0  0.65324336838E+02  0.25367153784E+02  0.13731611971E+02  0.71409513664E+02  0.00000000000E+00 0. -1.
</event>
<event>
 7    1  0.5109948E-006  0.1261759E+03  0.7561462E-02  0.1233243E+00
         -1   -1    0    0    0  501 -0.00000000000E+00  0.00000000000E+00  0.48937490062E+02  0.48937490062E+02  0.00000000000E+00 0.  1.
          1   -1    0    0  501    0  0.00000000000E+00 -0.00000000000E+00 -0.32790511971E+03  0.32790511971E+03  0.00000000000E+00 0. -1.
         23    2    1    2    0    0 -0.58005393036E+02 -0.31470227178E+02 -0.15882765002E+03  0.21267008012E+03  0.12508932708E+03 0.  0.
          5    1    3    3  502    0 -0.96465822667E+02 -0.34560758142E+02 -0.11805180129E+03  0.15637711193E+03  0.41800000000E+01 0.  1.
         -5    1    3    3    0  502  0.38460429630E+02  0.30905309645E+01 -0.40775848730E+02  0.56292968199E+02  0.41800000000E+01 0.  1.
        -11    1    1    2    0    0  0.96465562840E+01  0.55956352319E+02 -0.51043641697E+02  0.76351966384E+02  0.00000000000E+00 0.  1.
         11    1    1    2    0    0  0.48358836752E+02 -0.24486125142E+02 -0.69096337926E+02  0.87820563260E+02  0.00000000000E+00 0. -1.
</event>
<event>
 7    1  0.5109948E-006  0.1339183E+03  0.7561462E-02  0.1221755E+00
          1   -1    0    0  501    0  0.00000000000E+00  0.00000000000E+00  0.17553120876E+03  0.17553120876E+03  0.00000000000E+00 0. -1.
         -1   -1    0    0    0  501 -0.00000000000E+00 -0.00000000000E+00 -0.15716650140E+03  0.15716650140E+03  0.00000000000E+00 0.  1.
         23    2    1    2    0    0  0.12352829042E+03 -0.57473928176E+01 -0.62583699027E+01  0.17600615984E+03  0.12508689001E+03 0.  0.
          5    1    3    3  502    0  0.66010099263E+02  0.11793306031E+02  0.57378526913E+02  0.88352606201E+02  0.41800000000E+01 0. -1.
         -5    1    3    3    0  502  0.57518191155E+02 -0.17540698849E+02 -0.63636896815E+02  0.87653553643E+02  0.41800000000E+01 0. -1.
        -11    1    1    2    0    0 -0.75547538108E+02  0.35962873272E+02 -0.18210472893E+02  0.85629317942E+02  0.00000000000E+00 0. -1.
         11    1    1    2    0    0 -0.47980752310E+02 -0.30215480454E+02  0.42833550155E+02  0.71062232376E+02  0.00000000000E+00 0.  1.
</event>
<event>
 7    1  0.5109948E-006  0.9814895E+02  0.7561462E-02  0.1284237E+00
         -2   -1    0    0    0  501 -0.00000000000E+00  0.00000000000E+00  0.20178187635E+03  0.20178187635E+03  0.00000000000E+00 0. -1.
          2   -1    0    0  501    0  0.00000000000E+00 -0.00000000000E+00 -0.77311166558E+02  0.77311166558E+02  0.00000000000E+00 0.  1.
         23    2    1    2    0    0  0.22627277940E+02 -0.53852970187E+02  0.96918102654E+02  0.16867892303E+03  0.12508926552E+03 0.  0.
          5    1    3    3  502    0 -0.37405734401E+02  0.65829718579E+01 -0.17613798602E+01  0.38250481613E+02  0.41800000000E+01 0. -1.
         -5    1    3    3    0  502  0.60033012341E+02 -0.60435942045E+02  0.98679482514E+02  0.13042844142E+03  0.41800000000E+01 0. -1.
        -11    1    1    2    0    0 -0.67375520928E+01  0.56319068532E+02  0.54740257273E+02  0.78827202506E+02  0.00000000000E+00 0. -1.
         11    1    1    2    0    0 -0.15889725847E+02 -0.24660983449E+01 -0.27187650140E+02  0.31586917366E+02  0.00000000000E+00 0.  1.
</event>
<event>
 7    1  0.5109948E-006  0.1928986E+03  0.7561462E-02  0.1155873E+00
         -1   -1    0    0    0  501 -0.00000000000E+00  0.00000000000E+00  0.38614220708E+02  0.38614220708E+02  0.00000000000E+00 0.  1.
          1   -1    0    0  501    0  0.00000000000E+00 -0.00000000000E+00 -0.10428878395E+04  0.10428878395E+04  0.00000000000E+00 0. -1.
         23    2    1    2    0    0  0.98037294023E+02  0.13539005411E+03 -0.48117438227E+03  0.52451961461E+03  0.12510100794E+03 0.  0.
          5    1    3    3  502    0  0.38944294508E+01  0.94472375036E+02 -0.14633964393E+03  0.17427839800E+03  0.41800000000E+01 0.  1.
         -5    1    3    3    0  502  0.94142864572E+02  0.40917679073E+02 -0.33483473834E+03  0.35024121661E+03  0.41800000000E+01 0.  1.
        -11    1    1    2    0    0  0.16472260307E+02 -0.18858671121E+02 -0.10855345742E+03  0.11140394047E+03  0.00000000000E+00 0. -1.
         11    1    1    2    0    0 -0.11450955433E+03 -0.11653138299E+03 -0.41454577911E+03  0.44557850513E+03  0.00000000000E+00 0.  1.
</event>
<event>
 7    1  0.5109948E-006  0.1876667E+03  0.7561462E-02  0.1160583E+00
         -3   -1    0    0    0  501 -0.00000000000E+00  0.00000000000E+00  0.20601119317E+03  0.20601119317E+03  0.00000000000E+00 0.  1.
          3   -1    0    0  501    0  0.00000000000E+00 -0.00000000000E+00 -0.19443858168E+03  0.19443858168E+03  0.00000000000E+00 0. -1.
         23    2    1    2    0    0  0.10116013754E+03  0.13222857424E+03 -0.10085210375E+02  0.20848961262E+03  0.12509371618E+03 0.  0.
          5    1    3    3  502    0  0.12648248631E+03  0.79286199342E+02 -0.97206787383E+01  0.14965321495E+03  0.41800000000E+01 0.  1.
         -5    1    3    3    0  502 -0.25322348771E+02  0.52942374900E+02 -0.36453163686E+00  0.58836397669E+02  0.41800000000E+01 0.  1.
        -11    1    1    2    0    0 -0.50634214070E+02 -0.53924222420E+02  0.55858658931E+02  0.92692152719E+02  0.00000000000E+00 0.  1.
         11    1    1    2    0    0 -0.50525923467E+02 -0.78304351822E+02 -0.34200837067E+02  0.99268009513E+02  0.00000000000E+00 0. -1.
</event>
<event>
 7    1  0.5109948E-006  0.9980267E+02  0.7561462E-02  0.1280711E+00
         -3   -1    0    0    0  501 -0.00000000000E+00  0.00000000000E+00  0.21158679377E+03  0.21158679377E+03  0.00000000000E+00 0.  1.
          3   -1    0    0  501    0  0.00000000000E+00 -0.00000000000E+00 -0.77250361541E+02  0.77250361541E+02  0.00000000000E+00 0. -1.
         23    2    1    2    0    0  0.65344415195E+02 -0.15183681281E+02  0.67106532354E+02  0.15700504773E+03  0.12508741565E+03 0.  0.
          5    1    3    3  502    0  0.42000715933E+01 -0.35226793695E+02 -0.25693380624E+02  0.44002156803E+02  0.41800000000E+01 0. -1.
         -5    1    3    3    0  502  0.61144343601E+02  0.20043112414E+02  0.92799912978E+02  0.11300289093E+03  0.41800000000E+01 0. -1.
        -11    1    1    2    0    0 -0.18208838151E+02  0.41570556810E+02  0.63004677159E+02  0.77648324671E+02  0.00000000000E+00 0.  1.
         11    1    1    2    0    0 -0.47135577044E+02 -0.26386875529E+02  0.42252227177E+01  0.54183782910E+02  0.00000000000E+00 0. -1.
</event>
<event>
 7    1  0.5109948E-006  0.1153489E+03  0.7561462E-02  0.1250973E+00
         -2   -1    0    0    0  501 -0.00000000000E+00  0.00000000000E+00  0.29843753064E+03  0.29843753064E+03  0.00000000000E+00 0.  1.
          2   -1    0    0  501    0  0.00000000000E+00 -0.00000000000E+00 -0.88893209979E+02  0.88893209979E+02  0.00000000000E+00 0. -1.
         23    2    1    2    0    0 -0.10593992554E+02  0.86187557261E+02  0.21000870043E+03  0.25940703532E+03  0.12509127872E+03 0.  0.
          5    1    3    3  502    0  0.16502496634E+02  0.79154135361E+02  0.21582429774E+03  0.23051097465E+03  0.41800000000E+01 0. -1.
         -5    1    3    3    0  502 -0.27096489189E+02  0.70334218995E+01 -0.58155973095E+01  0.28896060666E+02  0.41800000000E+01 0. -1.
        -11    1    1    2    0    0  0.28401820847E+02  0.47220335344E+01 -0.17557231518E+02  0.33722654206E+02  0.00000000000E+00 0. -1.
         11    1    1    2    0    0 -0.17807828293E+02 -0.90909590795E+02  0.17092851753E+02  0.94201051099E+02  0.00000000000E+00 0.  1.
</event>
<event>
 7    1  0.5109948E-006  0.1416702E+03  0.7561462E-02  0.1211099E+00
         -1   -1    0    0    0  501 -0.00000000000E+00  0.00000000000E+00  0.56346829034E+02  0.56346829034E+02  0.00000000000E+00 0.  1.
          1   -1    0    0  501    0  0.00000000000E+00 -0.00000000000E+00 -0.39625555490E+03  0.39625555490E+03  0.00000000000E+00 0. -1.
         23    2    1    2    0    0 -0.22133723775E+02  0.89674055543E+02 -0.11611166431E+03  0.19406392945E+03  0.12509017610E+03 0.  0.
          5    1    3    3  502    0 -0.69960736329E+02  0.23970078584E+02 -0.57770870201E+02  0.93936229107E+02  0.41800000000E+01 0.  1.
         -5    1    3    3    0  502  0.47827012554E+02  0.65703976959E+02 -0.58340794113E+02  0.10012770034E+03  0.41800000000E+01 0.  1.
        -11    1    1    2    0    0  0.46922952213E+02 -0.91714513245E+02 -0.19456466972E+03  0.22015614024E+03  0.00000000000E+00 0. -1.
         11    1    1    2    0    0 -0.24789228437E+02  0.20404577017E+01 -0.29232391835E+02  0.38382314241E+02  0.00000000000E+00 0.  1.
</event>
<event>
 7    1  0.5109948E-006  0.1185260E+03  0.7561462E-02  0.1245549E+00
          2   -1    0    0  501    0  0.00000000000E+00  0.00000000000E+00  0.73065168850E+03  0.73065168850E+03  0.00000000000E+00 0. -1.
         -2   -1    0    0    0  501 -0.00000000000E+00 -0.00000000000E+00 -0.19868425533E+02  0.19868425533E+02  0.00000000000E+00 0.  1.
         23    2    1    2    0    0 -0.12028068493E+02 -0.50291938274E+02  0.38082562274E+03  0.40416578791E+03  0.12509146930E+03 0.  0.
          5    1    3    3  502    0 -0.30921509234E+02  0.35368725526E+02  0.11906507429E+03  0.12806658735E+03  0.41800000000E+01 0.  1.
         -5    1    3    3    0  502  0.18893440741E+02 -0.85660663799E+02  0.26176054845E+03  0.27609920056E+03  0.41800000000E+01 0.  1.
        -11    1    1    2    0    0  0.36235140537E+02  0.64512792121E+02  0.19635437749E+03  0.20983309395E+03  0.00000000000E+00 0. -1.
         11    1    1    2    0    0 -0.24207072044E+02 -0.14220853847E+02  0.13360326273E+03  0.13652123217E+03  0.00000000000E+00 0.  1.
</event>
<event>
 7    1  0.5109948E-006  0.1065484E+03  0.7561462E-02  0.1267099E+00
          2   -1    0    0  501    0  0.00000000000E+00  0.00000000000E+00  0.72379812915E+02  0.72379812915E+02  0.00000000000E+00 0. -1.
         -2   -1    0    0    0  501 -0.00000000000E+00 -0.00000000000E+00 -0.16065707796E+03  0.16065707796E+03  0.00000000000E+00 0.  1.
         23    2    1    2    0    0  0.10111730763E+02 -0.83381895733E+01 -0.62281675433E+02  0.14034817521E+03  0.12508729226E+03 0.  0.
          5    1    3    3  502    0  0.22728501795E+02 -0.64259752547E+02 -0.34359049461E+02  0.76445518319E+02  0.41800000000E+01 0.  1.
         -5    1    3    3    0  502 -0.12616771032E+02  0.55921562973E+02 -0.27922625972E+02  0.63902656892E+02  0.41800000000E+01 0.  1.
        -11    1    1    2    0    0  0.12166062962E+01  0.47013026757E+02 -0.51304265946E+01  0.47307780467E+02  0.00000000000E+00 0.  1.
         11    1    1    2    0    0 -0.11328337059E+02 -0.38674837184E+02 -0.20865163021E+02  0.45380935200E+02  0.00000000000E+00 0. -1.
</event>
<event>
 7    1  0.5109948E-006  0.2251791E+03  0.7561462E-02  0.1130080E+00
          2   -1    0    0  501    0  0.00000000000E+00  0.00000000000E+00  0.10029815262E+04  0.10029815262E+04  0.00000000000E+00 0. -1.
         -2   -1    0    0    0  501 -0.00000000000E+00 -0.00000000000E+00 -0.68364810516E+02  0.68364810516E+02  0.00000000000E+00 0.  1.
         23    2    1    2    0    0  0.94935264665E+02  0.20072220679E+03  0.66289069621E+03  0.71019269181E+03  0.12508987013E+03 0.  0.
          5    1    3    3  502    0 -0.46523519120E+01  0.29659298468E+02  0.25496165074E+03  0.25675715007E+03  0.41800000000E+01 0. -1.
         -5    1    3    3    0  502  0.99587616577E+02  0.17106290833E+03  0.40792904547E+03  0.45343554175E+03  0.41800000000E+01 0. -1.
        -11    1    1    2    0    0 -0.70847891360E+02 -0.15291020916E+03  0.14044432505E+03  0.21937539565E+03  0.00000000000E+00 0.  1.
         11    1    1    2    0    0 -0.24087373304E+02 -0.47811997632E+02  0.13128169439E+03  0.14177824922E+03  0.00000000000E+00 0. -1.
</event>
<event>
 7    1  0.5109948E-006  0.1044351E+03  0.7561462E-02  0.1271237E+00
         -1   -1    0    0    0  501 -0.00000000000E+00  0.00000000000E+00  0.39206448489E+02  0.39206448489E+02  0.00000000000E+00 0.  1.
          1   -1    0    0  501    0  0.00000000000E+00 -0.00000000000E+00 -0.31723152859E+03  0.31723152859E+03  0.00000000000E+00 0. -1.
         23    2    1    2    0    0  0.26915983047E+02  0.23785622378E+02 -0.13302412865E+03  0.18285107099E+03  0.12020344997E+03 0.  0.
          5    1    3    3  502    0  0.69988554437E+02 -0.88167640285E+01 -0.84125441086E+02  0.10986671615E+03  0.41800000000E+01 0. -1.
         -5    1    3    3    0  502 -0.43072571390E+02  0.32602386406E+02 -0.48898687567E+02  0.72984354840E+02  0.41800000000E+01 0.  1.
        -11    1    1    2    0    0  0.95201560479E+01 -0.42156262109E+02 -0.11525213075E+03  0.12308873811E+03  0.00000000000E+00 0. -1.
         11    1    1    2    0    0 -0.36436139095E+02  0.18370639731E+02 -0.29748820690E+02  0.50498167974E+02  0.00000000000E+00 0.  1.
</event>
<event>
 7    1  0.5109948E-006  0.1163526E+03  0.7561462E-02  0.1249238E+00
         -1   -1    0    0    0  501 -0.00000000000E+00  0.00000000000E+00  0.11696726201E+03  0.11696726201E+03  0.00000000000E+00 0.  1.
          1   -1    0    0  501    0  0.00000000000E+00 -0.00000000000E+00 -0.11932675367E+03  0.11932675367E+03  0.00000000000E+00 0. -1.
         23    2    1    2    0    0  0.60189751900E+01 -0.45391746230E+02  0.42768708279E+01  0.13327650581E+03  0.12509075381E+03 0.  0.
          5    1    3    3  502    0 -0.57772540898E+02 -0.21569932986E+02  0.16485828120E+02  0.63970176017E+02  0.41800000000E+01 0. -1.
         -5    1    3    3    0  502  0.63791516089E+02 -0.23821813244E+02 -0.12208957292E+02  0.69306329792E+02  0.41800000000E+01 0. -1.
        -11    1    1    2    0    0  0.18272878730E+02  0.67437464235E+02 -0.20956184200E+01  0.69900653045E+02  0.00000000000E+00 0. -1.
         11    1    1    2    0    0 -0.24291853920E+02 -0.22045718005E+02 -0.45407440719E+01  0.33116856825E+02  0.00000000000E+00 0.  1.
</event>
<event>
 7    1  0.5109948E-006  0.1050390E+03  0.7561462E-02  0.1270043E+00
         -2   -1    0    0    0  501 -0.00000000000E+00  0.00000000000E+00  0.11084548151E+03  0.11084548151E+03  0.00000000000E+00 0.  1.
          2   -1    0    0  501    0  0.00000000000E+00 -0.00000000000E+00 -0.15959417120E+03  0.15959417120E+03  0.00000000000E+00 0. -1.
         23    2    1    2    0    0 -0.34795393659E+02 -0.37513010510E+02  0.29554242596E+02  0.13834431376E+03  0.12509096896E+03 0.  0.
          5    1    3    3  502    0 -0.77077845910E+02 -0.47179219626E+02  0.28156236383E+02  0.94747660350E+02  0.41800000000E+01 0. -1.
         -5    1    3    3    0  502  0.42282452251E+02  0.96662091156E+01  0.13980062132E+01  0.43596653408E+02  0.41800000000E+01 0. -1.
        -11    1    1    2    0    0  0.27996907941E+02  0.52545153281E+02 -0.92717120609E+02  0.11018749676E+03  0.00000000000E+00 0. -1.
         11    1    1    2    0    0  0.67984857181E+01 -0.15032142771E+02  0.14414188328E+02  0.21907842192E+02  0.00000000000E+00 0.  1.
</event>
<event>
 7    1  0.5109948E-006  0.1190017E+03  0.7561462E-02  0.1244753E+00
         -1   -1    0    0    0  501 -0.00000000000E+00  0.00000000000E+00  0.61215448588E+03  0.61215448588E+03  0.00000000000E+00 0.  1.
          1   -1    0    0  501    0  0.00000000000E+00 -0.00000000000E+00 -0.40892070981E+02  0.40892070981E+02  0.00000000000E+00 0. -1.
         23    2    1    2    0    0 -0.92282565994E+02 -0.55595172801E+02  0.40024626343E+03  0.43295679335E+03  0.12509044047E+03 0.  0.
          5    1    3    3  502    0 -0.26349786798E+02 -0.54872025131E+02  0.57291843314E+02  0.83696344703E+02  0.41800000000E+01 0. -1.
         -5    1    3    3    0  502 -0.65932779196E+02 -0.72314767006E+00  0.34295442011E+03  0.34926044865E+03  0.41800000000E+01 0. -1.
        -11    1    1    2    0    0  0.74704523756E+02  0.31451306578E+02  0.17207106747E+03  0.19020621129E+03  0.00000000000E+00 0.  1.
         11    1    1    2    0    0  0.17578042239E+02  0.24143866224E+02 -0.10549159983E+01  0.29883552214E+02  0.00000000000E+00 0. -1.
</event>
<event>
 7    1  0.5109948E-006  0.1272498E+03  0.7561462E-02  0.1231595E+00
          2   -1    0    0  501    0  0.00000000000E+00  0.00000000000E+00  0.49700280837E+03  0.49700280837E+03  0.00000000000E+00 0. -1.
         -2   -1    0    0    0  501 -0.00000000000E+00 -0.00000000000E+00 -0.45918627266E+02  0.45918627266E+02  0.00000000000E+00 0.  1.
         23    2    1    2    0    0  0.10289005542E+03  0.21285912234E+02  0.23087244259E+03  0.28282308263E+03  0.12508939907E+03 0.  0.
          5    1    3    3  502    0  0.85248564684E+00 -0.87990221576E+01 -0.13266568975E+02  0.16481012562E+02  0.41800000000E+01 0. -1.
         -5    1    3    3    0  502  0.10203756977E+03  0.30084934392E+02  0.24413901156E+03  0.26634207007E+03  0.41800000000E+01 0. -1.
        -11    1    1    2    0    0 -0.11757522324E+03 -0.29787711332E+02  0.18897396334E+03  0.22454932574E+03  0.00000000000E+00 0.  1.
         11    1    1    2    0    0  0.14685167822E+02  0.85017990979E+01  0.31237775175E+02  0.35549027269E+02  0.00000000000E+00 0. -1.
</event>
<event>
 7    1  0.5109948E-006  0.1718407E+03  0.7561462E-02  0.1175942E+00
         -1   -1    0    0    0  501 -0.00000000000E+00  0.00000000000E+00  0.52418192068E+02  0.52418192068E+02  0.00000000000E+00 0.  1.
          1   -1    0    0  501    0  0.00000000000E+00 -0.00000000000E+00 -0.73541078577E+03  0.73541078577E+03  0.00000000000E+00 0. -1.
         23    2    1    2    0    0 -0.42808748285E+02  0.12706575470E+03 -0.16944515146E+03  0.24967362980E+03  0.12508783762E+03 0.  0.
          5    1    3    3  502    0 -0.22947323635E+02 -0.22284570341E+02 -0.36313727038E+02  0.48573047143E+02  0.41800000000E+01 0. -1.
         -5    1    3    3    0  502 -0.19861424650E+02  0.14935032504E+03 -0.13313142442E+03  0.20110058266E+03  0.41800000000E+01 0. -1.
        -11    1    1    2    0    0  0.13713849243E+02  0.12243490470E+02 -0.67159254993E+02  0.69630009703E+02  0.00000000000E+00 0. -1.
         11    1    1    2    0    0  0.29094899043E+02 -0.13930924517E+03 -0.44638818726E+03  0.46852533834E+03  0.00000000000E+00 0.  1.
</event>
<event>
 7    1  0.5109948E-006  0.1633716E+03  0.7561462E-02  0.1184942E+00
          1   -1    0    0  501    0  0.00000000000E+00  0.00000000000E+00  0.67220888013E+03  0.67220888013E+03  0.00000000000E+00 0. -1.
         -1   -1    0    0    0  501 -0.00000000000E+00 -0.00000000000E+00 -0.51263359424E+02  0.51263359424E+02  0.00000000000E+00 0.  1.
         23    2    1    2    0    0  0.63782776143E+02  0.12768042685E+03  0.23068753123E+03  0.29872340036E+03  0.12509356068E+03 0.  0.
          5    1    3    3  502    0  0.71876036902E+02  0.14631489194E+03  0.22371846091E+03  0.27684225551E+03  0.41800000000E+01 0.  1.
         -5    1    3    3    0  502 -0.80932607591E+01 -0.18634465090E+02  0.69690703285E+01  0.21881144854E+02  0.41800000000E+01 0.  1.
        -11    1    1    2    0    0 -0.39154278337E+02 -0.69845986997E+02  0.10178050385E+03  0.12950208637E+03  0.00000000000E+00 0.  1.
         11    1    1    2    0    0 -0.24628497806E+02 -0.57834439856E+02  0.28847748562E+03  0.29524675282E+03  0.00000000000E+00 0. -1.
</event>
<event>
 6    1  0.5109948E-006  0.1238654E+03  0.7561462E-02  0.1236853E+00
          2   -1    0    0  501    0  0.00000000000E+00  0.00000000000E+00  0.12449838248E+03  0.12449838248E+03  0.00000000000E+00 0. -1.
         -2   -1    0    0    0  501 -0.00000000000E+00 -0.00000000000E+00 -0.15275411029E+03  0.15275411029E+03  0.00000000000E+00 0.  1.
          5    1    1    2  502    0 -0.80402275183E+02  0.42908115466E+02  0.34372454253E+02  0.97491385460E+02  0.41800000000E+01 0. -1.
         -5    1    1    2    0  502  0.46037811006E+02  0.18144412032E+02 -0.36257566436E+02  0.61488074080E+02  0.41800000000E+01 0.  1.
        -11    1    1    2    0    0  0.58852936709E+02 -0.26636722926E+02 -0.37363273129E+02  0.74627055056E+02  0.00000000000E+00 0.  1.
         11    1    1    2    0    0 -0.24488472532E+02 -0.34415804572E+02  0.10992657503E+02  0.43645978168E+02  0.00000000000E+00 0. -1.
</event>
<event>
 7    1  0.5109948E-006  0.1367805E+03  0.7561462E-02  0.1217728E+00
          2   -1    0    0  501    0  0.00000000000E+00  0.00000000000E+00  0.39305295603E+03  0.39305295603E+03  0.00000000000E+00 0. -1.
         -2   -1    0    0    0  501 -0.00000000000E+00 -0.00000000000E+00 -0.79110741974E+02  0.79110741974E+02  0.00000000000E+00 0.  1.
         23    2    1    2    0    0 -0.11016273233E+03 -0.46494767775E+02  0.71541588331E+02  0.18726081118E+03  0.12510324344E+03 0.  0.
          5    1    3    3  502    0 -0.11435211561E+03 -0.33983586019E+02  0.51898231480E+01  0.11948094881E+03  0.41800000000E+01 0.  1.
         -5    1    3    3    0  502  0.41893832751E+01 -0.12511181756E+02  0.66351765183E+02  0.67779862379E+02  0.41800000000E+01 0.  1.
        -11    1    1    2    0    0  0.24040042622E+02 -0.20219489727E+02  0.19958673287E+02  0.37216932348E+02  0.00000000000E+00 0.  1.
         11    1    1    2    0    0  0.86122689713E+02  0.66714257502E+02  0.22244195243E+03  0.24768595447E+03  0.00000000000E+00 0. -1.
</event>
<event>
 7    1  0.5109948E-006  0.1755975E+03  0.7561462E-02  0.1172133E+00
          2   -1    0    0  501    0  0.00000000000E+00  0.00000000000E+00  0.24248034161E+03  0.24248034161E+03  0.00000000000E+00 0. -1.
         -2   -1    0    0    0  501 -0.00000000000E+00 -0.00000000000E+00 -0.16085398779E+03  0.16085398779E+03  0.00000000000E+00 0.  1.
         23    2    1    2    0    0  0.11138940295E+03 -0.92030754000E+02 -0.37458420898E+02  0.19476622110E+03  0.12511390336E+03 0.  0.
          5    1    3    3  502    0  0.26268343976E+02  0.30274412459E+02  0.26780750847E+01  0.40388246200E+02  0.41800000000E+01 0.  1.
         -5    1    3    3    0  502  0.85121058975E+02 -0.12230516646E+03 -0.40136495983E+02  0.15437797490E+03  0.41800000000E+01 0.  1.
        -11    1    1    2    0    0 -0.72949939321E+01 -0.12393702953E+02 -0.56377520379E+01  0.15446846196E+02  0.00000000000E+00 0.  1.
         11    1    1    2    0    0 -0.10409440902E+03  0.10442445695E+03  0.12472252675E+03  0.19312126211E+03  0.00000000000E+00 0. -1.
</event>
<event>
 7    1  0.5109948E-006  0.1907620E+03  0.7561462E-02  0.1157776E+00
         -2   -1    0    0    0  501 -0.00000000000E+00  0.00000000000E+00  0.45309374439E+02  0.45309374439E+02  0.00000000000E+00 0.  1.
          2   -1    0    0  501    0  0.00000000000E+00 -0.00000000000E+00 -0.93557137381E+03  0.93557137381E+03  0.00000000000E+00 0. -1.
         23    2    1    2    0    0 -0.13841897682E+03 -0.90596085322E+02 -0.33390570386E+03  0.39307521673E+03  0.12509053968E+03 0.  0.
          5    1    3    3  502    0 -0.63039384661E+02 -0.10846098766E+03 -0.16600473471E+03  0.20811726072E+03  0.41800000000E+01 0.  1.
         -5    1    3    3    0  502 -0.75379592158E+02  0.17864902342E+02 -0.16790096915E+03  0.18495795601E+03  0.41800000000E+01 0.  1.
        -11    1    1    2    0    0  0.38287420125E+02 -0.66284238932E+01 -0.54701115193E+02  0.67097500300E+02  0.00000000000E+00 0.  1.
         11    1    1    2    0    0  0.10013155669E+03  0.97224509215E+02 -0.50165518031E+03  0.52070803122E+03  0.00000000000E+00 0. -1.
</event>
<event>
 7    1  0.5109948E-006  0.1034744E+03  0.7561462E-02  0.1273155E+00
          2   -1    0    0  501    0  0.00000000000E+00  0.00000000000E+00  0.25853636617E+03  0.25853636617E+03  0.00000000000E+00 0. -1.
         -2   -1    0    0    0  501 -0.00000000000E+00 -0.00000000000E+00 -0.74205143984E+02  0.74205143984E+02  0.00000000000E+00 0.  1.
         23    2    1    2    0    0  0.75412922889E+02 -0.42157396620E+02  0.88339767078E+02  0.17582841142E+03  0.12508941117E+03 0.  0.
          5    1    3    3  502    0  0.21363446124E+02  0.15979453483E+02 -0.25394610940E+02  0.37068833657E+02  0.41800000000E+01 0.  1.
         -5    1    3    3    0  502  0.54049476766E+02 -0.58136850103E+02  0.11373437802E+03  0.13875957777E+03  0.41800000000E+01 0.  1.
        -11    1    1    2    0    0 -0.18446640270E+02 -0.11875585927E+02 -0.10728982298E+02  0.24421694034E+02  0.00000000000E+00 0.  1.
         11    1    1    2    0    0 -0.56966282619E+02  0.54032982547E+02  0.10672043741E+03  0.13249140470E+03  0.00000000000E+00 0. -1.
</event>
<event>
 7    1  0.5109948E-006  0.1195135E+03  0.7561462E-02  0.1243902E+00
         -1   -1    0    0    0  501 -0.00000000000E+00  0.00000000000E+00  0.14986830578E+03  0.14986830578E+03  0.00000000000E+00 0.  1.
          1   -1    0    0  501    0  0.00000000000E+00 -0.00000000000E+00 -0.11809780155E+03  0.11809780155E+03  0.00000000000E+00 0. -1.
         23    2    1    2    0    0  0.46308188878E+02 -0.53254536587E+02  0.47771232287E+02  0.15136545658E+03  0.12509563057E+03 0.  0.
          5    1    3    3  502    0  0.73045395451E+02 -0.77849814914E+02  0.31853499297E+02  0.11148247080E+03  0.41800000000E+01 0. -1.
         -5    1    3    3    0  502 -0.26737206573E+02  0.24595278327E+02  0.15917732990E+02  0.39882985781E+02  0.41800000000E+01 0. -1.
        -11    1    1    2    0    0 -0.38979876967E+02  0.68440017094E+02  0.16054163596E+02  0.80381608076E+02  0.00000000000E+00 0.  1.
         11    1    1    2    0    0 -0.73283119116E+01 -0.15185480507E+02 -0.32054891649E+02  0.36219042676E+02  0.00000000000E+00 0. -1.
</event>
<event>
 7    1  0.5109948E-006  0.1180590E+03  0.7561462E-02  0.1246334E+00
         -1   -1    0    0    0  501 -0.00000000000E+00  0.00000000000E+00  0.31218289308E+02  0.31218289308E+02  0.00000000000E+00 0. -1.
          1   -1    0    0  501    0  0.00000000000E+00 -0.00000000000E+00 -0.63541297130E+03  0.63541297130E+03  0.00000000000E+00 0.  1.
         23    2    1    2    0    0 -0.34335081946E+02 -0.79703422384E+02 -0.39323203528E+03  0.42167540508E+03  0.12508868971E+03 0.  0.
          5    1    3    3  502    0 -0.73596787203E+02 -0.26883198497E+02 -0.14541238311E+03  0.16523143469E+03  0.41800000000E+01 0.  1.
         -5    1    3    3    0  502  0.39261705258E+02 -0.52820223887E+02 -0.24781965217E+03  0.25644397039E+03  0.41800000000E+01 0.  1.
        -11    1    1    2    0    0  0.24694431475E+02  0.21596465589E+02 -0.82054137718E+01  0.33816432203E+02  0.00000000000E+00 0.  1.
         11    1    1    2    0    0  0.96406504709E+01  0.58106956795E+02 -0.20275723295E+03  0.21113942333E+03  0.00000000000E+00 0. -1.
</event>
<event>
 7    1  0.5109948E-006  0.1577534E+03  0.7561462E-02  0.1191257E+00
         -2   -1    0    0    0  501 -0.00000000000E+00  0.00000000000E+00  0.23041711218E+02  0.23041711218E+02  0.00000000000E+00 0. -1.
          2   -1    0    0  501    0  0.00000000000E+00 -0.00000000000E+00 -0.12807650115E+04  0.12807650115E+04  0.00000000000E+00 0.  1.
         23    2    1    2    0    0 -0.12938150806E+03 -0.10778217634E+02 -0.55303397166E+03  0.58167877372E+03  0.12509147606E+03 0.  0.
          5    1    3    3  502    0 -0.75774842982E+02 -0.55174302959E+02 -0.18878636990E+03  0.21081697369E+03  0.41800000000E+01 0.  1.
         -5    1    3    3    0  502 -0.53606665079E+02  0.44396085325E+02 -0.36424760176E+03  0.37086180003E+03  0.41800000000E+01 0.  1.
        -11    1    1    2    0    0 -0.29912004427E+01  0.19084647839E+02 -0.41098133233E+02  0.45411756390E+02  0.00000000000E+00 0. -1.
         11    1    1    2    0    0  0.13237270850E+03 -0.83064302043E+01 -0.66359119534E+03  0.67671619256E+03  0.00000000000E+00 0.  1.
</event>
<event>
 7    1  0.5109948E-006  0.1300526E+03  0.7561462E-02  0.1227378E+00
         -1   -1    0    0    0  501 -0.00000000000E+00  0.00000000000E+00  0.46886336461E+03  0.46886336461E+03  0.00000000000E+00 0.  1.
          1   -1    0    0  501    0  0.00000000000E+00 -0.00000000000E+00 -0.38036185826E+02  0.38036185826E+02  0.00000000000E+00 0. -1.
         23    2    1    2    0    0 -0.65784158981E+02  0.41246111030E+02  0.24905069170E+03  0.28931116187E+03  0.12508358844E+03 0.  0.
          5    1    3    3  502    0 -0.82829584104E+02  0.72970346459E+02  0.19738315105E+03  0.22619237871E+03  0.41800000000E+01 0.  1.
         -5    1    3    3    0  502  0.17045425124E+02 -0.31724235429E+02  0.51667540644E+02  0.63118783158E+02  0.41800000000E+01 0.  1.
        -11    1    1    2    0    0  0.70547503083E+02  0.13116766894E+01  0.14452634371E+03  0.16083076420E+03  0.00000000000E+00 0.  1.
         11    1    1    2    0    0 -0.47633441020E+01 -0.42557787719E+02  0.37250143376E+02  0.56757624370E+02  0.00000000000E+00 0. -1.
</event>
<event>
 7    1  0.5109948E-006  0.8691500E+02  0.7561462E-02  0.1310499E+00
         -1   -1    0    0    0  501 -0.00000000000E+00  0.00000000000E+00  0.28592280976E+03  0.28592280976E+03  0.00000000000E+00 0.  1.
          1   -1    0    0  501    0  0.00000000000E+00 -0.00000000000E+00 -0.49203703494E+02  0.49203703494E+02  0.00000000000E+00 0. -1.
         23    2    1    2    0    0  0.42984179223E+02  0.14572546113E+02  0.15316699177E+03  0.20289712541E+03  0.12508843818E+03 0.  0.
          5    1    3    3  502    0 -0.32010358277E+01  0.23529753852E+02  0.15378324810E+03  0.15566199196E+03  0.41800000000E+01 0. -1.
         -5    1    3    3    0  502  0.46185215050E+02 -0.89572077393E+01 -0.61625632486E+00  0.47235133445E+02  0.41800000000E+01 0. -1.
        -11    1    1    2    0    0 -0.67614853607E+02 -0.29408612620E+02  0.60161061747E+02  0.95162956423E+02  0.00000000000E+00 0. -1.
         11    1    1    2    0    0  0.24630674384E+02  0.14836066507E+02  0.23391052752E+02  0.37066431429E+02  0.00000000000E+00 0.  1.
</event>
<event>
 7    1  0.5109948E-006  0.9782239E+02  0.7561462E-02  0.1284943E+00
         -2   -1    0    0    0  501 -0.00000000000E+00  0.00000000000E+00  0.22728461194E+02  0.22728461194E+02  0.00000000000E+00 0.  1.
          2   -1    0    0  501    0  0.00000000000E+00 -0.00000000000E+00 -0.55060475510E+03  0.55060475510E+03  0.00000000000E+00 0. -1.
         23    2    1    2    0    0 -0.29330314680E+02 -0.80296796970E+01 -0.30236656417E+03  0.32863006512E+03  0.12508971762E+03 0.  0.
          5    1    3    3  502    0 -0.39521884700E+02 -0.57563986858E+02 -0.11581705737E+03  0.13530208842E+03  0.41800000000E+01 0. -1.
         -5    1    3    3    0  502  0.10191570020E+02  0.49534307161E+02 -0.18654950680E+03  0.19332797669E+03  0.41800000000E+01 0. -1.
        -11    1    1    2    0    0  0.45908152013E+02  0.24110334078E+02 -0.21133696885E+03  0.21760556297E+03  0.00000000000E+00 0. -1.
         11    1    1    2    0    0 -0.16577837333E+02 -0.16080654381E+02 -0.14172760887E+02  0.27097588216E+02  0.00000000000E+00 0.  1.
</event>
<event>
 7    1  0.5109948E-006  0.8180610E+02  0.7561462E-02  0.1324003E+00
          2   -1    0    0  501    0  0.00000000000E+00  0.00000000000E+00  0.63652436225E+03  0.63652436225E+03  0.00000000000E+00 0.  1.
         -2   -1    0    0    0  501 -0.00000000000E+00 -0.00000000000E+00 -0.18629231528E+02  0.18629231528E+02  0.00000000000E+00 0. -1.
         23    2    1    2    0    0  0.33170312812E+01  0.71456566087E+00  0.31801069780E+03  0.34174531778E+03  0.12509014752E+03 0.  0.
          5    1    3    3  502    0  0.27721206893E+02 -0.29575208889E+02  0.29185331243E+03  0.29468455451E+03  0.41800000000E+01 0. -1.
         -5    1    3    3    0  502 -0.24404175612E+02  0.30289774550E+02  0.26157385369E+02  0.47060763263E+02  0.41800000000E+01 0. -1.
        -11    1    1    2    0    0  0.31235630183E+02  0.25536772060E+02  0.20689594677E+03  0.21079308364E+03  0.00000000000E+00 0.  1.
         11    1    1    2    0    0 -0.34552661464E+02 -0.26251337721E+02  0.92988486156E+02  0.10261519236E+03  0.00000000000E+00 0. -1.
</event>
<event>
 7    1  0.5109948E-006  0.1080423E+03  0.7561462E-02  0.1264239E+00
         -2   -1    0    0    0  501 -0.00000000000E+00  0.00000000000E+00  0.65767976486E+02  0.65767976486E+02  0.00000000000E+00 0.  1.
          2   -1    0    0  501    0  0.00000000000E+00 -0.00000000000E+00 -0.17948524336E+03  0.17948524336E+03  0.00000000000E+00 0. -1.
         23    2    1    2    0    0  0.12032037043E+02  0.10125080130E+02 -0.57650619468E+02  0.13862974725E+03  0.12508927106E+03 0.  0.
          5    1    3    3  502    0 -0.28984180180E+02  0.56431423349E+02 -0.23042421472E+02  0.67624062501E+02  0.41800000000E+01 0.  1.
         -5    1    3    3    0  502  0.41016217223E+02 -0.46306343219E+02 -0.34608197996E+02  0.71005684746E+02  0.41800000000E+01 0.  1.
        -11    1    1    2    0    0  0.76668595235E+01  0.37863793132E+02 -0.20577242558E+02  0.43770657712E+02  0.00000000000E+00 0.  1.
         11    1    1    2    0    0 -0.19698896567E+02 -0.47988873262E+02 -0.35489404852E+02  0.62852814890E+02  0.00000000000E+00 0. -1.
</event>
<event>
 6    1  0.5109948E-006  0.1104645E+03  0.7561462E-02  0.1259712E+00
         -2   -1    0    0    0  501 -0.00000000000E+00  0.00000000000E+00  0.15015353821E+03  0.15015353821E+03  0.00000000000E+00 0.  1.
          2   -1    0    0  501    0  0.00000000000E+00 -0.00000000000E+00 -0.25626418775E+03  0.25626418775E+03  0.00000000000E+00 0. -1.
          5    1    1    2  502    0 -0.20934919768E+02 -0.40356599133E+02 -0.26295037161E+02  0.52686120929E+02  0.41800000000E+01 0. -1.
         -5    1    1    2    0  502  0.47762427744E+02 -0.41712005097E+02  0.10842689588E+03  0.12567818038E+03  0.41800000000E+01 0.  1.
        -11    1    1    2    0    0 -0.20834980761E+02 -0.73584046169E+01 -0.30412366172E+01  0.22304521111E+02  0.00000000000E+00 0.  1.
         11    1    1    2    0    0 -0.59925272147E+01  0.89427008848E+02 -0.18520127164E+03  0.20574890355E+03  0.00000000000E+00 0. -1.
</event>
<event>
 7    1  0.5109948E-006  0.6612986E+02  0.7561462E-02  0.1373771E+00
          2   -1    0    0  501    0  0.00000000000E+00  0.00000000000E+00  0.18584477217E+03  0.18584477217E+03  0.00000000000E+00 0. -1.
         -2   -1    0    0    0  501 -0.00000000000E+00 -0.00000000000E+00 -0.71801578269E+02  0.71801578269E+02  0.00000000000E+00 0.  1.
         23    2    1    2    0    0 -0.13212776666E+02 -0.36230924751E+02  0.67518366567E+02  0.14728699591E+03  0.12508985557E+03 0.  0.
          5    1    3    3  502    0 -0.29769029002E+02  0.12641730812E+02  0.86268270792E+02  0.92226326996E+02  0.41800000000E+01 0. -1.
         -5    1    3    3    0  502  0.16556252337E+02 -0.48872655563E+02 -0.18749904225E+02  0.55060668917E+02  0.41800000000E+01 0. -1.
        -11    1    1    2    0    0  0.19029687273E+02  0.10987711065E+02  0.71242313371E+02  0.74554181684E+02  0.00000000000E+00 0. -1.
         11    1    1    2    0    0 -0.58169106068E+01  0.25243213686E+02 -0.24717486038E+02  0.35805172842E+02  0.00000000000E+00 0.  1.
</event>
<event>
 6    1  0.5109948E-006  0.1378305E+03  0.7561462E-02  0.1216278E+00
          2   -1    0    0  501    0  0.00000000000E+00  0.00000000000E+00  0.20417842605E+04  0.20417842605E+04  0.00000000000E+00 0.  1.
         -2   -1    0    0    0  501 -0.00000000000E+00 -0.00000000000E+00 -0.16213576504E+02  0.16213576504E+02  0.00000000000E+00 0. -1.
          5    1    1    2  502    0  0.68035162114E+02 -0.61128601251E+02  0.31005406052E+03  0.32329008958E+03  0.41800000000E+01 0. -1.
         -5    1    1    2    0  502 -0.32172173098E+02  0.82334938524E+02  0.14096284488E+04  0.14124035992E+04  0.41800000000E+01 0.  1.
        -11    1    1    2    0    0  0.15441003359E+02  0.23122443415E+02  0.14616074035E+03  0.14878183355E+03  0.00000000000E+00 0.  1.
         11    1    1    2    0    0 -0.51303992375E+02 -0.44328780688E+02  0.15972743427E+03  0.17352231468E+03  0.00000000000E+00 0. -1.
</event>
<event>
 7    1  0.5109948E-006  0.1285278E+03  0.7561462E-02  0.1229657E+00
          1   -1    0    0  501    0  0.00000000000E+00  0.00000000000E+00  0.30864313530E+02  0.30864313530E+02  0.00000000000E+00 0. -1.
         -1   -1    0    0    0  501 -0.00000000000E+00 -0.00000000000E+00 -0.14560449427E+04  0.14560449427E+04  0.00000000000E+00 0.  1.
         23    2    1    2    0    0  0.45229840946E+02 -0.10550955478E+03 -0.12316992154E+04  0.12433457253E+04  0.12509049019E+03 0.  0.
          5    1    3    3  502    0  0.51532892223E+02 -0.25487248585E+02 -0.90757489463E+03  0.90940359609E+03  0.41800000000E+01 0.  1.
         -5    1    3    3    0  502 -0.63030512765E+01 -0.80022306191E+02 -0.32412432077E+03  0.33394212920E+03  0.41800000000E+01 0.  1.
        -11    1    1    2    0    0 -0.13767885793E+01  0.41039723361E+02 -0.14735734997E+03  0.15297170663E+03  0.00000000000E+00 0.  1.
         11    1    1    2    0    0 -0.43853052367E+02  0.64469831415E+02 -0.46124063757E+02  0.90591824256E+02  0.00000000000E+00 0. -1.
</event>
<event>
 7    1  0.5109948E-006  0.1534719E+03  0.7561462E-02  0.1196270E+00
          2   -1    0    0  501    0  0.00000000000E+00  0.00000000000E+00  0.10352287703E+03  0.10352287703E+03  0.00000000000E+00 0. -1.
         -2   -1    0    0    0  501 -0.00000000000E+00 -0.00000000000E+00 -0.27271748731E+03  0.27271748731E+03  0.00000000000E+00 0.  1.
         23    2    1    2    0    0 -0.95253378326E+02  0.81123238522E+02 -0.12128830190E+03  0.21450396063E+03  0.12508761345E+03 0.  0.
          5    1    3    3  502    0  0.21477726004E+02  0.15884740093E+02  0.82595074441E+01  0.28272062984E+02  0.41800000000E+01 0.  1.
         -5    1    3    3    0  502 -0.11673110433E+03  0.65238498429E+02 -0.12954780935E+03  0.18623189765E+03  0.41800000000E+01 0.  1.
        -11    1    1    2    0    0 -0.82850531847E+01 -0.29072092276E+02  0.10452363204E+02  0.31985630400E+02  0.00000000000E+00 0.  1.
         11    1    1    2    0    0  0.10353843151E+03 -0.52051146246E+02 -0.58358671584E+02  0.12975077331E+03  0.00000000000E+00 0. -1.
</event>
<event>
 7    1  0.5109948E-006  0.8589071E+02  0.7561462E-02  0.1313120E+00
          1   -1    0    0  501    0  0.00000000000E+00  0.00000000000E+00  0.67797113692E+02  0.67797113692E+02  0.00000000000E+00 0. -1.
         -1   -1    0    0    0  501 -0.00000000000E+00 -0.00000000000E+00 -0.18577281477E+03  0.18577281477E+03  0.00000000000E+00 0.  1.
         23    2    1    2    0    0  0.20601777058E+02  0.15776982457E+02 -0.53045615938E+02  0.13832880949E+03  0.12509067020E+03 0.  0.
          5    1    3    3  502    0  0.42113899177E+02 -0.92638102566E+01  0.27408352777E+02  0.51264889411E+02  0.41800000000E+01 0.  1.
         -5    1    3    3    0  502 -0.21512122118E+02  0.25040792714E+02 -0.80453968715E+02  0.87063920080E+02  0.41800000000E+01 0.  1.
        -11    1    1    2    0    0  0.70829451561E+01 -0.50375631005E+02 -0.36032632827E+02  0.62339577635E+02  0.00000000000E+00 0.  1.
         11    1    1    2    0    0 -0.27684722214E+02  0.34598648548E+02 -0.28897452310E+02  0.52901541333E+02  0.00000000000E+00 0. -1.
</event>
<event>
 7    1  0.5109948E-006  0.1377038E+03  0.7561462E-02  0.1216452E+00
         -2   -1    0    0    0  501 -0.00000000000E+00  0.00000000000E+00  0.13875021018E+03  0.13875021018E+03  0.00000000000E+00 0.  1.
          2   -1    0    0  501    0  0.00000000000E+00 -0.00000000000E+00 -0.18211878342E+03  0.18211878342E+03  0.00000000000E+00 0. -1.
         23    2    1    2    0    0  0.69863567352E+02 -0.79012553281E+02  0.37154165481E+02  0.16778435708E+03  0.12508899572E+03 0.  0.
          5    1    3    3  502    0  0.85858790007E+02 -0.12479184446E+02 -0.55103188694E+01  0.87036187187E+02  0.41800000000E+01 0. -1.
         -5    1    3    3    0  502 -0.15995222656E+02 -0.66533368835E+02  0.42664484351E+02  0.80748169894E+02  0.41800000000E+01 0. -1.
        -11    1    1    2    0    0 -0.36956889035E+02  0.29030074739E+01  0.61016942451E+00  0.37075752269E+02  0.00000000000E+00 0. -1.
         11    1    1    2    0    0 -0.32906678316E+02  0.76109545807E+02 -0.81132908146E+02  0.11600888425E+03  0.00000000000E+00 0.  1.
</event>
<event>
 7    1  0.5109948E-006  0.9541706E+02  0.7561462E-02  0.1290240E+00
          3   -1    0    0  501    0  0.00000000000E+00  0.00000000000E+00  0.26339820784E+02  0.26339820784E+02  0.00000000000E+00 0. -1.
         -3   -1    0    0    0  501 -0.00000000000E+00 -0.00000000000E+00 -0.66378192396E+03  0.66378192396E+03  0.00000000000E+00 0.  1.
         23    2    1    2    0    0  0.19001710385E+02 -0.35731374974E+02 -0.51539663008E+03  0.53190177702E+03  0.12509203788E+03 0.  0.
          5    1    3    3  502    0  0.47315486704E+02  0.28897925094E+02 -0.30281926928E+03  0.30788119073E+03  0.41800000000E+01 0.  1.
         -5    1    3    3    0  502 -0.28313776318E+02 -0.64629300068E+02 -0.21257736080E+03  0.22402058629E+03  0.41800000000E+01 0.  1.
        -11    1    1    2    0    0  0.15882404745E+02  0.21837367597E+02 -0.11730499126E+03  0.12037268120E+03  0.00000000000E+00 0.  1.
         11    1    1    2    0    0 -0.34884115130E+02  0.13894007377E+02 -0.47404818318E+01  0.37847286526E+02  0.00000000000E+00 0. -1.
</event>
<event>
 7    1  0.5109948E-006  0.1156766E+03  0.7561462E-02  0.1250405E+00
          1   -1    0    0  501    0  0.00000000000E+00  0.00000000000E+00  0.33330112697E+03  0.33330112697E+03  0.00000000000E+00 0. -1.
         -1   -1    0    0    0  501 -0.00000000000E+00 -0.00000000000E+00 -0.53925874023E+02  0.53925874023E+02  0.00000000000E+00 0.  1.
         23    2    1    2    0    0  0.51261655326E+02 -0.48402728863E+02  0.13036387742E+03  0.19394069957E+03  0.12509065890E+03 0.  0.
          5    1    3    3  502    0 -0.25885263961E+02 -0.58734117702E+02  0.45986197606E+02  0.79069249667E+02  0.41800000000E+01 0. -1.
         -5    1    3    3    0  502  0.77146919287E+02  0.10331388839E+02  0.84377679818E+02  0.11487144990E+03  0.41800000000E+01 0. -1.
        -11    1    1    2    0    0 -0.56381983152E+02  0.19389878877E+02  0.23046625807E+02  0.63922158820E+02  0.00000000000E+00 0.  1.
         11    1    1    2    0    0  0.51203278261E+01  0.29012849986E+02  0.12596474972E+03  0.12936414261E+03  0.00000000000E+00 0. -1.
</event>
<event>
 7    1  0.5109948E-006  0.1049516E+03  0.7561462E-02  0.1270215E+00
         -1   -1    0    0    0  501 -0.00000000000E+00  0.00000000000E+00  0.90763653369E+02  0.90763653369E+02  0.00000000000E+00 0.  1.
          1   -1    0    0  501    0  0.00000000000E+00 -0.00000000000E+00 -0.20856218305E+03  0.20856218305E+03  0.00000000000E+00 0. -1.
         23    2    1    2    0    0 -0.48847298947E+02 -0.63521688336E+02 -0.37601779279E+02  0.15324086320E+03  0.12509118612E+03 0.  0.
          5    1    3    3  502    0 -0.51916306104E+02  0.10537249996E+02  0.22515108230E+02  0.57712554749E+02  0.41800000000E+01 0. -1.
         -5    1    3    3    0  502  0.30690071575E+01 -0.74058938332E+02 -0.60116887510E+02  0.95528308452E+02  0.41800000000E+01 0. -1.
        -11    1    1    2    0    0  0.39794308412E+02  0.36400770261E+02 -0.98385710141E+02  0.11219782091E+03  0.00000000000E+00 0. -1.
         11    1    1    2    0    0  0.90529905349E+01  0.27120918075E+02  0.18188959740E+02  0.33887152304E+02  0.00000000000E+00 0.  1.
</event>
<event>
 7    1  0.5109948E-006  0.1238527E+03  0.7561462E-02  0.1236873E+00
         -2   -1    0    0    0  501 -0.00000000000E+00  0.00000000000E+00  0.90361486702E+02  0.90361486702E+02  0.00000000000E+00 0. -1.
          2   -1    0    0  501    0  0.00000000000E+00 -0.00000000000E+00 -0.17142849225E+03  0.17142849225E+03  0.00000000000E+00 0.  1.
         23    2    1    2    0    0  0.46329910626E+02  0.45194400903E+02 -0.36778473940E+02  0.14556523467E+03  0.12509031501E+03 0.  0.
          5    1    3    3  502    0  0.60490118988E+02 -0.27295535717E+02 -0.12155081752E+02  0.67596739401E+02  0.41800000000E+01 0.  1.
         -5    1    3    3    0  502 -0.14160208362E+02  0.72489936620E+02 -0.24623392188E+02  0.77968495271E+02  0.41800000000E+01 0.  1.
        -11    1    1    2    0    0 -0.43018382796E+02 -0.70024236899E+02 -0.30721663530E+02  0.87737082363E+02  0.00000000000E+00 0.  1.
         11    1    1    2    0    0 -0.33115278305E+01  0.24829835996E+02 -0.13566868083E+02  0.28487661921E+02  0.00000000000E+00 0. -1.
</event>
<event>
 6    1  0.5109948E-006  0.1466940E+03  0.7561462E-02  0.1204595E+00
         -1   -1    0    0    0  501 -0.00000000000E+00  0.00000000000E+00  0.26458444795E+03  0.26458444795E+03  0.00000000000E+00 0.  1.
          1   -1    0    0  501    0  0.00000000000E+00 -0.00000000000E+00 -0.18206695638E+03  0.18206695638E+03  0.00000000000E+00 0. -1.
          5    1    1    2  502    0  0.11442667838E+03 -0.30546749848E+02  0.30371445338E+02  0.12233750751E+03  0.41800000000E+01 0. -1.
         -5    1    1    2    0  502 -0.70675163800E+02 -0.12282604032E+01  0.15864328897E+03  0.17372867621E+03  0.41800000000E+01 0.  1.
        -11    1    1    2    0    0  0.24024462037E+02  0.26979327379E+02 -0.52834329930E+02  0.64004103783E+02  0.00000000000E+00 0. -1.
         11    1    1    2    0    0 -0.67775976616E+02  0.47956828722E+01 -0.53662912812E+02  0.86581116832E+02  0.00000000000E+00 0.  1.
</event>
<event>
 7    1  0.5109948E-006  0.6390518E+02  0.7561462E-02  0.1382138E+00
         -3   -1    0    0    0  501 -0.00000000000E+00  0.00000000000E+00  0.39236452312E+02  0.39236452312E+02  0.00000000000E+00 0.  1.
          3   -1    0    0  501    0  0.00000000000E+00 -0.00000000000E+00 -0.41849821889E+03  0.41849821889E+03  0.00000000000E+00 0. -1.
         23    2    1    2    0    0  0.44772461115E+02 -0.40343322842E+02 -0.15848561414E+03  0.21070708588E+03  0.12509048397E+03 0.  0.
          5    1    3    3  502    0  0.53196129881E+01 -0.97743354449E+01 -0.16015418717E+03  0.16059474457E+03  0.41800000000E+01 0. -1.
         -5    1    3    3    0  502  0.39452848127E+02 -0.30568987397E+02  0.16685730303E+01  0.50112341312E+02  0.41800000000E+01 0. -1.
        -11    1    1    2    0    0 -0.16548380171E+02 -0.65870728302E-01  0.39053327002E+01  0.17003083506E+02  0.00000000000E+00 0.  1.
         11    1    1    2    0    0 -0.28224080945E+02  0.40409193571E+02 -0.22468148514E+03  0.23002450182E+03  0.00000000000E+00 0. -1.
</event>
<event>
 6    1  0.5109948E-006  0.1169710E+03  0.7561462E-02  0.1248179E+00
         -3   -1    0    0    0  501 -0.00000000000E+00  0.00000000000E+00  0.20162586329E+03  0.20162586329E+03  0.00000000000E+00 0.  1.
          3   -1    0    0  501    0  0.00000000000E+00 -0.00000000000E+00 -0.16545276634E+03  0.16545276634E+03  0.00000000000E+00 0. -1.
          5    1    1    2  502    0  0.37681112318E+02  0.34903910931E+02 -0.26958441096E+01  0.51603189817E+02  0.41800000000E+01 0. -1.
         -5    1    1    2    0  502 -0.54458242290E+02  0.54593319129E+02  0.13462771965E+03  0.15520382065E+03  0.41800000000E+01 0.  1.
        -11    1    1    2    0    0 -0.19227272486E+02 -0.32890716091E+02 -0.83899940287E+02  0.92144924941E+02  0.00000000000E+00 0.  1.
         11    1    1    2    0    0  0.36004402459E+02 -0.56606513969E+02 -0.11858838300E+02  0.68126694224E+02  0.00000000000E+00 0. -1.
</event>
<event>
 7    1  0.5109948E-006  0.1395696E+03  0.7561462E-02  0.1213909E+00
          1   -1    0    0  501    0  0.00000000000E+00  0.00000000000E+00  0.50915734668E+03  0.50915734668E+03  0.00000000000E+00 0. -1.
         -1   -1    0    0    0  501 -0.00000000000E+00 -0.00000000000E+00 -0.67062207495E+02  0.67062207495E+02  0.00000000000E+00 0.  1.
         23    2    1    2    0    0 -0.11801425218E+03  0.52563125680E+02  0.11603130995E+03  0.21401245620E+03  0.12509124917E+03 0.  0.
          5    1    3    3  502    0 -0.91235825253E+02  0.71510122521E+02  0.13330247223E+03  0.17670510727E+03  0.41800000000E+01 0.  1.
         -5    1    3    3    0  502 -0.26778426923E+02 -0.18946996841E+02 -0.17271162273E+02  0.37307348928E+02  0.41800000000E+01 0.  1.
        -11    1    1    2    0    0  0.85448628612E+02 -0.30457553537E+02  0.30365474076E+03  0.31691533931E+03  0.00000000000E+00 0. -1.
         11    1    1    2    0    0  0.32565623564E+02 -0.22105572143E+02  0.22409088468E+02  0.45291758675E+02  0.00000000000E+00 0.  1.
</event>
<event>
 6    1  0.5109948E-006  0.1085662E+03  0.7561462E-02  0.1263248E+00
         -4   -1    0    0    0  501 -0.00000000000E+00  0.00000000000E+00  0.51091908691E+03  0.51091908691E+03  0.00000000000E+00 0.  1.
          4   -1    0    0  501    0  0.00000000000E+00 -0.00000000000E+00 -0.87791948111E+02  0.87791948111E+02  0.00000000000E+00 0. -1.
          5    1    1    2  502    0  0.39663217792E+02  0.61291426622E+02  0.55096793807E+02  0.91558390718E+02  0.41800000000E+01 0. -1.
         -5    1    1    2    0  502 -0.40478821261E+02 -0.12609375165E+02  0.39744989591E+03  0.39972668596E+03  0.41800000000E+01 0.  1.
        -11    1    1    2    0    0  0.44582957635E+02 -0.18663591466E+02 -0.37654287943E+01  0.48478327239E+02  0.00000000000E+00 0.  1.
         11    1    1    2    0    0 -0.43767354166E+02 -0.30018459992E+02 -0.25654122120E+02  0.58947631104E+02  0.00000000000E+00 0. -1.
</event>
<event>
 6    1  0.5109948E-006  0.2693065E+03  0.7561462E-02  0.1101677E+00
         -2   -1    0    0    0  501 -0.00000000000E+00  0.00000000000E+00  0.18524548125E+03  0.18524548125E+03  0.00000000000E+00 0. -1.
          2   -1    0    0  501    0  0.00000000000E+00 -0.00000000000E+00 -0.99580237098E+03  0.99580237098E+03  0.00000000000E+00 0.  1.
          5    1    1    2  502    0 -0.82600989846E+02  0.11540645926E+03 -0.59958659327E+03  0.61616810174E+03  0.41800000000E+01 0.  1.
         -5    1    1    2    0  502  0.19783474633E+03 -0.15710238587E+03  0.54901599332E+02  0.25855638555E+03  0.41800000000E+01 0. -1.
        -11    1    1    2    0    0 -0.11333140875E+03  0.11722059397E+02 -0.16101012627E+03  0.19724521704E+03  0.00000000000E+00 0.  1.
         11    1    1    2    0    0 -0.19023477381E+01  0.29973867216E+02 -0.10486176952E+03  0.10907814790E+03  0.00000000000E+00 0. -1.
</event>
<event>
 7    1  0.5109948E-006  0.1496810E+03  0.7561462E-02  0.1200865E+00
          2   -1    0    0  501    0  0.00000000000E+00  0.00000000000E+00  0.30418096393E+03  0.30418096393E+03  0.00000000000E+00 0. -1.
         -2   -1    0    0    0  501 -0.00000000000E+00 -0.00000000000E+00 -0.75621913328E+02  0.75621913328E+02  0.00000000000E+00 0.  1.
         23    2    1    2    0    0 -0.10274141047E+03 -0.21169181230E+02  0.11166545169E+03  0.19778978935E+03  0.12509075110E+03 0.  0.
          5    1    3    3  502    0 -0.24672917943E+02 -0.65449955050E+02  0.68940971754E+02  0.98299437853E+02  0.41800000000E+01 0. -1.
         -5    1    3    3    0  502 -0.78068492526E+02  0.44280773821E+02  0.42724479938E+02  0.99490351499E+02  0.41800000000E+01 0. -1.
        -11    1    1    2    0    0 -0.83084237634E+00  0.34947123201E+02  0.31906836040E+02  0.47329038710E+02  0.00000000000E+00 0. -1.
         11    1    1    2    0    0  0.10357225285E+03 -0.13777941971E+02  0.84986762866E+02  0.13468404919E+03  0.00000000000E+00 0.  1.
</event>
<event>
 7    1  0.5109948E-006  0.2095119E+03  0.7561462E-02  0.1141953E+00
         -2   -1    0    0    0  501 -0.00000000000E+00  0.00000000000E+00  0.53616620805E+02  0.53616620805E+02  0.00000000000E+00 0. -1.
          2   -1    0    0  501    0  0.00000000000E+00 -0.00000000000E+00 -0.87803983151E+03  0.87803983151E+03  0.00000000000E+00 0.  1.
         23    2    1    2    0    0 -0.10239282061E+03  0.14662042950E+03 -0.30938339470E+03  0.37861222828E+03  0.12508914593E+03 0.  0.
          5    1    3    3  502    0 -0.42593170012E+02  0.15196804264E+03 -0.23071652542E+03  0.27956403849E+03  0.41800000000E+01 0.  1.
         -5    1    3    3    0  502 -0.59799650602E+02 -0.53476131426E+01 -0.78666869276E+02  0.99048189787E+02  0.41800000000E+01 0.  1.
        -11    1    1    2    0    0 -0.17136189574E+02 -0.26066900293E+02 -0.95179257686E+02  0.10016098730E+03  0.00000000000E+00 0. -1.
         11    1    1    2    0    0  0.11952901019E+03 -0.12055352920E+03 -0.41986055832E+03  0.45288323673E+03  0.00000000000E+00 0.  1.
</event>
<event>
 7    1  0.5109948E-006  0.1592736E+03  0.7561462E-02  0.1189519E+00
         -3   -1    0    0    0  501 -0.00000000000E+00  0.00000000000E+00  0.62400471908E+02  0.62400471908E+02  0.00000000000E+00 0.  1.
          3   -1    0    0  501    0  0.00000000000E+00 -0.00000000000E+00 -0.41230356029E+03  0.41230356029E+03  0.00000000000E+00 0. -1.
         23    2    1    2    0    0  0.94207618641E+02 -0.69311731391E+02 -0.16653999144E+03  0.23887599128E+03  0.12508788486E+03 0.  0.
          5    1    3    3  502    0  0.62368677973E+02 -0.10504209364E+03 -0.13061041853E+03  0.17888612930E+03  0.41800000000E+01 0.  1.
         -5    1    3    3    0  502  0.31838940668E+02  0.35730362253E+02 -0.35929572915E+02  0.59989861973E+02  0.41800000000E+01 0.  1.
        -11    1    1    2    0    0 -0.32914397049E+01  0.56340055780E+02 -0.71977442147E+02  0.91464679733E+02  0.00000000000E+00 0.  1.
         11    1    1    2    0    0 -0.90916178936E+02  0.12971675611E+02 -0.11138565479E+03  0.14436336119E+03  0.00000000000E+00 0. -1.
</event>
<event>
 7    1  0.5109948E-006  0.1117844E+03  0.7561462E-02  0.1257301E+00
          3   -1    0    0  501    0  0.00000000000E+00  0.00000000000E+00  0.14962632108E+02  0.14962632108E+02  0.00000000000E+00 0. -1.
         -3   -1    0    0    0  501 -0.00000000000E+00 -0.00000000000E+00 -0.93414770604E+03  0.93414770604E+03  0.00000000000E+00 0.  1.
         23    2    1    2    0    0  0.32130737128E+02  0.20379854432E+01 -0.64824304612E+03  0.66098387401E+03  0.12507636547E+03 0.  0.
          5    1    3    3  502    0  0.74062110711E+02  0.28412759017E+02 -0.40173933737E+03  0.40951733628E+03  0.41800000000E+01 0.  1.
         -5    1    3    3    0  502 -0.41931373583E+02 -0.26374773574E+02 -0.24650370875E+03  0.25146653773E+03  0.41800000000E+01 0.  1.
        -11    1    1    2    0    0 -0.20602965912E+02  0.43133629414E+02 -0.17570511448E+03  0.18209140410E+03  0.00000000000E+00 0. -1.
         11    1    1    2    0    0 -0.11527771217E+02 -0.45171614857E+02 -0.95236913326E+02  0.10603506004E+03  0.00000000000E+00 0.  1.
</event>
<event>
 7    1  0.5109948E-006  0.1025257E+03  0.7561462E-02  0.1275073E+00
         -1   -1    0    0    0  501 -0.00000000000E+00  0.00000000000E+00  0.62062266755E+02  0.62062266755E+02  0.00000000000E+00 0.  1.
          1   -1    0    0  501    0  0.00000000000E+00 -0.00000000000E+00 -0.22091675870E+03  0.22091675870E+03  0.00000000000E+00 0. -1.
         23    2    1    2    0    0 -0.39447547895E+02 -0.16854830802E+02 -0.82664464311E+02  0.15595051103E+03  0.12508778468E+03 0.  0.
          5    1    3    3  502    0  0.31549399374E+02 -0.10390297838E+02  0.13561156635E+02  0.36120634814E+02  0.41800000000E+01 0.  1.
         -5    1    3    3    0  502 -0.70996947269E+02 -0.64645329633E+01 -0.96225620946E+02  0.11982987622E+03  0.41800000000E+01 0.  1.
        -11    1    1    2    0    0 -0.10807520173E+01 -0.34624672119E+02 -0.36990659231E+02  0.50678839910E+02  0.00000000000E+00 0. -1.
         11    1    1    2    0    0  0.40528299912E+02  0.51479502921E+02 -0.39199368400E+02  0.76349674510E+02  0.00000000000E+00 0.  1.
</event>
<event>
 6    1  0.5109948E-006  0.1723190E+03  0.7561462E-02  0.1175451E+00
          2   -1    0    0  501    0  0.00000000000E+00  0.00000000000E+00  0.34927482715E+03  0.34927482715E+03  0.00000000000E+00 0. -1.
         -2   -1    0    0    0  501 -0.00000000000E+00 -0.00000000000E+00 -0.94054649202E+02  0.94054649202E+02  0.00000000000E+00 0.  1.
          5    1    1    2  502    0  0.53850436292E+02 -0.76104533075E+02  0.12264327880E+03  0.15411234759E+03  0.41800000000E+01 0. -1.
         -5    1    1    2    0  502 -0.65693888741E+02  0.12932274708E+03  0.46148774637E+02  0.15227357528E+03  0.41800000000E+01 0.  1.
        -11    1    1    2    0    0  0.21222451446E+01  0.26152582442E+02  0.22574970791E+02  0.34613448239E+02  0.00000000000E+00 0.  1.
         11    1    1    2    0    0  0.97212073053E+01 -0.79370796443E+02  0.63853153725E+02  0.10233010525E+03  0.00000000000E+00 0. -1.
</event>
<event>
 7    1  0.5109948E-006  0.1090607E+03  0.7561462E-02  0.1262319E+00
          4   -1    0    0  501    0  0.00000000000E+00  0.00000000000E+00  0.17087008216E+02  0.17087008216E+02  0.00000000000E+00 0. -1.
         -4   -1    0    0    0  501 -0.00000000000E+00 -0.00000000000E+00 -0.88469206139E+03  0.88469206139E+03  0.00000000000E+00 0.  1.
         23    2    1    2    0    0 -0.32081341906E+02 -0.37617916788E+02 -0.61052851735E+03  0.62348582158E+03  0.11638375767E+03 0.  0.
          5    1    3    3  502    0 -0.68400711464E+02 -0.24426814119E+02 -0.23633444608E+03  0.24727872812E+03  0.41800000000E+01 0. -1.
         -5    1    3    3    0  502  0.36319369558E+02 -0.13191102670E+02 -0.37419407127E+03  0.37620709346E+03  0.41800000000E+01 0.  1.
        -11    1    1    2    0    0 -0.91223658034E+01  0.59262795131E+02 -0.13957120877E+03  0.15190595367E+03  0.00000000000E+00 0. -1.
         11    1    1    2    0    0  0.41203707709E+02 -0.21644878343E+02 -0.11750532706E+03  0.12638729436E+03  0.00000000000E+00 0.  1.
</event>
<event>
 7    1  0.5109948E-006  0.1131205E+03  0.7561462E-02  0.1254898E+00
         -2   -1    0    0    0  501 -0.00000000000E+00  0.00000000000E+00  0.22156958874E+02  0.22156958874E+02  0.00000000000E+00 0.  1.
          2   -1    0    0  501    0  0.00000000000E+00 -0.00000000000E+00 -0.66440955858E+03  0.66440955858E+03  0.00000000000E+00 0. -1.
         23    2    1    2    0    0  0.15260604668E+02 -0.47455081457E+02 -0.35193536150E+03  0.37681689457E+03  0.12509037753E+03 0.  0.
          5    1    3    3  502    0  0.19256123553E+02  0.40287491442E+02 -0.15014086159E+03  0.15669598265E+03  0.41800000000E+01 0.  1.
         -5    1    3    3    0  502 -0.39955188856E+01 -0.87742572899E+02 -0.20179449991E+03  0.22012091192E+03  0.41800000000E+01 0.  1.
        -11    1    1    2    0    0 -0.47758228031E+02  0.31894342860E+02 -0.94012091216E+02  0.11016519753E+03  0.00000000000E+00 0.  1.
         11    1    1    2    0    0  0.32497623363E+02  0.15560738597E+02 -0.19630514698E+03  0.19958442535E+03  0.00000000000E+00 0. -1.
</event>
<event>
 7    1  0.5109948E-006  0.1086997E+03  0.7561462E-02  0.1262997E+00
         -1   -1    0    0    0  501 -0.00000000000E+00  0.00000000000E+00  0.22647084107E+02  0.22647084107E+02  0.00000000000E+00 0.  1.
          1   -1    0    0  501    0  0.00000000000E+00 -0.00000000000E+00 -0.63811356318E+03  0.63811356318E+03  0.00000000000E+00 0. -1.
         23    2    1    2    0    0  0.30551746877E+02  0.49007243692E+01 -0.22379905443E+03  0.25824604813E+03  0.12509028049E+03 0.  0.
          5    1    3    3  502    0 -0.46702494413E+02 -0.32730246020E+01 -0.11722317381E+03  0.12629560781E+03  0.41800000000E+01 0. -1.
         -5    1    3    3    0  502  0.77254241290E+02  0.81737489712E+01 -0.10657588063E+03  0.13195044032E+03  0.41800000000E+01 0. -1.
        -11    1    1    2    0    0  0.17623713914E+01 -0.42775429228E+02 -0.16744225130E+03  0.17282867476E+03  0.00000000000E+00 0.  1.
         11    1    1    2    0    0 -0.32314118269E+02  0.37874704859E+02 -0.22422517334E+03  0.22968592440E+03  0.00000000000E+00 0. -1.
</event>
<event>
 7    1  0.5109948E-006  0.1418959E+03  0.7561462E-02  0.1210800E+00
          1   -1    0    0  501    0  0.00000000000E+00  0.00000000000E+00  0.24196975830E+02  0.24196975830E+02  0.00000000000E+00 0. -1.
         -1   -1    0    0    0  501 -0.00000000000E+00 -0.00000000000E+00 -0.91603028557E+03  0.91603028557E+03  0.00000000000E+00 0.  1.
         23    2    1    2    0    0 -0.91921028487E+02  0.10596854594E+02 -0.61255335282E+03  0.63200560439E+03  0.12509078752E+03 0.  0.
          5    1    3    3  502    0  0.28603038475E+02  0.16826605599E+02 -0.17081937589E+03  0.17406320705E+03  0.41800000000E+01 0.  1.
         -5    1    3    3    0  502 -0.12052406696E+03 -0.62297510057E+01 -0.44173397693E+03  0.45794239735E+03  0.41800000000E+01 0.  1.
        -11    1    1    2    0    0  0.11052714076E+03 -0.82765170898E+01 -0.24978332205E+03  0.27326993533E+03  0.00000000000E+00 0.  1.
         11    1    1    2    0    0 -0.18606112272E+02 -0.23203375038E+01 -0.29496634871E+02  0.34951721685E+02  0.00000000000E+00 0. -1.
</event>
<event>
 7    1  0.5109948E-006  0.1879992E+03  0.7561462E-02  0.1160278E+00
         -2   -1    0    0    0  501 -0.00000000000E+00  0.00000000000E+00  0.83770559298E+02  0.83770559298E+02  0.00000000000E+00 0.  1.
          2   -1    0    0  501    0  0.00000000000E+00 -0.00000000000E+00 -0.46739897269E+03  0.46739897269E+03  0.00000000000E+00 0. -1.
         23    2    1    2    0    0  0.16516215914E+03 -0.28929278333E+01 -0.20302545341E+03  0.28786186705E+03  0.11982575652E+03 0.  0.
          5    1    3    3  502    0 -0.13438481216E+02  0.53056349766E+01  0.26892845855E+01  0.15278978745E+02  0.41800000000E+01 0. -1.
         -5    1    3    3    0  502  0.17860064036E+03 -0.81985628099E+01 -0.20571473800E+03  0.27258288831E+03  0.41800000000E+01 0.  1.
        -11    1    1    2    0    0 -0.17026113246E+01 -0.17331122744E+02  0.18454958984E+01  0.17512068867E+02  0.00000000000E+00 0.  1.
         11    1    1    2    0    0 -0.16345954782E+03  0.20224050577E+02 -0.18244845588E+03  0.24579559607E+03  0.00000000000E+00 0. -1.
</event>
<event>
 7    1  0.5109948E-006  0.1463937E+03  0.7561462E-02  0.1204976E+00
         -1   -1    0    0    0  501 -0.00000000000E+00  0.00000000000E+00  0.13677728464E+03  0.13677728464E+03  0.00000000000E+00 0.  1.
          1   -1    0    0  501    0  0.00000000000E+00 -0.00000000000E+00 -0.29510728820E+03  0.29510728820E+03  0.00000000000E+00 0. -1.
         23    2    1    2    0    0  0.13480522159E+03  0.83224133542E+01  0.26573398703E+02  0.18600043740E+03  0.12509319271E+03 0.  0.
          5    1    3    3  502    0  0.97157403628E+01  0.14209006301E+02 -0.40265934183E+02  0.43989877546E+02  0.41800000000E+01 0. -1.
         -5    1    3    3    0  502  0.12508948123E+03 -0.58865929464E+01  0.66839332886E+02  0.14201055986E+03  0.41800000000E+01 0. -1.
        -11    1    1    2    0    0 -0.77216293523E+02 -0.36793089029E+02 -0.15025239745E+03  0.17289265550E+03  0.00000000000E+00 0. -1.
         11    1    1    2    0    0 -0.57588928069E+02  0.28470675675E+02 -0.34651004808E+02  0.72991479939E+02  0.00000000000E+00 0.  1.
</event>
<event>
 7    1  0.5109948E-006  0.2254896E+03  0.7561462E-02  0.1129855E+00
         -2   -1    0    0    0  501 -0.00000000000E+00  0.00000000000E+00  0.10350498834E+03  0.10350498834E+03  0.00000000000E+00 0.  1.
          2   -1    0    0  501    0  0.00000000000E+00 -0.00000000000E+00 -0.61844057061E+03  0.61844057061E+03  0.00000000000E+00 0. -1.
         23    2    1    2    0    0  0.21650100390E+03  0.45402301875E+02 -0.18726045838E+03  0.31567506553E+03  0.12510081541E+03 0.  0.
          5    1    3    3  502    0  0.57834309367E+01 -0.54436190401E+01  0.16092318961E+02  0.18425965136E+02  0.41800000000E+01 0.  1.
         -5    1    3    3    0  502  0.21071757296E+03  0.50845920916E+02 -0.20335277735E+03  0.29724910039E+03  0.41800000000E+01 0.  1.
        -11    1    1    2    0    0 -0.81785380952E+02  0.35553924690E+01 -0.56257758420E+02  0.99329878362E+02  0.00000000000E+00 0.  1.
         11    1    1    2    0    0 -0.13471562295E+03 -0.48957694344E+02 -0.27141736546E+03  0.30694061506E+03  0.00000000000E+00 0. -1.
</event>
<event>
 7    1  0.5109948E-006  0.5482796E+02  0.7561462E-02  0.1420914E+00
         -2   -1    0    0    0  501 -0.00000000000E+00  0.00000000000E+00  0.35405450901E+02  0.35405450901E+02  0.00000000000E+00 0. -1.
          2   -1    0    0  501    0  0.00000000000E+00 -0.00000000000E+00 -0.33795451962E+03  0.33795451962E+03  0.00000000000E+00 0.  1.
         23    2    1    2    0    0 -0.93241705214E+01 -0.10776028638E+02 -0.17766335357E+03  0.21774590754E+03  0.12508377233E+03 0.  0.
          5    1    3    3  502    0  0.24495422440E+02  0.53002655518E+01 -0.17826077086E+03  0.18006247073E+03  0.41800000000E+01 0. -1.
         -5    1    3    3    0  502 -0.33819592961E+02 -0.16076294190E+02  0.59741729014E+00  0.37683436817E+02  0.41800000000E+01 0. -1.
        -11    1    1    2    0    0 -0.15149950812E+02  0.15465339843E+02 -0.12860871485E+03  0.13041817082E+03  0.00000000000E+00 0.  1.
         11    1    1    2    0    0  0.24474121333E+02 -0.46893112050E+01  0.37229997023E+01  0.25195892153E+02  0.00000000000E+00 0. -1.
</event>
<event>
 7    1  0.5109948E-006  0.1270843E+03  0.7561462E-02  0.1231847E+00
          2   -1    0    0  501    0  0.00000000000E+00  0.00000000000E+00  0.49229530255E+03  0.49229530255E+03  0.00000000000E+00 0. -1.
         -2   -1    0    0    0  501 -0.00000000000E+00 -0.00000000000E+00 -0.45568523931E+02  0.45568523931E+02  0.00000000000E+00 0.  1.
         23    2    1    2    0    0  0.73302001052E+02  0.64459927351E+02  0.19847185808E+03  0.25409938133E+03  0.12508857481E+03 0.  0.
          5    1    3    3  502    0  0.11671192762E+02  0.56241756243E+02  0.18016980844E+03  0.18915069167E+03  0.41800000000E+01 0. -1.
         -5    1    3    3    0  502  0.61630808290E+02  0.82181711085E+01  0.18302049638E+02  0.64948689654E+02  0.41800000000E+01 0. -1.
        -11    1    1    2    0    0  0.17474078763E+02  0.69064732044E+01  0.60432088522E+02  0.63285702365E+02  0.00000000000E+00 0. -1.
         11    1    1    2    0    0 -0.90776079815E+02 -0.71366400556E+02  0.18782283201E+03  0.22047874279E+03  0.00000000000E+00 0.  1.
</event>
<event>
 7    1  0.5109948E-006  0.7475195E+02  0.7561462E-02  0.1344641E+00
          2   -1    0    0  501    0  0.00000000000E+00  0.00000000000E+00  0.48012822084E+02  0.48012822084E+02  0.00000000000E+00 0. -1.
         -2   -1    0    0    0  501 -0.00000000000E+00 -0.00000000000E+00 -0.28654564996E+03  0.28654564996E+03  0.00000000000E+00 0.  1.
         23    2    1    2    0    0 -0.19739073447E+02  0.30095026937E+02 -0.16793876344E+03  0.21247728929E+03  0.12509128080E+03 0.  0.
          5    1    3    3  502    0 -0.28519876931E+02  0.27578718403E+02  0.41385981167E+01  0.40106975494E+02  0.41800000000E+01 0. -1.
         -5    1    3    3    0  502  0.87808034839E+01  0.25163085345E+01 -0.17207736156E+03  0.17237031380E+03  0.41800000000E+01 0. -1.
        -11    1    1    2    0    0  0.17381280128E+01 -0.62485354425E+02 -0.42752652968E+02  0.75731300942E+02  0.00000000000E+00 0. -1.
         11    1    1    2    0    0  0.18000945434E+02  0.32390327488E+02 -0.27841411469E+02  0.46349881811E+02  0.00000000000E+00 0.  1.
</event>
<event>
 7    1  0.5109948E-006  0.1065653E+03  0.7561462E-02  0.1267066E+00
         -1   -1    0    0    0  501 -0.00000000000E+00  0.00000000000E+00  0.49157205459E+02  0.49157205459E+02  0.00000000000E+00 0.  1.
          1   -1    0    0  501    0  0.00000000000E+00 -0.00000000000E+00 -0.38228349904E+03  0.38228349904E+03  0.00000000000E+00 0. -1.
         23    2    1    2    0    0  0.84935776834E+01  0.79301137302E+02 -0.22128113758E+03  0.26641014080E+03  0.12509280569E+03 0.  0.
          5    1    3    3  502    0 -0.18477786258E+02  0.30503005672E+02 -0.20507740941E+03  0.20819720985E+03  0.41800000000E+01 0. -1.
         -5    1    3    3    0  502  0.26971363942E+02  0.48798131631E+02 -0.16203728171E+02  0.58212930953E+02  0.41800000000E+01 0. -1.
        -11    1    1    2    0    0  0.39902889543E+02 -0.19597407313E+02 -0.38988054271E+02  0.59130088306E+02  0.00000000000E+00 0.  1.
         11    1    1    2    0    0 -0.48396467227E+02 -0.59703729990E+02 -0.72857101729E+02  0.10590047539E+03  0.00000000000E+00 0. -1.
</event>
<event>
 7    1  0.5109948E-006  0.1254021E+03  0.7561462E-02  0.1234442E+00
         -2   -1    0    0    0  501 -0.00000000000E+00  0.00000000000E+00  0.20874761007E+03  0.20874761007E+03  0.00000000000E+00 0.  1.
          2   -1    0    0  501    0  0.00000000000E+00 -0.00000000000E+00 -0.89168168128E+02  0.89168168128E+02  0.00000000000E+00 0. -1.
         23    2    1    2    0    0 -0.25471324907E+02 -0.63913440221E+02  0.85220680870E+02  0.16625750242E+03  0.12508107943E+03 0.  0.
          5    1    3    3  502    0 -0.69553048779E+02 -0.62981845637E+01  0.45316415940E+02  0.83356725445E+02  0.41800000000E+01 0. -1.
         -5    1    3    3    0  502  0.44081723872E+02 -0.57615255658E+02  0.39904264930E+02  0.82900776979E+02  0.41800000000E+01 0. -1.
        -11    1    1    2    0    0  0.24988164355E+02  0.84227892699E+02  0.54222924264E+02  0.10324181218E+03  0.00000000000E+00 0.  1.
         11    1    1    2    0    0  0.48316055181E+00 -0.20314452477E+02 -0.19864163196E+02  0.28416463592E+02  0.00000000000E+00 0. -1.
</event>
<event>
 7    1  0.5109948E-006  0.1084336E+03  0.7561462E-02  0.1263498E+00
          2   -1    0    0  501    0  0.00000000000E+00  0.00000000000E+00  0.74251356349E+03  0.74251356349E+03  0.00000000000E+00 0. -1.
         -2   -1    0    0    0  501 -0.00000000000E+00 -0.00000000000E+00 -0.21100734300E+02  0.21100734300E+02  0.00000000000E+00 0.  1.
         23    2    1    2    0    0  0.42205813994E+02 -0.45375249301E+02  0.37232057646E+03  0.39762949515E+03  0.12508540990E+03 0.  0.
          5    1    3    3  502    0  0.18928387222E+02 -0.70969474207E+02  0.34658881250E+03  0.35431091920E+03  0.41800000000E+01 0. -1.
         -5    1    3    3    0  502  0.23277426772E+02  0.25594224906E+02  0.25731763958E+02  0.43318575947E+02  0.41800000000E+01 0. -1.
        -11    1    1    2    0    0 -0.58057601058E+02 -0.24066672200E+01  0.15709604654E+03  0.16749819380E+03  0.00000000000E+00 0.  1.
         11    1    1    2    0    0  0.15851787064E+02  0.47781916521E+02  0.19199620619E+03  0.19848660884E+03  0.00000000000E+00 0. -1.
</event>
<event>
 7    1  0.5109948E-006  0.1204607E+03  0.7561462E-02  0.1242339E+00
          1   -1    0    0  501    0  0.00000000000E+00  0.00000000000E+00  0.33310795013E+03  0.33310795013E+03  0.00000000000E+00 0. -1.
         -1   -1    0    0    0  501 -0.00000000000E+00 -0.00000000000E+00 -0.81734644792E+02  0.81734644792E+02  0.00000000000E+00 0.  1.
         23    2    1    2    0    0  0.38908032436E+02  0.10277914494E+03  0.61185845994E+02  0.17739245718E+03  0.12508792304E+03 0.  0.
          5    1    3    3  502    0  0.22541742061E+01  0.80507296168E+02 -0.22098308324E+02  0.83620055420E+02  0.41800000000E+01 0.  1.
         -5    1    3    3    0  502  0.36653858230E+02  0.22271848769E+02  0.83284154319E+02  0.93772401757E+02  0.41800000000E+01 0.  1.
        -11    1    1    2    0    0  0.85313899324E+01 -0.20520543622E+02 -0.27677647276E+01  0.22395040663E+02  0.00000000000E+00 0.  1.
         11    1    1    2    0    0 -0.47439422369E+02 -0.82258601314E+02  0.19295522407E+03  0.21505509708E+03  0.00000000000E+00 0. -1.
</event>
<event>
 7    1  0.5109948E-006  0.2261192E+03  0.7561462E-02  0.1129401E+00
         -1   -1    0    0    0  501 -0.00000000000E+00  0.00000000000E+00  0.12372339215E+04  0.12372339215E+04  0.00000000000E+00 0.  1.
          1   -1    0    0  501    0  0.00000000000E+00 -0.00000000000E+00 -0.55136284453E+02  0.55136284453E+02  0.00000000000E+00 0. -1.
         23    2    1    2    0    0  0.81997671941E+02  0.18313842470E+03  0.92203124051E+03  0.95186784605E+03  0.12508991588E+03 0.  0.
          5    1    3    3  502    0  0.67219023617E+01 -0.17125820204E+02  0.39638520286E+02  0.43899457622E+02  0.41800000000E+01 0. -1.
         -5    1    3    3    0  502  0.75275769579E+02  0.20026424491E+03  0.88239272023E+03  0.90796838843E+03  0.41800000000E+01 0. -1.
        -11    1    1    2    0    0 -0.15020998692E+02 -0.13754795407E+03  0.17384349416E+03  0.22218602686E+03  0.00000000000E+00 0. -1.
         11    1    1    2    0    0 -0.66976673249E+02 -0.45590470636E+02  0.86222902391E+02  0.11831633306E+03  0.00000000000E+00 0.  1.
</event>
<event>
 7    1  0.5109948E-006  0.1904409E+03  0.7561462E-02  0.1158064E+00
         -1   -1    0    0    0  501 -0.00000000000E+00  0.00000000000E+00  0.17941944233E+03  0.17941944233E+03  0.00000000000E+00 0.  1.
          1   -1    0    0  501    0  0.00000000000E+00 -0.00000000000E+00 -0.23922353657E+03  0.23922353657E+03  0.00000000000E+00 0. -1.
         23    2    1    2    0    0 -0.17484792666E+03  0.11268713992E+02 -0.15189097515E+02  0.21581611340E+03  0.12508838774E+03 0.  0.
          5    1    3    3  502    0 -0.40241197768E+02  0.35544613521E+02  0.41204885148E+02  0.67809206663E+02  0.41800000000E+01 0.  1.
         -5    1    3    3    0  502 -0.13460672889E+03 -0.24275899529E+02 -0.56393982663E+02  0.14800690673E+03  0.41800000000E+01 0.  1.
        -11    1    1    2    0    0  0.83830670468E+01 -0.21831991194E+02 -0.26034007975E+02  0.34995445759E+02  0.00000000000E+00 0. -1.
         11    1    1    2    0    0  0.16646485961E+03  0.10563277202E+02 -0.18580988758E+02  0.16783141974E+03  0.00000000000E+00 0.  1.
</event>
<event>
 7    1  0.5109948E-006  0.8313281E+02  0.7561462E-02  0.1320389E+00
         -1   -1    0    0    0  501 -0.00000000000E+00  0.00000000000E+00  0.68248935577E+02  0.68248935577E+02  0.00000000000E+00 0.  1.
          1   -1    0    0  501    0  0.00000000000E+00 -0.00000000000E+00 -0.45928063122E+03  0.45928063122E+03  0.00000000000E+00 0. -1.
         23    2    1    2    0    0 -0.21195545096E+02  0.25619009070E+02  0.61954415753E+01  0.11862230043E+03  0.11369820537E+03 0.  0.
          5    1    3    3  502    0 -0.41417016012E+02  0.74366308456E+01 -0.44222149452E+02  0.61186138919E+02  0.41800000000E+01 0. -1.
         -5    1    3    3    0  502  0.20221470915E+02  0.18182378224E+02  0.50417591027E+02  0.57436161509E+02  0.41800000000E+01 0.  1.
        -11    1    1    2    0    0  0.55640944898E+02 -0.27304184227E+02 -0.23335524876E+03  0.24144586422E+03  0.00000000000E+00 0.  1.
         11    1    1    2    0    0 -0.34445399802E+02  0.16851751574E+01 -0.16387188846E+03  0.16746140215E+03  0.00000000000E+00 0. -1.
</event>
<event>
 7    1  0.5109948E-006  0.9546743E+02  0.7561462E-02  0.1290127E+00
         -1   -1    0    0    0  501 -0.00000000000E+00  0.00000000000E+00  0.57886294975E+03  0.57886294975E+03  0.00000000000E+00 0.  1.
          1   -1    0    0  501    0  0.00000000000E+00 -0.00000000000E+00 -0.23412995619E+02  0.23412995619E+02  0.00000000000E+00 0. -1.
         23    2    1    2    0    0  0.35549123454E+02 -0.26144788904E+02  0.31461668089E+03  0.34143319455E+03  0.12508269377E+03 0.  0.
          5    1    3    3  502    0  0.60007727245E+02 -0.24687019356E+01  0.61713614921E+02  0.86215221887E+02  0.41800000000E+01 0.  1.
         -5    1    3    3    0  502 -0.24458603791E+02 -0.23676086969E+02  0.25290306597E+03  0.25521797266E+03  0.41800000000E+01 0.  1.
        -11    1    1    2    0    0 -0.54378807127E+02 -0.10362462282E+02  0.17195331239E+03  0.18064433822E+03  0.00000000000E+00 0.  1.
         11    1    1    2    0    0  0.18829683673E+02  0.36507251186E+02  0.68879960847E+02  0.80198412595E+02  0.00000000000E+00 0. -1.
</event>
<event>
 7    1  0.5109948E-006  0.1646831E+03  0.7561462E-02  0.1183509E+00
         -1   -1    0    0    0  501 -0.00000000000E+00  0.00000000000E+00  0.87507713553E+03  0.87507713553E+03  0.00000000000E+00 0. -1.
          1   -1    0    0  501    0  0.00000000000E+00 -0.00000000000E+00 -0.40697288399E+02  0.40697288399E+02  0.00000000000E+00 0.  1.
         23    2    1    2    0    0 -0.86002954259E+02  0.12726763252E+03  0.40459032383E+03  0.45048221048E+03  0.12508930168E+03 0.  0.
          5    1    3    3  502    0 -0.56815890648E+02  0.43344192621E+02  0.31937434344E+03  0.32729834725E+03  0.41800000000E+01 0. -1.
         -5    1    3    3    0  502 -0.29187063611E+02  0.83923439900E+02  0.85215980385E+02  0.12318386323E+03  0.41800000000E+01 0. -1.
        -11    1    1    2    0    0  0.15517949727E+02 -0.85505429050E+02  0.14592639733E+03  0.16984257004E+03  0.00000000000E+00 0. -1.
         11    1    1    2    0    0  0.70485004532E+02 -0.41762203471E+02  0.28386312597E+03  0.29544964340E+03  0.00000000000E+00 0.  1.
</event>
<event>
 7    1  0.5109948E-006  0.7566767E+02  0.7561462E-02  0.1341816E+00
         -3   -1    0    0    0  501 -0.00000000000E+00  0.00000000000E+00  0.16145153794E+03  0.16145153794E+03  0.00000000000E+00 0.  1.
          3   -1    0    0  501    0  0.00000000000E+00 -0.00000000000E+00 -0.86149508964E+02  0.86149508964E+02  0.00000000000E+00 0. -1.
         23    2    1    2    0    0 -0.16907134253E+02 -0.43742445886E+02  0.49175347175E+02  0.14234020056E+03  0.12507303932E+03 0.  0.
          5    1    3    3  502    0  0.27894127778E+02  0.12790778357E+02 -0.24243476802E+02  0.39330712465E+02  0.41800000000E+01 0. -1.
         -5    1    3    3    0  502 -0.44801262032E+02 -0.56533224243E+02  0.73418823978E+02  0.10300948809E+03  0.41800000000E+01 0. -1.
        -11    1    1    2    0    0  0.41188969870E+01  0.25513249385E+02  0.59654630173E+02  0.65012045866E+02  0.00000000000E+00 0.  1.
         11    1    1    2    0    0  0.12788237266E+02  0.18229196500E+02 -0.33527948377E+02  0.40248800476E+02  0.00000000000E+00 0. -1.
</event>
<event>
 7    1  0.5109948E-006  0.1721731E+03  0.7561462E-02  0.1175600E+00
          2   -1    0    0  501    0  0.00000000000E+00  0.00000000000E+00  0.11115593362E+04  0.11115593362E+04  0.00000000000E+00 0.  1.
         -2   -1    0    0    0  501 -0.00000000000E+00 -0.00000000000E+00 -0.27779935802E+02  0.27779935802E+02  0.00000000000E+00 0. -1.
         23    2    1    2    0    0  0.11115675952E+03 -0.63377195403E+02  0.62658805019E+03  0.65163992985E+03  0.12509803933E+03 0.  0.
          5    1    3    3  502    0  0.41810537802E+02 -0.94039400756E+02  0.35740594752E+03  0.37195162815E+03  0.41800000000E+01 0.  1.
         -5    1    3    3    0  502  0.69346221714E+02  0.30662205353E+02  0.26918210267E+03  0.27968830169E+03  0.41800000000E+01 0.  1.
        -11    1    1    2    0    0  0.11931564742E+02  0.37869713784E+02  0.68364745536E+02  0.79058306910E+02  0.00000000000E+00 0. -1.
         11    1    1    2    0    0 -0.12308832426E+03  0.25507481619E+02  0.38882660469E+03  0.40864103526E+03  0.00000000000E+00 0.  1.
</event>
<event>
 7    1  0.5109948E-006  0.2288831E+03  0.7561462E-02  0.1127428E+00
         -1   -1    0    0    0  501 -0.00000000000E+00  0.00000000000E+00  0.42004227939E+02  0.42004227939E+02  0.00000000000E+00 0.  1.
          1   -1    0    0  501    0  0.00000000000E+00 -0.00000000000E+00 -0.14793958453E+04  0.14793958453E+04  0.00000000000E+00 0. -1.
         23    2    1    2    0    0  0.10990362675E+02 -0.22323493318E+03 -0.79385219752E+03  0.83414838497E+03  0.12509034006E+03 0.  0.
          5    1    3    3  502    0 -0.24054312353E+02 -0.14461975419E+03 -0.65100046157E+03  0.66731743317E+03  0.41800000000E+01 0. -1.
         -5    1    3    3    0  502  0.35044675029E+02 -0.78615178988E+02 -0.14285173595E+03  0.16683095180E+03  0.41800000000E+01 0. -1.
        -11    1    1    2    0    0  0.82077392375E+01  0.77082820324E+02 -0.35353704971E+03  0.36193586958E+03  0.00000000000E+00 0. -1.
         11    1    1    2    0    0 -0.19198101913E+02  0.14615211286E+03 -0.29000237019E+03  0.32531581874E+03  0.00000000000E+00 0.  1.
</event>
<event>
 7    1  0.5109948E-006  0.1325103E+03  0.7561462E-02  0.1223778E+00
          1   -1    0    0  501    0  0.00000000000E+00  0.00000000000E+00  0.86680996624E+03  0.86680996624E+03  0.00000000000E+00 0. -1.
         -1   -1    0    0    0  501 -0.00000000000E+00 -0.00000000000E+00 -0.25604185842E+02  0.25604185842E+02  0.00000000000E+00 0.  1.
         23    2    1    2    0    0 -0.96959586836E+02 -0.29416536483E+02  0.41143979051E+03  0.44181151678E+03  0.12509284970E+03 0.  0.
          5    1    3    3  502    0 -0.48025113517E+02 -0.72543721676E+02  0.16176898675E+03  0.18372719058E+03  0.41800000000E+01 0. -1.
         -5    1    3    3    0  502 -0.48934473319E+02  0.43127185193E+02  0.24967080376E+03  0.25808432620E+03  0.41800000000E+01 0. -1.
        -11    1    1    2    0    0  0.52787199407E+02  0.41062781562E+02  0.36659256737E+03  0.37264292681E+03  0.00000000000E+00 0. -1.
         11    1    1    2    0    0  0.44172387429E+02 -0.11646245079E+02  0.63173422523E+02  0.77959708496E+02  0.00000000000E+00 0.  1.
</event>
<event>
 7    1  0.5109948E-006  0.1388694E+03  0.7561462E-02  0.1214858E+00
         -2   -1    0    0    0  501 -0.00000000000E+00  0.00000000000E+00  0.52412935348E+02  0.52412935348E+02  0.00000000000E+00 0.  1.
          2   -1    0    0  501    0  0.00000000000E+00 -0.00000000000E+00 -0.47125362630E+03  0.47125362630E+03  0.00000000000E+00 0. -1.
         23    2    1    2    0    0 -0.77721113390E+02 -0.79311168710E+02 -0.19033068315E+03  0.25339150350E+03  0.12510256651E+03 0.  0.
          5    1    3    3  502    0 -0.91911867351E+02 -0.45138733428E+02 -0.19031535616E+03  0.21615435181E+03  0.41800000000E+01 0. -1.
         -5    1    3    3    0  502  0.14190753961E+02 -0.34172435282E+02 -0.15326991393E-01  0.37237151690E+02  0.41800000000E+01 0. -1.
        -11    1    1    2    0    0 -0.17159068877E+02  0.18955660621E+02 -0.16920021969E+02  0.30660036819E+02  0.00000000000E+00 0.  1.
         11    1    1    2    0    0  0.94880182267E+02  0.60355508089E+02 -0.21158998584E+03  0.23961502134E+03  0.00000000000E+00 0. -1.
</event>
<event>
 7    1  0.5109948E-006  0.1802458E+03  0.7561462E-02  0.1167565E+00
          2   -1    0    0  501    0  0.00000000000E+00  0.00000000000E+00  0.46813913720E+03  0.46813913720E+03  0.00000000000E+00 0. -1.
         -2   -1    0    0    0  501 -0.00000000000E+00 -0.00000000000E+00 -0.11710495370E+03  0.11710495370E+03  0.00000000000E+00 0.  1.
         23    2    1    2    0    0  0.12701046983E+03 -0.75508730731E+02 -0.38161191206E+00  0.19359969959E+03  0.12508984848E+03 0.  0.
          5    1    3    3  502    0  0.23869379341E+02  0.31300537409E+02  0.18809555742E+02  0.43826278640E+02  0.41800000000E+01 0.  1.
         -5    1    3    3    0  502  0.10314109049E+03 -0.10680926814E+03 -0.19191167654E+02  0.14977342095E+03  0.41800000000E+01 0.  1.
        -11    1    1    2    0    0 -0.43518993358E+02  0.77466592325E+02  0.16586582831E+03  0.18816601369E+03  0.00000000000E+00 0. -1.
         11    1    1    2    0    0 -0.83491476475E+02 -0.19578615942E+01  0.18554996711E+03  0.20347837762E+03  0.00000000000E+00 0.  1.
</event>
<event>
 7    1  0.5109948E-006  0.1138811E+03  0.7561462E-02  0.1253547E+00
         -1   -1    0    0    0  501 -0.00000000000E+00  0.00000000000E+00  0.28435171382E+02  0.28435171382E+02  0.00000000000E+00 0.  1.
          1   -1    0    0  501    0  0.00000000000E+00 -0.00000000000E+00 -0.49835507684E+03  0.49835507684E+03  0.00000000000E+00 0. -1.
         23    2    1    2    0    0 -0.31533084439E+02 -0.40087068848E+02 -0.21920850948E+03  0.25495158813E+03  0.11977743176E+03 0.  0.
          5    1    3    3  502    0  0.27467480987E+02  0.25525845793E+02 -0.97646562867E+02  0.10468216159E+03  0.41800000000E+01 0. -1.
         -5    1    3    3    0  502 -0.59000565426E+02 -0.65612914642E+02 -0.12156194661E+03  0.15026942654E+03  0.41800000000E+01 0.  1.
        -11    1    1    2    0    0 -0.23959897196E+02 -0.10910997287E+02 -0.38498738574E+02  0.46639890729E+02  0.00000000000E+00 0.  1.
         11    1    1    2    0    0  0.55492981635E+02  0.50998066135E+02 -0.21221265741E+03  0.22519876936E+03  0.00000000000E+00 0. -1.
</event>
<event>
 7    1  0.5109948E-006  0.1102981E+03  0.7561462E-02  0.1260019E+00
         -1   -1    0    0    0  501 -0.00000000000E+00  0.00000000000E+00  0.20401706813E+03  0.20401706813E+03  0.00000000000E+00 0.  1.
          1   -1    0    0  501    0  0.00000000000E+00 -0.00000000000E+00 -0.71687482571E+02  0.71687482571E+02  0.00000000000E+00 0. -1.
         23    2    1    2    0    0  0.38851768971E+02  0.27022832738E+02  0.10374264390E+03  0.16926369625E+03  0.12509184331E+03 0.  0.
          5    1    3    3  502    0  0.83672455463E+02  0.22258977512E+02  0.54579692453E+02  0.10243513612E+03  0.41800000000E+01 0. -1.
         -5    1    3    3    0  502 -0.44820686492E+02  0.47638552255E+01  0.49162951452E+02  0.66828560135E+02  0.41800000000E+01 0. -1.
        -11    1    1    2    0    0 -0.32894844492E+01 -0.47497326734E+02  0.41773435266E+02  0.63339061003E+02  0.00000000000E+00 0.  1.
         11    1    1    2    0    0 -0.35562284522E+02  0.20474493996E+02 -0.13186493609E+02  0.43101793449E+02  0.00000000000E+00 0. -1.
</event>
<event>
 7    1  0.5109948E-006  0.1068020E+03  0.7561462E-02  0.1266609E+00
          4   -1    0    0  501    0  0.00000000000E+00  0.00000000000E+00  0.29007859180E+03  0.29007859180E+03  0.00000000000E+00 0.  1.
         -4   -1    0    0    0  501 -0.00000000000E+00 -0.00000000000E+00 -0.84974303279E+02  0.84974303279E+02  0.00000000000E+00 0. -1.
         23    2    1    2    0    0 -0.65990597352E+02  0.72525345803E+01  0.54031754084E+00  0.14161543681E+03  0.12508909546E+03 0.  0.
          5    1    3    3  502    0 -0.72510646421E+02 -0.31478964194E+02  0.37436298610E+02  0.87565220749E+02  0.41800000000E+01 0. -1.
         -5    1    3    3    0  502  0.65200490690E+01  0.38731498774E+02 -0.36895981069E+02  0.54050216061E+02  0.41800000000E+01 0. -1.
        -11    1    1    2    0    0  0.63853191323E+02  0.20537245423E+02  0.19101015426E+03  0.20244477647E+03  0.00000000000E+00 0. -1.
         11    1    1    2    0    0  0.21374060293E+01 -0.27789780004E+02  0.13553816721E+02  0.30992681796E+02  0.00000000000E+00 0.  1.
</event>
<event>
 7    1  0.5109948E-006  0.1343361E+03  0.7561462E-02  0.1221160E+00
         -1   -1    0    0    0  501 -0.00000000000E+00  0.00000000000E+00  0.65450039170E+02  0.65450039170E+02  0.00000000000E+00 0.  1.
          1   -1    0    0  501    0  0.00000000000E+00 -0.00000000000E+00 -0.55420444690E+03  0.55420444690E+03  0.00000000000E+00 0. -1.
         23    2    1    2    0    0 -0.64003683915E+01 -0.10506627487E+03 -0.68747956666E+02  0.17734625542E+03  0.12508207679E+03 0.  0.
          5    1    3    3  502    0 -0.45904460118E+02 -0.99642191824E+02 -0.79838097785E+02  0.13574748656E+03  0.41800000000E+01 0. -1.
         -5    1    3    3    0  502  0.39504091727E+02 -0.54240830463E+01  0.11090141119E+02  0.41598768853E+02  0.41800000000E+01 0. -1.
        -11    1    1    2    0    0 -0.23409211975E+02  0.30210757849E+02 -0.46406233888E+02  0.60118380208E+02  0.00000000000E+00 0.  1.
         11    1    1    2    0    0  0.29809580367E+02  0.74855517022E+02 -0.37360021717E+03  0.38218985044E+03  0.00000000000E+00 0. -1.
</event>
<event>
 7    1  0.5109948E-006  0.1500626E+03  0.7561462E-02  0.1200396E+00
         -1   -1    0    0    0  501 -0.00000000000E+00  0.00000000000E+00  0.23337591682E+03  0.23337591682E+03  0.00000000000E+00 0.  1.
          1   -1    0    0  501    0  0.00000000000E+00 -0.00000000000E+00 -0.10187451073E+03  0.10187451073E+03  0.00000000000E+00 0. -1.
         23    2    1    2    0    0 -0.15648186569E+02  0.10388960670E+03  0.99923763805E+02  0.19149420293E+03  0.12508938829E+03 0.  0.
          5    1    3    3  502    0 -0.64881506052E+02  0.26627961588E+02  0.55805823601E+02  0.89724135625E+02  0.41800000000E+01 0.  1.
         -5    1    3    3    0  502  0.49233319484E+02  0.77261645108E+02  0.44117940204E+02  0.10177006731E+03  0.41800000000E+01 0.  1.
        -11    1    1    2    0    0 -0.25496793218E+02  0.96916881643E+00  0.15808483779E+02  0.30015561164E+02  0.00000000000E+00 0.  1.
         11    1    1    2    0    0  0.41144979787E+02 -0.10485877551E+03  0.15769158500E+02  0.11374066346E+03  0.00000000000E+00 0. -1.
</event>
<event>
 7    1  0.5109948E-006  0.1175357E+03  0.7561462E-02  0.1247219E+00
         -1   -1    0    0    0  501 -0.00000000000E+00  0.00000000000E+00  0.32417726337E+02  0.32417726337E+02  0.00000000000E+00 0.  1.
          1   -1    0    0  501    0  0.00000000000E+00 -0.00000000000E+00 -0.68919303102E+03  0.68919303102E+03  0.00000000000E+00 0. -1.
         23    2    1    2    0    0  0.93235727676E+02 -0.25265900641E+02 -0.27522126945E+03  0.31736209363E+03  0.12506272292E+03 0.  0.
          5    1    3    3  502    0  0.92904526918E+02 -0.29037124459E+02 -0.91826021448E+02  0.13388015661E+03  0.41800000000E+01 0. -1.
         -5    1    3    3    0  502  0.33120075809E+00  0.37712238183E+01 -0.18339524800E+03  0.18348193702E+03  0.41800000000E+01 0. -1.
        -11    1    1    2    0    0  0.14863016901E+02  0.18450106480E+02 -0.94931230861E+02  0.97843008403E+02  0.00000000000E+00 0.  1.
         11    1    1    2    0    0 -0.10809874458E+03  0.68157941611E+01 -0.28662280437E+03  0.30640565532E+03  0.00000000000E+00 0. -1.
</event>
<event>
 7    1  0.5109948E-006  0.1482178E+03  0.7561462E-02  0.1202680E+00
         -2   -1    0    0    0  501 -0.00000000000E+00  0.00000000000E+00  0.21009690071E+02  0.21009690071E+02  0.00000000000E+00 0.  1.
          2   -1    0    0  501    0  0.00000000000E+00 -0.00000000000E+00 -0.12589493733E+04  0.12589493733E+04  0.00000000000E+00 0. -1.
         23    2    1    2    0    0  0.11524956349E+03 -0.39549991250E+02 -0.83885030581E+03  0.85683393461E+03  0.12509153548E+03 0.  0.
          5    1    3    3  502    0  0.11128865040E+03 -0.65945392349E+02 -0.48560750527E+03  0.50255952887E+03  0.41800000000E+01 0. -1.
         -5    1    3    3    0  502  0.39609130897E+01  0.26395401100E+02 -0.35324280054E+03  0.35427440575E+03  0.41800000000E+01 0. -1.
        -11    1    1    2    0    0 -0.71495693739E+02 -0.11871775150E+02 -0.18724593147E+03  0.20078249954E+03  0.00000000000E+00 0. -1.
         11    1    1    2    0    0 -0.43753869749E+02  0.51421766400E+02 -0.21184344591E+03  0.22234262918E+03  0.00000000000E+00 0.  1.
</event>
<event>
 7    1  0.5109948E-006  0.1033614E+03  0.7561462E-02  0.1273382E+00
         -1   -1    0    0    0  501 -0.00000000000E+00  0.00000000000E+00  0.60495765971E+02  0.60495765971E+02  0.00000000000E+00 0.  1.
          1   -1    0    0  501    0  0.00000000000E+00 -0.00000000000E+00 -0.27552442152E+03  0.27552442152E+03  0.00000000000E+00 0. -1.
         23    2    1    2    0    0  0.99173734797E+00 -0.64879095530E+02 -0.91004767563E+02  0.16775042197E+03  0.12509218910E+03 0.  0.
          5    1    3    3  502    0  0.10005615924E+01 -0.92923422127E+02 -0.25626026846E+02  0.96487974148E+02  0.41800000000E+01 0.  1.
         -5    1    3    3    0  502 -0.88242444287E-02  0.28044326597E+02 -0.65378740717E+02  0.71262447824E+02  0.41800000000E+01 0.  1.
        -11    1    1    2    0    0 -0.26303605910E+02  0.48568991962E+02 -0.18062058882E+02  0.58112517026E+02  0.00000000000E+00 0.  1.
         11    1    1    2    0    0  0.25311868562E+02  0.16310103567E+02 -0.10596182910E+03  0.11015724849E+03  0.00000000000E+00 0. -1.
</event>
<event>
 7    1  0.5109948E-006  0.1263873E+03  0.7561462E-02  0.1232917E+00
         -3   -1    0    0    0  501 -0.00000000000E+00  0.00000000000E+00  0.16180083407E+04  0.16180083407E+04  0.00000000000E+00 0.  1.
          3   -1    0    0  501    0  0.00000000000E+00 -0.00000000000E+00 -0.17044662917E+02  0.17044662917E+02  0.00000000000E+00 0. -1.
         23    2    1    2    0    0  0.10852581323E+03  0.52322589928E+01  0.11424030628E+04  0.11543558778E+04  0.12508999159E+03 0.  0.
          5    1    3    3  502    0  0.94145008062E+01 -0.30216326869E+00  0.31459167511E+01  0.10774661028E+02  0.41800000000E+01 0.  1.
         -5    1    3    3    0  502  0.99111312423E+02  0.55344222615E+01  0.11392571461E+04  0.11435812168E+04  0.41800000000E+01 0.  1.
        -11    1    1    2    0    0 -0.11235350954E+03  0.22950976595E+02  0.34185694631E+03  0.36057763404E+03  0.00000000000E+00 0.  1.
         11    1    1    2    0    0  0.38276963112E+01 -0.28183235588E+02  0.11670366871E+03  0.12011949183E+03  0.00000000000E+00 0. -1.
</event>
<event>
 7    1  0.5109948E-006  0.9988919E+02  0.7561462E-02  0.1280529E+00
          1   -1    0    0  501    0  0.00000000000E+00  0.00000000000E+00  0.30348336959E+03  0.30348336959E+03  0.00000000000E+00 0. -1.
         -1   -1    0    0    0  501 -0.00000000000E+00 -0.00000000000E+00 -0.52924387047E+02  0.52924387047E+02  0.00000000000E+00 0.  1.
         23    2    1    2    0    0  0.44213926920E+02  0.22097138034E+02  0.72878157783E+02  0.15003766344E+03  0.12147806274E+03 0.  0.
          5    1    3    3  502    0 -0.12588422371E+02 -0.24248973853E+02  0.71432665281E+02  0.76593597512E+02  0.41800000000E+01 0. -1.
         -5    1    3    3    0  502  0.56802349291E+02  0.46346111887E+02  0.14454925015E+01  0.73444065932E+02  0.41800000000E+01 0.  1.
        -11    1    1    2    0    0  0.21624595737E+02  0.11823527033E+02  0.18545286452E+02  0.30843906722E+02  0.00000000000E+00 0.  1.
         11    1    1    2    0    0 -0.65838522656E+02 -0.33920665067E+02  0.15913553830E+03  0.17552618647E+03  0.00000000000E+00 0. -1.
</event>
<event>
 7    1  0.5109948E-006  0.1238224E+03  0.7561462E-02  0.1236921E+00
         -2   -1    0    0    0  501 -0.00000000000E+00  0.00000000000E+00  0.10957568990E+03  0.10957568990E+03  0.00000000000E+00 0.  1.
          2   -1    0    0  501    0  0.00000000000E+00 -0.00000000000E+00 -0.36384852923E+03  0.36384852923E+03  0.00000000000E+00 0. -1.
         23    2    1    2    0    0 -0.36510634688E+02  0.61858655145E+02  0.45610794388E+02  0.15128685939E+03  0.12509136501E+03 0.  0.
          5    1    3    3  502    0  0.27925388286E+02 -0.13581866809E+02  0.41368127255E+02  0.51894978269E+02  0.41800000000E+01 0.  1.
         -5    1    3    3    0  502 -0.64436022974E+02  0.75440521954E+02  0.42426671332E+01  0.99391881126E+02  0.41800000000E+01 0.  1.
        -11    1    1    2    0    0 -0.29017679226E+02 -0.34369171429E+01 -0.61123410532E+02  0.67748870265E+02  0.00000000000E+00 0. -1.
         11    1    1    2    0    0  0.65528313914E+02 -0.58421738002E+02 -0.23876022319E+03  0.25438848946E+03  0.00000000000E+00 0.  1.
</event>
<event>
 6    1  0.5109948E-006  0.9566852E+02  0.7561462E-02  0.1289677E+00
         -4   -1    0    0    0  501 -0.00000000000E+00  0.00000000000E+00  0.11301933242E+04  0.11301933242E+04  0.00000000000E+00 0.  1.
          4   -1    0    0  501    0  0.00000000000E+00 -0.00000000000E+00 -0.29270136610E+02  0.29270136610E+02  0.00000000000E+00 0. -1.
          5    1    1    2  502    0 -0.26222483565E+02  0.10836988206E+02  0.46381331475E+02  0.54532185607E+02  0.41800000000E+01 0. -1.
         -5    1    1    2    0  502  0.13857211272E+02 -0.71654781879E+02  0.94870127031E+03  0.95151353262E+03  0.41800000000E+01 0.  1.
        -11    1    1    2    0    0 -0.17823706467E+02 -0.38079873082E+01  0.72362999496E+02  0.74622978871E+02  0.00000000000E+00 0.  1.
         11    1    1    2    0    0  0.30188978760E+02  0.64625780981E+02  0.33477586338E+02  0.78794763741E+02  0.00000000000E+00 0. -1.
</event>
<event>
 7    1  0.5109948E-006  0.1440618E+03  0.7561462E-02  0.1207966E+00
         -1   -1    0    0    0  501 -0.00000000000E+00  0.00000000000E+00  0.55888089923E+02  0.55888089923E+02  0.00000000000E+00 0. -1.
          1   -1    0    0  501    0  0.00000000000E+00 -0.00000000000E+00 -0.45663966527E+03  0.45663966527E+03  0.00000000000E+00 0.  1.
         23    2    1    2    0    0  0.10976958561E+03 -0.35744187068E+02 -0.24206421873E+03  0.29592191379E+03  0.12509070402E+03 0.  0.
          5    1    3    3  502    0  0.23881678222E+02 -0.58775039431E+02 -0.16963585814E+03  0.18115914711E+03  0.41800000000E+01 0. -1.
         -5    1    3    3    0  502  0.85887907393E+02  0.23030852362E+02 -0.72428360599E+02  0.11476276668E+03  0.41800000000E+01 0. -1.
        -11    1    1    2    0    0 -0.69503154023E+02 -0.14638064814E+02 -0.12517508390E+03  0.14392276745E+03  0.00000000000E+00 0.  1.
         11    1    1    2    0    0 -0.40266431592E+02  0.50382251882E+02 -0.33512272710E+02  0.72683073958E+02  0.00000000000E+00 0. -1.
</event>
<event>
 7    1  0.5109948E-006  0.1033492E+03  0.7561462E-02  0.1273407E+00
          1   -1    0    0  501    0  0.00000000000E+00  0.00000000000E+00  0.20553426410E+03  0.20553426410E+03  0.00000000000E+00 0. -1.
         -1   -1    0    0    0  501 -0.00000000000E+00 -0.00000000000E+00 -0.74320777460E+02  0.74320777460E+02  0.00000000000E+00 0.  1.
         23    2    1    2    0    0 -0.22006855240E+02  0.18341193873E+02  0.15586275002E+02  0.12927588094E+03  0.12509444574E+03 0.  0.
          5    1    3    3  502    0 -0.18108508906E+02 -0.53303788332E+02  0.60753933072E+01  0.56776709566E+02  0.41800000000E+01 0.  1.
         -5    1    3    3    0  502 -0.38983463342E+01  0.71644982204E+02  0.95108816951E+01  0.72499171373E+02  0.41800000000E+01 0.  1.
        -11    1    1    2    0    0 -0.22823285622E+02 -0.24081820252E+02  0.84142182093E+01  0.34229161562E+02  0.00000000000E+00 0.  1.
         11    1    1    2    0    0  0.44830140861E+02  0.57406263790E+01  0.10721299343E+03  0.11634999906E+03  0.00000000000E+00 0. -1.
</event>
<event>
 7    1  0.5109948E-006  0.1335297E+03  0.7561462E-02  0.1222310E+00
         -3   -1    0    0    0  501 -0.00000000000E+00  0.00000000000E+00  0.25873938902E+03  0.25873938902E+03  0.00000000000E+00 0.  1.
          3   -1    0    0  501    0  0.00000000000E+00 -0.00000000000E+00 -0.74688412274E+02  0.74688412274E+02  0.00000000000E+00 0. -1.
         23    2    1    2    0    0 -0.58019859040E+02 -0.62753416909E+02  0.92265041997E+02  0.17738404406E+03  0.12509182921E+03 0.  0.
          5    1    3    3  502    0 -0.57504632133E+02  0.19328661958E+02  0.10990249213E+02  0.61795128186E+02  0.41800000000E+01 0. -1.
         -5    1    3    3    0  502 -0.51522690698E+00 -0.82082078867E+02  0.81274792784E+02  0.11558891587E+03  0.41800000000E+01 0. -1.
        -11    1    1    2    0    0 -0.60976466953E+00  0.65368685611E+02  0.62552942990E+02  0.90478215876E+02  0.00000000000E+00 0.  1.
         11    1    1    2    0    0  0.58629623709E+02 -0.26152687019E+01  0.29232991756E+02  0.65565541359E+02  0.00000000000E+00 0. -1.
</event>
<event>
 7    1  0.5109948E-006  0.9954149E+02  0.7561462E-02  0.1281263E+00
          2   -1    0    0  501    0  0.00000000000E+00  0.00000000000E+00  0.53556616426E+03  0.53556616426E+03  0.00000000000E+00 0. -1.
         -2   -1    0    0    0  501 -0.00000000000E+00 -0.00000000000E+00 -0.29778088473E+02  0.29778088473E+02  0.00000000000E+00 0.  1.
         23    2    1    2    0    0 -0.56284647460E+02 -0.17587472883E+02  0.28032627251E+03  0.31258312851E+03  0.12509241554E+03 0.  0.
          5    1    3    3  502    0 -0.96055436411E+02 -0.15911566134E+02  0.18260679251E+03  0.20698439040E+03  0.41800000000E+01 0.  1.
         -5    1    3    3    0  502  0.39770788951E+02 -0.16759067494E+01  0.97719480003E+02  0.10559873810E+03  0.41800000000E+01 0.  1.
        -11    1    1    2    0    0  0.46854417921E+02  0.69147817107E+01  0.23221742550E+03  0.23699806622E+03  0.00000000000E+00 0. -1.
         11    1    1    2    0    0  0.94302295384E+01  0.10672691173E+02 -0.67556222256E+01  0.15763058005E+02  0.00000000000E+00 0.  1.
</event>
<event>
 7    1  0.5109948E-006  0.1003350E+03  0.7561462E-02  0.1279593E+00
          4   -1    0    0  501    0  0.00000000000E+00  0.00000000000E+00  0.26802815111E+03  0.26802815111E+03  0.00000000000E+00 0. -1.
         -4   -1    0    0    0  501 -0.00000000000E+00 -0.00000000000E+00 -0.68586886112E+02  0.68586886112E+02  0.00000000000E+00 0.  1.
         23    2    1    2    0    0  0.33447917539E+01  0.66963756640E+02  0.61491569661E+02  0.15467821838E+03  0.12509518683E+03 0.  0.
          5    1    3    3  502    0 -0.42271418016E+02  0.96738621439E+01 -0.17439282609E+02  0.46926084087E+02  0.41800000000E+01 0.  1.
         -5    1    3    3    0  502  0.45616209770E+02  0.57289894496E+02  0.78930852270E+02  0.10775213430E+03  0.41800000000E+01 0.  1.
        -11    1    1    2    0    0  0.20787674612E+02 -0.12686811231E+02 -0.69574376646E+01  0.25327623928E+02  0.00000000000E+00 0.  1.
         11    1    1    2    0    0 -0.24132466366E+02 -0.54276945409E+02  0.14490713300E+03  0.15660919491E+03  0.00000000000E+00 0. -1.
</event>
<event>
 7    1  0.5109948E-006  0.1056012E+03  0.7561462E-02  0.1268940E+00
         -2   -1    0    0    0  501 -0.00000000000E+00  0.00000000000E+00  0.15518319033E+02  0.15518319033E+02  0.00000000000E+00 0.  1.
          2   -1    0    0  501    0  0.00000000000E+00 -0.00000000000E+00 -0.77018391845E+03  0.77018391845E+03  0.00000000000E+00 0. -1.
         23    2    1    2    0    0 -0.50026930656E+01 -0.15928254791E+02 -0.37129436686E+03  0.39146031075E+03  0.12289398598E+03 0.  0.
          5    1    3    3  502    0  0.29330437888E+02  0.44702405831E+02 -0.14261437571E+03  0.15236440606E+03  0.41800000000E+01 0. -1.
         -5    1    3    3    0  502 -0.34333130953E+02 -0.60630660622E+02 -0.22867999115E+03  0.23909590469E+03  0.41800000000E+01 0.  1.
        -11    1    1    2    0    0 -0.83610719581E+01  0.50249472237E+02 -0.27776243744E+03  0.28239491609E+03  0.00000000000E+00 0.  1.
         11    1    1    2    0    0  0.13363765024E+02 -0.34321217446E+02 -0.10560879511E+03  0.11184701063E+03  0.00000000000E+00 0. -1.
</event>
<event>
 6    1  0.5109948E-006  0.1279298E+03  0.7561462E-02  0.1230560E+00
         -2   -1    0    0    0  501 -0.00000000000E+00  0.00000000000E+00  0.46325815208E+03  0.46325815208E+03  0.00000000000E+00 0.  1.
          2   -1    0    0  501    0  0.00000000000E+00 -0.00000000000E+00 -0.84462515190E+02  0.84462515190E+02  0.00000000000E+00 0. -1.
          5    1    1    2  502    0 -0.10123265923E+02 -0.67410516183E+01 -0.24689060116E+02  0.27837822818E+02  0.41800000000E+01 0. -1.
         -5    1    1    2    0  502  0.89015425379E+02 -0.15014539852E+02  0.34304379133E+03  0.35474737142E+03  0.41800000000E+01 0.  1.
        -11    1    1    2    0    0 -0.16196863807E+02  0.71051954259E+02  0.38491095929E+02  0.82415308450E+02  0.00000000000E+00 0.  1.
         11    1    1    2    0    0 -0.62695295649E+02 -0.49296362789E+02  0.21949809756E+02  0.82720164585E+02  0.00000000000E+00 0. -1.
</event>
<event>
 7    1  0.5109948E-006  0.1204759E+03  0.7561462E-02  0.1242314E+00
          2   -1    0    0  501    0  0.00000000000E+00  0.00000000000E+00  0.47250784534E+03  0.47250784534E+03  0.00000000000E+00 0. -1.
         -2   -1    0    0    0  501 -0.00000000000E+00 -0.00000000000E+00 -0.34375725863E+02  0.34375725863E+02  0.00000000000E+00 0.  1.
         23    2    1    2    0    0  0.56474184884E+02  0.27630269852E+02  0.19826584131E+03  0.24271250633E+03  0.12508897445E+03 0.  0.
          5    1    3    3  502    0  0.78198977765E+02 -0.19208099163E+02  0.15696057351E+03  0.17645998196E+03  0.41800000000E+01 0.  1.
         -5    1    3    3    0  502 -0.21724792881E+02  0.46838369015E+02  0.41305267804E+02  0.66252524375E+02  0.41800000000E+01 0.  1.
        -11    1    1    2    0    0 -0.60846734251E+01 -0.52134155676E+02  0.14213683772E+03  0.15151856017E+03  0.00000000000E+00 0.  1.
         11    1    1    2    0    0 -0.50389511459E+02  0.24503885824E+02  0.97729440445E+02  0.11265250470E+03  0.00000000000E+00 0. -1.
</event>
<event>
 7    1  0.5109948E-006  0.1029974E+03  0.7561462E-02  0.1274116E+00
          1   -1    0    0  501    0  0.00000000000E+00  0.00000000000E+00  0.42883062498E+03  0.42883062498E+03  0.00000000000E+00 0. -1.
         -1   -1    0    0    0  501 -0.00000000000E+00 -0.00000000000E+00 -0.67834079450E+02  0.67834079450E+02  0.00000000000E+00 0.  1.
         23    2    1    2    0    0  0.15054991482E+02  0.61218502323E+02  0.24751314172E+02  0.14224061874E+03  0.12508160645E+03 0.  0.
          5    1    3    3  502    0  0.40511192185E+02  0.57449659580E+02  0.63975991805E+02  0.95142104273E+02  0.41800000000E+01 0.  1.
         -5    1    3    3    0  502 -0.25456200702E+02  0.37688427435E+01 -0.39224677633E+02  0.47098514470E+02  0.41800000000E+01 0.  1.
        -11    1    1    2    0    0 -0.40271487744E+02 -0.71667631801E+02  0.21587900382E+03  0.23100170229E+03  0.00000000000E+00 0.  1.
         11    1    1    2    0    0  0.25216496262E+02  0.10449129477E+02  0.12036622754E+03  0.12342238339E+03  0.00000000000E+00 0. -1.
</event>
<event>
 7    1  0.5109948E-006  0.1163073E+03  0.7561462E-02  0.1249316E+00
          1   -1    0    0  501    0  0.00000000000E+00  0.00000000000E+00  0.53717575531E+03  0.53717575531E+03  0.00000000000E+00 0. -1.
         -1   -1    0    0    0  501 -0.00000000000E+00 -0.00000000000E+00 -0.79314806868E+02  0.79314806868E+02  0.00000000000E+00 0.  1.
         23    2    1    2    0    0 -0.94506684356E+02 -0.34099528757E+02  0.24625944499E+02  0.16231973114E+03  0.12508783604E+03 0.  0.
          5    1    3    3  502    0 -0.41584183203E+02  0.27727591425E+02  0.55837440652E+02  0.75055684644E+02  0.41800000000E+01 0.  1.
         -5    1    3    3    0  502 -0.52922501153E+02 -0.61827120182E+02 -0.31211496152E+02  0.87264046493E+02  0.41800000000E+01 0.  1.
        -11    1    1    2    0    0  0.79132596036E+02  0.32369154899E+02  0.42993252694E+03  0.43835112372E+03  0.00000000000E+00 0. -1.
         11    1    1    2    0    0  0.15374088320E+02  0.17303738583E+01  0.33024770021E+01  0.15819707321E+02  0.00000000000E+00 0.  1.
</event>
<event>
 7    1  0.5109948E-006  0.1661020E+03  0.7561462E-02  0.1181975E+00
          2   -1    0    0  501    0  0.00000000000E+00  0.00000000000E+00  0.13516997443E+04  0.13516997443E+04  0.00000000000E+00 0. -1.
         -2   -1    0    0    0  501 -0.00000000000E+00 -0.00000000000E+00 -0.29176538740E+02  0.29176538740E+02  0.00000000000E+00 0.  1.
         23    2    1    2    0    0 -0.14747043550E+03 -0.50061018726E+02  0.49016251240E+03  0.52930211241E+03  0.12509117752E+03 0.  0.
          5    1    3    3  502    0 -0.92002802043E+02 -0.36294272488E+02  0.12392397052E+03  0.15860773206E+03  0.41800000000E+01 0. -1.
         -5    1    3    3    0  502 -0.55467633457E+02 -0.13766746238E+02  0.36623854188E+03  0.37069438035E+03  0.41800000000E+01 0. -1.
        -11    1    1    2    0    0  0.48844542875E+02  0.59329684381E+02  0.45412881340E+03  0.46058525810E+03  0.00000000000E+00 0.  1.
         11    1    1    2    0    0  0.98625892625E+02 -0.92686656549E+01  0.37823187977E+03  0.39098891255E+03  0.00000000000E+00 0. -1.
</event>
<event>
 7    1  0.5109948E-006  0.2113250E+03  0.7561462E-02  0.1140521E+00
         -2   -1    0    0    0  501 -0.00000000000E+00  0.00000000000E+00  0.51012572593E+03  0.51012572593E+03  0.00000000000E+00 0. -1.
          2   -1    0    0  501    0  0.00000000000E+00 -0.00000000000E+00 -0.12274475189E+03  0.12274475189E+03  0.00000000000E+00 0.  1.
         23    2    1    2    0    0 -0.19064015289E+03 -0.52664210592E+02  0.33547958149E+03  0.40903859530E+03  0.12509530718E+03 0.  0.
          5    1    3    3  502    0 -0.10550862881E+02  0.23946622122E+02  0.82974380042E+01  0.27768350618E+02  0.41800000000E+01 0. -1.
         -5    1    3    3    0  502 -0.18008929001E+03 -0.76610832714E+02  0.32718214348E+03  0.38127024468E+03  0.41800000000E+01 0. -1.
        -11    1    1    2    0    0  0.86437144892E+02  0.40606324015E+02 -0.18798139332E+02  0.97332541370E+02  0.00000000000E+00 0.  1.
         11    1    1    2    0    0  0.10420300800E+03  0.12057886577E+02  0.70699531882E+02  0.12649934116E+03  0.00000000000E+00 0. -1.
</event>
<event>
 7    1  0.5109948E-006  0.1160904E+03  0.7561462E-02  0.1249690E+00
         -1   -1    0    0    0  501 -0.00000000000E+00  0.00000000000E+00  0.25889383588E+03  0.25889383588E+03  0.00000000000E+00 0.  1.
          1   -1    0    0  501    0  0.00000000000E+00 -0.00000000000E+00 -0.55055811331E+02  0.55055811331E+02  0.00000000000E+00 0. -1.
         23    2    1    2    0    0  0.35020557835E+02 -0.40069238243E+02  0.11173702723E+03  0.17596841444E+03  0.12509091215E+03 0.  0.
          5    1    3    3  502    0  0.13452018249E+02  0.42759738219E+02  0.62851377215E+02  0.77311836256E+02  0.41800000000E+01 0. -1.
         -5    1    3    3    0  502  0.21568539586E+02 -0.82828976462E+02  0.48885650012E+02  0.98656578183E+02  0.41800000000E+01 0. -1.
        -11    1    1    2    0    0 -0.48759517306E+02 -0.98048485961E+01  0.56004524104E+02  0.74900816444E+02  0.00000000000E+00 0. -1.
         11    1    1    2    0    0  0.13738959470E+02  0.49874086839E+02  0.36096473221E+02  0.63080416330E+02  0.00000000000E+00 0.  1.
</event>
<event>
 7    1  0.5109948E-006  0.9660844E+02  0.7561462E-02  0.1287594E+00
         -3   -1    0    0    0  501 -0.00000000000E+00  0.00000000000E+00  0.30552569191E+03  0.30552569191E+03  0.00000000000E+00 0.  1.
          3   -1    0    0  501    0  0.00000000000E+00 -0.00000000000E+00 -0.61510953881E+02  0.61510953881E+02  0.00000000000E+00 0. -1.
         23    2    1    2    0    0  0.16856177839E+02  0.80516292206E+02  0.16164428580E+03  0.22033320090E+03  0.12510331829E+03 0.  0.
          5    1    3    3  502    0  0.27296569611E+02 -0.85479868400E+00  0.12902383514E+03  0.13194868634E+03  0.41800000000E+01 0. -1.
         -5    1    3    3    0  502 -0.10440391772E+02  0.81371090890E+02  0.32620450664E+02  0.88384514563E+02  0.41800000000E+01 0. -1.
        -11    1    1    2    0    0 -0.10924749184E+02 -0.21362377086E+02  0.83869364852E+02  0.87234005183E+02  0.00000000000E+00 0.  1.
         11    1    1    2    0    0 -0.59314286547E+01 -0.59153915119E+02 -0.14989126247E+01  0.59469439706E+02  0.00000000000E+00 0. -1.
</event>
<event>
 6    1  0.5109948E-006  0.1477123E+03  0.7561462E-02  0.1203313E+00
          2   -1    0    0  501    0  0.00000000000E+00  0.00000000000E+00  0.10228539366E+03  0.10228539366E+03  0.00000000000E+00 0. -1.
         -2   -1    0    0    0  501 -0.00000000000E+00 -0.00000000000E+00 -0.44323328968E+03  0.44323328968E+03  0.00000000000E+00 0.  1.
          5    1    1    2  502    0 -0.62808878956E+02  0.12836547853E+01  0.14243521833E+02  0.64551943112E+02  0.41800000000E+01 0. -1.
         -5    1    1    2    0  502  0.69925843584E+02  0.62794638388E+02 -0.32629581384E+03  0.33958683829E+03  0.41800000000E+01 0.  1.
        -11    1    1    2    0    0  0.55207915952E+02 -0.10497179340E+02 -0.11001344927E+02  0.57263726285E+02  0.00000000000E+00 0.  1.
         11    1    1    2    0    0 -0.62324880579E+02 -0.53581113834E+02 -0.17894259093E+02  0.84116175658E+02  0.00000000000E+00 0. -1.
</event>
<event>
 7    1  0.5109948E-006  0.9504497E+02  0.7561462E-02  0.1291075E+00
         -1   -1    0    0    0  501 -0.00000000000E+00  0.00000000000E+00  0.37746918359E+03  0.37746918359E+03  0.00000000000E+00 0.  1.
          1   -1    0    0  501    0  0.00000000000E+00 -0.00000000000E+00 -0.10536376862E+03  0.10536376862E+03  0.00000000000E+00 0. -1.
         23    2    1    2    0    0 -0.12183013089E+02  0.55875111122E+02  0.33554445629E+03  0.35821331337E+03  0.11160753504E+03 0.  0.
          5    1    3    3  502    0  0.19973211277E+02 -0.28028838339E+02  0.76328656560E+02  0.83833651714E+02  0.41800000000E+01 0. -1.
         -5    1    3    3    0  502 -0.32156224366E+02  0.83903949461E+02  0.25921579973E+03  0.27437966166E+03  0.41800000000E+01 0.  1.
        -11    1    1    2    0    0 -0.18604569906E+01 -0.50337646599E+02 -0.84698775622E+02  0.98545535450E+02  0.00000000000E+00 0. -1.
         11    1    1    2    0    0  0.14043470079E+02 -0.55374645231E+01  0.21259734303E+02  0.26074103395E+02  0.00000000000E+00 0.  1.
</event>
<event>
 7    1  0.5109948E-006  0.7976371E+02  0.7561462E-02  0.1329723E+00
          1   -1    0    0  501    0  0.00000000000E+00  0.00000000000E+00  0.14221704754E+03  0.14221704754E+03  0.00000000000E+00 0. -1.
         -1   -1    0    0    0  501 -0.00000000000E+00 -0.00000000000E+00 -0.90437846773E+02  0.90437846773E+02  0.00000000000E+00 0.  1.
         23    2    1    2    0    0  0.17925237432E+02 -0.15518737761E+02  0.35990831094E+01  0.12733505058E+03  0.12505645264E+03 0.  0.
          5    1    3    3  502    0 -0.29550253292E+02 -0.21748519525E+02 -0.45517605302E+02  0.58613482780E+02  0.41800000000E+01 0. -1.
         -5    1    3    3    0  502  0.47475490724E+02  0.62297817642E+01  0.49116688411E+02  0.68721567799E+02  0.41800000000E+01 0. -1.
        -11    1    1    2    0    0 -0.32911861841E+01  0.43145791269E+02 -0.50734020832E+01  0.43567540893E+02  0.00000000000E+00 0.  1.
         11    1    1    2    0    0 -0.14634051247E+02 -0.27627053508E+02  0.53253519743E+02  0.61752302844E+02  0.00000000000E+00 0. -1.
</event>
<event>
 7    1  0.5109948E-006  0.9398524E+02  0.7561462E-02  0.1293478E+00
         -2   -1    0    0    0  501 -0.00000000000E+00  0.00000000000E+00  0.42299264564E+02  0.42299264564E+02  0.00000000000E+00 0.  1.
          2   -1    0    0  501    0  0.00000000000E+00 -0.00000000000E+00 -0.34426172901E+03  0.34426172901E+03  0.00000000000E+00 0. -1.
         23    2    1    2    0    0  0.36767558609E+02 -0.28849361702E+02 -0.13424710875E+03  0.18934977823E+03  0.12508762237E+03 0.  0.
          5    1    3    3  502    0  0.68839701696E+02 -0.60665976932E+01 -0.13279781275E+03  0.14976127539E+03  0.41800000000E+01 0.  1.
         -5    1    3    3    0  502 -0.32072143087E+02 -0.22782764009E+02 -0.14492960069E+01  0.39588502839E+02  0.41800000000E+01 0.  1.
        -11    1    1    2    0    0 -0.51525732005E+02  0.35920772087E+02 -0.16948642811E+03  0.18075080149E+03  0.00000000000E+00 0. -1.
         11    1    1    2    0    0  0.14758173395E+02 -0.70714103850E+01  0.17710724135E+01  0.16460413856E+02  0.00000000000E+00 0.  1.
</event>
<event>
 7    1  0.5109948E-006  0.1578723E+03  0.7561462E-02  0.1191120E+00
         -1   -1    0    0    0  501 -0.00000000000E+00  0.00000000000E+00  0.64046914118E+02  0.64046914118E+02  0.00000000000E+00 0.  1.
          1   -1    0    0  501    0  0.00000000000E+00 -0.00000000000E+00 -0.55632721519E+03  0.55632721519E+03  0.00000000000E+00 0. -1.
         23    2    1    2    0    0  0.83238845666E+02  0.96479549607E+02 -0.11499783035E+03  0.21238804818E+03  0.12508866097E+03 0.  0.
          5    1    3    3  502    0  0.84861503842E+02  0.11484243326E+03 -0.61285282113E+02  0.15544651014E+03  0.41800000000E+01 0. -1.
         -5    1    3    3    0  502 -0.16226581764E+01 -0.18362883653E+02 -0.53712548242E+02  0.56941538039E+02  0.41800000000E+01 0. -1.
        -11    1    1    2    0    0 -0.20610676663E+02  0.15428616266E+02 -0.84861415090E+02  0.88680899654E+02  0.00000000000E+00 0. -1.
         11    1    1    2    0    0 -0.62628169003E+02 -0.11190816587E+03 -0.29242105563E+03  0.31930518147E+03  0.00000000000E+00 0.  1.
</event>
<event>
 7    1  0.5109948E-006  0.1447610E+03  0.7561462E-02  0.1207062E+00
          2   -1    0    0  501    0  0.00000000000E+00  0.00000000000E+00  0.28426698718E+03  0.28426698718E+03  0.00000000000E+00 0. -1.
         -2   -1    0    0    0  501 -0.00000000000E+00 -0.00000000000E+00 -0.91393325837E+02  0.91393325837E+02  0.00000000000E+00 0.  1.
         23    2    1    2    0    0 -0.87486191457E+02  0.77230931307E+02  0.11855549881E+03  0.20813434625E+03  0.12508416904E+03 0.  0.
          5    1    3    3  502    0 -0.43741555177E+02  0.97324112703E+02  0.36390125065E+02  0.11281409559E+03  0.41800000000E+01 0.  1.
         -5    1    3    3    0  502 -0.43744636279E+02 -0.20093181395E+02  0.82165373742E+02  0.95320250650E+02  0.41800000000E+01 0.  1.
        -11    1    1    2    0    0  0.86061583773E+02 -0.36203641009E+02  0.13774962867E+02  0.94377165807E+02  0.00000000000E+00 0.  1.
         11    1    1    2    0    0  0.14246076839E+01 -0.41027290299E+02  0.60543199666E+02  0.73148800961E+02  0.00000000000E+00 0. -1.
</event>
<event>
 7    1  0.5109948E-006  0.1077446E+03  0.7561462E-02  0.1264804E+00
          4   -1    0    0  501    0  0.00000000000E+00  0.00000000000E+00  0.24492588111E+03  0.24492588111E+03  0.00000000000E+00 0.  1.
         -4   -1    0    0    0  501 -0.00000000000E+00 -0.00000000000E+00 -0.62952440540E+02  0.62952440540E+02  0.00000000000E+00 0. -1.
         23    2    1    2    0    0 -0.14419023116E+02  0.39873995890E+02  0.50002178369E+02  0.14122745275E+03  0.12508849585E+03 0.  0.
          5    1    3    3  502    0  0.51714269995E+02  0.18211347027E+02 -0.75499116518E+00  0.54991465641E+02  0.41800000000E+01 0.  1.
         -5    1    3    3    0  502 -0.66133293112E+02  0.21662648863E+02  0.50757169535E+02  0.86235987109E+02  0.41800000000E+01 0.  1.
        -11    1    1    2    0    0 -0.18680102656E+02  0.16820771193E+02  0.77085128976E+02  0.81080217612E+02  0.00000000000E+00 0.  1.
         11    1    1    2    0    0  0.33099125773E+02 -0.56694767082E+02  0.54886133225E+02  0.85570651288E+02  0.00000000000E+00 0. -1.
</event>
<event>
 7    1  0.5109948E-006  0.8040405E+02  0.7561462E-02  0.1327909E+00
          2   -1    0    0  501    0  0.00000000000E+00  0.00000000000E+00  0.22370503556E+03  0.22370503556E+03  0.00000000000E+00 0. -1.
         -2   -1    0    0    0  501 -0.00000000000E+00 -0.00000000000E+00 -0.65894938561E+02  0.65894938561E+02  0.00000000000E+00 0.  1.
         23    2    1    2    0    0  0.14461752946E+02  0.53273407548E+02  0.80137330936E+02  0.15851006596E+03  0.12512494137E+03 0.  0.
          5    1    3    3  502    0 -0.39444653384E+01  0.28448520976E+02 -0.31362489493E+02  0.42731198201E+02  0.41800000000E+01 0. -1.
         -5    1    3    3    0  502  0.18406218285E+02  0.24824886572E+02  0.11149982043E+03  0.11577886776E+03  0.41800000000E+01 0. -1.
        -11    1    1    2    0    0 -0.25735410860E+02 -0.73262002901E+02  0.40951450659E+02  0.87787548960E+02  0.00000000000E+00 0.  1.
         11    1    1    2    0    0  0.11273657913E+02  0.19988595354E+02  0.36721315399E+02  0.43302359192E+02  0.00000000000E+00 0. -1.
</event>
<event>
 7    1  0.5109948E-006  0.1702469E+03  0.7561462E-02  0.1177591E+00
          1   -1    0    0  501    0  0.00000000000E+00  0.00000000000E+00  0.11001217035E+04  0.11001217035E+04  0.00000000000E+00 0. -1.
         -1   -1    0    0    0  501 -0.00000000000E+00 -0.00000000000E+00 -0.33936839964E+02  0.33936839964E+02  0.00000000000E+00 0.  1.
         23    2    1    2    0    0 -0.15321156109E+03 -0.19252324426E+02  0.56644266080E+03  0.60029115083E+03  0.12509094026E+03 0.  0.
          5    1    3    3  502    0 -0.43218785940E+02 -0.15088773447E+02  0.35600702132E+02  0.58141353050E+02  0.41800000000E+01 0. -1.
         -5    1    3    3    0  502 -0.10999277515E+03 -0.41635509788E+01  0.53084195867E+03  0.54214979777E+03  0.41800000000E+01 0. -1.
        -11    1    1    2    0    0  0.10233243169E+03  0.60498382584E+02  0.27311752613E+03  0.29786769538E+03  0.00000000000E+00 0.  1.
         11    1    1    2    0    0  0.50879129403E+02 -0.41246058159E+02  0.22662467665E+03  0.23589969731E+03  0.00000000000E+00 0. -1.
</event>
<event>
 7    1  0.5109948E-006  0.1167615E+03  0.7561462E-02  0.1248537E+00
         -2   -1    0    0    0  501 -0.00000000000E+00  0.00000000000E+00  0.63945242746E+02  0.63945242746E+02  0.00000000000E+00 0.  1.
          2   -1    0    0  501    0  0.00000000000E+00 -0.00000000000E+00 -0.34380829729E+03  0.34380829729E+03  0.00000000000E+00 0. -1.
         23    2    1    2    0    0 -0.64026445367E+02  0.17375572285E+02 -0.52698298807E+02  0.15108470677E+03  0.12509269245E+03 0.  0.
          5    1    3    3  502    0 -0.33441189270E+01  0.49659625494E+02  0.17332015736E+02  0.52869014602E+02  0.41800000000E+01 0. -1.
         -5    1    3    3    0  502 -0.60682326440E+02 -0.32284053209E+02 -0.70030314543E+02  0.98215692172E+02  0.41800000000E+01 0. -1.
        -11    1    1    2    0    0  0.57946996819E+02  0.31163104073E+02 -0.16450962168E+03  0.17717903127E+03  0.00000000000E+00 0. -1.
         11    1    1    2    0    0  0.60794485478E+01 -0.48538676358E+02 -0.62655134056E+02  0.79489801992E+02  0.00000000000E+00 0.  1.
</event>
<event>
 7    1  0.5109948E-006  0.1549801E+03  0.7561462E-02  0.1194484E+00
         -2   -1    0    0    0  501 -0.00000000000E+00  0.00000000000E+00  0.35039072665E+03  0.35039072665E+03  0.00000000000E+00 0.  1.
          2   -1    0    0  501    0  0.00000000000E+00 -0.00000000000E+00 -0.87337020673E+02  0.87337020673E+02  0.00000000000E+00 0. -1.
         23    2    1    2    0    0  0.15486162229E+02  0.13478559519E+03  0.15853217758E+03  0.24328383721E+03  0.12509035226E+03 0.  0.
          5    1    3    3  502    0 -0.18733190138E+02 -0.35881648163E+01 -0.10469867702E+02  0.22156215137E+02  0.41800000000E+01 0.  1.
         -5    1    3    3    0  502  0.34219352367E+02  0.13837376001E+03  0.16900204528E+03  0.22112762207E+03  0.41800000000E+01 0.  1.
        -11    1    1    2    0    0  0.20813385705E+02 -0.75484559039E+02  0.96774675470E+02  0.12448475204E+03  0.00000000000E+00 0.  1.
         11    1    1    2    0    0 -0.36299547934E+02 -0.59301036151E+02  0.77468529328E+01  0.69959158079E+02  0.00000000000E+00 0. -1.
</event>
<event>
 7    1  0.5109948E-006  0.1095920E+03  0.7561462E-02  0.1261327E+00
         -1   -1    0    0    0  501 -0.00000000000E+00  0.00000000000E+00  0.17945932014E+02  0.17945932014E+02  0.00000000000E+00 0. -1.
          1   -1    0    0  501    0  0.00000000000E+00 -0.00000000000E+00 -0.73388998030E+03  0.73388998030E+03  0.00000000000E+00 0.  1.
         23    2    1    2    0    0 -0.18707339486E+02 -0.40325499954E+02 -0.39304507665E+03  0.41485958846E+03  0.12509170778E+03 0.  0.
          5    1    3    3  502    0  0.59151175163E+00 -0.83545498608E+02 -0.21861177940E+03  0.23407003806E+03  0.41800000000E+01 0.  1.
         -5    1    3    3    0  502 -0.19298851237E+02  0.43219998654E+02 -0.17443329725E+03  0.18078955039E+03  0.41800000000E+01 0.  1.
        -11    1    1    2    0    0  0.45082639120E+01  0.61967079555E+02 -0.28051887248E+03  0.28731703954E+03  0.00000000000E+00 0.  1.
         11    1    1    2    0    0  0.14199075574E+02 -0.21641579602E+02 -0.42380099155E+02  0.49659284320E+02  0.00000000000E+00 0. -1.
</event>
<event>
 7    1  0.5109948E-006  0.1086805E+03  0.7561462E-02  0.1263033E+00
          1   -1    0    0  501    0  0.00000000000E+00  0.00000000000E+00  0.75359762584E+03  0.75359762584E+03  0.00000000000E+00 0. -1.
         -1   -1    0    0    0  501 -0.00000000000E+00 -0.00000000000E+00 -0.22619547462E+02  0.22619547462E+02  0.00000000000E+00 0.  1.
         23    2    1    2    0    0  0.51436064248E+01  0.72302148361E+02  0.39739247193E+03  0.42287357199E+03  0.12508886362E+03 0.  0.
          5    1    3    3  502    0  0.57359532577E+01  0.99528863977E+02  0.37286626272E+03  0.38598655183E+03  0.41800000000E+01 0.  1.
         -5    1    3    3    0  502 -0.59234683290E+00 -0.27226715617E+02  0.24526209212E+02  0.36887020161E+02  0.41800000000E+01 0.  1.
        -11    1    1    2    0    0 -0.27078251450E+02 -0.21112184019E+02  0.32933606805E+02  0.47577079280E+02  0.00000000000E+00 0.  1.
         11    1    1    2    0    0  0.21934645025E+02 -0.51189964341E+02  0.30065199964E+03  0.30576652203E+03  0.00000000000E+00 0. -1.
</event>
<event>
 7    1  0.5109948E-006  0.1046949E+03  0.7561462E-02  0.1270722E+00
         -2   -1    0    0    0  501 -0.00000000000E+00  0.00000000000E+00  0.24925013588E+02  0.24925013588E+02  0.00000000000E+00 0.  1.
          2   -1    0    0  501    0  0.00000000000E+00 -0.00000000000E+00 -0.59843893675E+03  0.59843893675E+03  0.00000000000E+00 0. -1.
         23    2    1    2    0    0 -0.25714448443E+02 -0.40644331071E+02 -0.26057458294E+03  0.29301884296E+03  0.12509090513E+03 0.  0.
          5    1    3    3  502    0  0.49464931046E+02 -0.10342861617E+02 -0.75715713123E+02  0.91126811661E+02  0.41800000000E+01 0.  1.
         -5    1    3    3    0  502 -0.75179379489E+02 -0.30301469455E+02 -0.18485886982E+03  0.20189203130E+03  0.41800000000E+01 0.  1.
        -11    1    1    2    0    0 -0.20140387030E+02  0.11681783765E+02 -0.15428007652E+02  0.27930676357E+02  0.00000000000E+00 0.  1.
         11    1    1    2    0    0  0.45854835473E+02  0.28962547307E+02 -0.29751133256E+03  0.30241443102E+03  0.00000000000E+00 0. -1.
</event>
<event>
 7    1  0.5109948E-006  0.1474006E+03  0.7561462E-02  0.1203704E+00
          1   -1    0    0  501    0  0.00000000000E+00  0.00000000000E+00  0.12664083164E+03  0.12664083164E+03  0.00000000000E+00 0. -1.
         -1   -1    0    0    0  501 -0.00000000000E+00 -0.00000000000E+00 -0.25479081568E+03  0.25479081568E+03  0.00000000000E+00 0.  1.
         23    2    1    2    0    0 -0.13024233888E+03 -0.38008182551E+02 -0.11092509764E+03  0.21593166010E+03  0.12615235141E+03 0.  0.
          5    1    3    3  502    0 -0.22541655841E+02 -0.17251887276E+02  0.27179346046E+02  0.39521426014E+02  0.41800000000E+01 0. -1.
         -5    1    3    3    0  502 -0.10770068304E+03 -0.20756295275E+02 -0.13810444369E+03  0.17641023408E+03  0.41800000000E+01 0.  1.
        -11    1    1    2    0    0 -0.60091908523E+01 -0.10183207487E+02  0.13292213419E+02  0.17790194687E+02  0.00000000000E+00 0.  1.
         11    1    1    2    0    0  0.13625152974E+03  0.48191390038E+02 -0.30517099815E+02  0.14770979253E+03  0.00000000000E+00 0. -1.
</event>
<event>
 7    1  0.5109948E-006  0.1648537E+03  0.7561462E-02  0.1183323E+00
          2   -1    0    0  501    0  0.00000000000E+00  0.00000000000E+00  0.12695902007E+04  0.12695902007E+04  0.00000000000E+00 0. -1.
         -2   -1    0    0    0  501 -0.00000000000E+00 -0.00000000000E+00 -0.24139803773E+02  0.24139803773E+02  0.00000000000E+00 0.  1.
         23    2    1    2    0    0 -0.45934643839E+02 -0.12329480866E+03  0.44250988551E+03  0.47476817318E+03  0.11080712134E+03 0.  0.
          5    1    3    3  502    0 -0.16999892851E+02  0.18348177322E+02  0.95847909529E+02  0.99146084789E+02  0.41800000000E+01 0. -1.
         -5    1    3    3    0  502 -0.28934750988E+02 -0.14164298599E+03  0.34666197598E+03  0.37562208839E+03  0.41800000000E+01 0.  1.
        -11    1    1    2    0    0  0.62087352406E+02  0.37751006951E+02  0.42109079875E+03  0.42731421536E+03  0.00000000000E+00 0. -1.
         11    1    1    2    0    0 -0.16152708567E+02  0.85543801713E+02  0.38184971262E+03  0.39164761589E+03  0.00000000000E+00 0.  1.
</event>
<event>
 7    1  0.5109948E-006  0.1102254E+03  0.7561462E-02  0.1260153E+00
          2   -1    0    0  501    0  0.00000000000E+00  0.00000000000E+00  0.57327079185E+03  0.57327079185E+03  0.00000000000E+00 0.  1.
         -2   -1    0    0    0  501 -0.00000000000E+00 -0.00000000000E+00 -0.22693737810E+02  0.22693737810E+02  0.00000000000E+00 0. -1.
         23    2    1    2    0    0 -0.39388411353E+02 -0.31401413401E+02  0.32793091981E+03  0.35457503007E+03  0.12508904054E+03 0.  0.
          5    1    3    3  502    0  0.42231053894E+02  0.94134431079E+01  0.10929245031E+03  0.11761967063E+03  0.41800000000E+01 0. -1.
         -5    1    3    3    0  502 -0.81619465247E+02 -0.40814856509E+02  0.21863846950E+03  0.23695535944E+03  0.41800000000E+01 0. -1.
        -11    1    1    2    0    0 -0.18539496746E+02 -0.21888188472E+01  0.99296189602E+02  0.10103582106E+03  0.00000000000E+00 0.  1.
         11    1    1    2    0    0  0.57927908099E+02  0.33590232249E+02  0.12334994462E+03  0.14035367853E+03  0.00000000000E+00 0. -1.
</event>
<event>
 7    1  0.5109948E-006  0.1022275E+03  0.7561462E-02  0.1275680E+00
         -2   -1    0    0    0  501 -0.00000000000E+00  0.00000000000E+00  0.54587376527E+03  0.54587376527E+03  0.00000000000E+00 0.  1.
          2   -1    0    0  501    0  0.00000000000E+00 -0.00000000000E+00 -0.27113919590E+02  0.27113919590E+02  0.00000000000E+00 0. -1.
         23    2    1    2    0    0  0.24620510904E+01 -0.45698930561E+02  0.36917747114E+03  0.39247181852E+03  0.12509064389E+03 0.  0.
          5    1    3    3  502    0 -0.42229182883E+02  0.12862411210E+02  0.23683617142E+03  0.24095142664E+03  0.41800000000E+01 0.  1.
         -5    1    3    3    0  502  0.44691233973E+02 -0.58561341772E+02  0.13234129972E+03  0.15152039188E+03  0.41800000000E+01 0.  1.
        -11    1    1    2    0    0 -0.31770559329E+02  0.47295991460E+02  0.47132589893E+02  0.73944305246E+02  0.00000000000E+00 0. -1.
         11    1    1    2    0    0  0.29308508239E+02 -0.15970608985E+01  0.10244978465E+03  0.10657156109E+03  0.00000000000E+00 0.  1.
</event>
<event>
 7    1  0.5109948E-006  0.1251536E+03  0.7561462E-02  0.1234829E+00
         -3   -1    0    0    0  501 -0.00000000000E+00  0.00000000000E+00  0.16664522753E+03  0.16664522753E+03  0.00000000000E+00 0.  1.
          3   -1    0    0  501    0  0.00000000000E+00 -0.00000000000E+00 -0.14460272752E+03  0.14460272752E+03  0.00000000000E+00 0. -1.
         23    2    1    2    0    0 -0.64456318421E+02  0.44928148564E+02  0.89373331078E+02  0.17265052715E+03  0.12508979454E+03 0.  0.
          5    1    3    3  502    0  0.26806028798E+02  0.46572040940E+02  0.48674241531E+02  0.72623497340E+02  0.41800000000E+01 0. -1.
         -5    1    3    3    0  502 -0.91262347218E+02 -0.16438923757E+01  0.40699089547E+02  0.10002702981E+03  0.41800000000E+01 0. -1.
        -11    1    1    2    0    0  0.17201511749E+02  0.18941261129E+02 -0.51613728098E+02  0.57607641054E+02  0.00000000000E+00 0. -1.
         11    1    1    2    0    0  0.47254806672E+02 -0.63869409693E+02 -0.15717102975E+02  0.80989786850E+02  0.00000000000E+00 0.  1.
</event>
<event>
 7    1  0.5109948E-006  0.1482427E+03  0.7561462E-02  0.1202649E+00
         -2   -1    0    0    0  501 -0.00000000000E+00  0.00000000000E+00  0.65261154350E+02  0.65261154350E+02  0.00000000000E+00 0.  1.
          2   -1    0    0  501    0  0.00000000000E+00 -0.00000000000E+00 -0.50323135079E+03  0.50323135079E+03  0.00000000000E+00 0. -1.
         23    2    1    2    0    0 -0.71651570881E+02  0.10325283131E+03 -0.12011641131E+03  0.21417442657E+03  0.12509051901E+03 0.  0.
          5    1    3    3  502    0 -0.33640044232E+02  0.12290114457E+03 -0.11346547811E+03  0.17066994766E+03  0.41800000000E+01 0.  1.
         -5    1    3    3    0  502 -0.38011526649E+02 -0.19648313262E+02 -0.66509331975E+01  0.43504478903E+02  0.41800000000E+01 0.  1.
        -11    1    1    2    0    0  0.21268679235E+02 -0.23774102696E+02 -0.11616446496E+02  0.33948586194E+02  0.00000000000E+00 0. -1.
         11    1    1    2    0    0  0.50382891645E+02 -0.79478728612E+02 -0.30623733864E+03  0.32036949238E+03  0.00000000000E+00 0.  1.
</event>
<event>
 7    1  0.5109948E-006  0.1585346E+03  0.7561462E-02  0.1190361E+00
         -1   -1    0    0    0  501 -0.00000000000E+00  0.00000000000E+00  0.55758268547E+02  0.55758268547E+02  0.00000000000E+00 0.  1.
          1   -1    0    0  501    0  0.00000000000E+00 -0.00000000000E+00 -0.48523831964E+03  0.48523831964E+03  0.00000000000E+00 0. -1.
         23    2    1    2    0    0 -0.34931676857E+02 -0.11554915851E+03 -0.18828687081E+03  0.25626470660E+03  0.12509126287E+03 0.  0.
          5    1    3    3  502    0  0.37506793868E+02 -0.60692986560E+01 -0.21113473628E+02  0.43667460896E+02  0.41800000000E+01 0. -1.
         -5    1    3    3    0  502 -0.72438470725E+02 -0.10947985985E+03 -0.16717339718E+03  0.21259724570E+03  0.41800000000E+01 0. -1.
        -11    1    1    2    0    0  0.61757756576E+02  0.61464327031E+02 -0.11010892771E+03  0.14041317586E+03  0.00000000000E+00 0.  1.
         11    1    1    2    0    0 -0.26826079719E+02  0.54084831480E+02 -0.13108425257E+03  0.14431870573E+03  0.00000000000E+00 0. -1.
</event>
<event>
 7    1  0.5109948E-006  0.1599064E+03  0.7561462E-02  0.1188802E+00
          2   -1    0    0  501    0  0.00000000000E+00  0.00000000000E+00  0.91181051859E+02  0.91181051859E+02  0.00000000000E+00 0. -1.
         -2   -1    0    0    0  501 -0.00000000000E+00 -0.00000000000E+00 -0.37595876596E+03  0.37595876596E+03  0.00000000000E+00 0.  1.
         23    2    1    2    0    0 -0.12797620294E+03  0.40456554160E+02 -0.23268837398E+03  0.29631998377E+03  0.12508801742E+03 0.  0.
          5    1    3    3  502    0 -0.11573750691E+03  0.80042433020E+02 -0.19213656405E+03  0.23819297478E+03  0.41800000000E+01 0.  1.
         -5    1    3    3    0  502 -0.12238696031E+02 -0.39585878859E+02 -0.40551809931E+02  0.58127008991E+02  0.41800000000E+01 0.  1.
        -11    1    1    2    0    0  0.24791077833E+02 -0.20766140515E+02 -0.57134207280E+02  0.65651715694E+02  0.00000000000E+00 0.  1.
         11    1    1    2    0    0  0.10318512511E+03 -0.19690413646E+02  0.50448671573E+01  0.10516811836E+03  0.00000000000E+00 0. -1.
</event>
<event>
 7    1  0.5109948E-006  0.1049204E+03  0.7561462E-02  0.1270277E+00
         -2   -1    0    0    0  501 -0.00000000000E+00  0.00000000000E+00  0.18300731029E+03  0.18300731029E+03  0.00000000000E+00 0.  1.
          2   -1    0    0  501    0  0.00000000000E+00 -0.00000000000E+00 -0.30954551545E+03  0.30954551545E+03  0.00000000000E+00 0. -1.
         23    2    1    2    0    0  0.30859661847E+02 -0.78896737527E+01  0.15134141918E+03  0.19891525896E+03  0.12509392233E+03 0.  0.
          5    1    3    3  502    0  0.48468330823E+02 -0.54126744023E+02  0.11954263107E+03  0.13995283689E+03  0.41800000000E+01 0.  1.
         -5    1    3    3    0  502 -0.17608668977E+02  0.46237070270E+02  0.31798788114E+02  0.58962422066E+02  0.41800000000E+01 0.  1.
        -11    1    1    2    0    0 -0.43731451476E+02 -0.26195704595E+02 -0.10206469766E+03  0.11408706016E+03  0.00000000000E+00 0.  1.
         11    1    1    2    0    0  0.12871789630E+02  0.34085378348E+02 -0.17581492669E+03  0.17955050663E+03  0.00000000000E+00 0. -1.
</event>
<event>
 7    1  0.5109948E-006  0.1191370E+03  0.7561462E-02  0.1244528E+00
         -2   -1    0    0    0  501 -0.00000000000E+00  0.00000000000E+00  0.74089434742E+02  0.74089434742E+02  0.00000000000E+00 0.  1.
          2   -1    0    0  501    0  0.00000000000E+00 -0.00000000000E+00 -0.23884162779E+03  0.23884162779E+03  0.00000000000E+00 0. -1.
         23    2    1    2    0    0 -0.40478476784E+02  0.60378322293E+02 -0.53950710748E+02  0.15440827840E+03  0.12508872196E+03 0.  0.
          5    1    3    3  502    0 -0.50233433002E+02 -0.14132714854E+02  0.12706955329E+02  0.53870869067E+02  0.41800000000E+01 0.  1.
         -5    1    3    3    0  502  0.97549562177E+01  0.74511037148E+02 -0.66657666077E+02  0.10053740933E+03  0.41800000000E+01 0.  1.
        -11    1    1    2    0    0 -0.25964294096E+02 -0.21253835944E+02 -0.18725228005E+02  0.38425307729E+02  0.00000000000E+00 0.  1.
         11    1    1    2    0    0  0.66442770880E+02 -0.39124486350E+02 -0.92076254296E+02  0.12009747641E+03  0.00000000000E+00 0. -1.
</event>
<event>
 7    1  0.5109948E-006  0.2645473E+03  0.7561462E-02  0.1104442E+00
         -2   -1    0    0    0  501 -0.00000000000E+00  0.00000000000E+00  0.10082358611E+03  0.10082358611E+03  0.00000000000E+00 0.  1.
          2   -1    0    0  501    0  0.00000000000E+00 -0.00000000000E+00 -0.72800212399E+03  0.72800212399E+03  0.00000000000E+00 0. -1.
         23    2    1    2    0    0 -0.17768489413E+03 -0.17101737945E+03 -0.28330189869E+03  0.39588353645E+03  0.12507974638E+03 0.  0.
          5    1    3    3  502    0 -0.58149978647E+02  0.97537621997E+01 -0.72245443505E+02  0.93345767986E+02  0.41800000000E+01 0.  1.
         -5    1    3    3    0  502 -0.11953491548E+03 -0.18077114165E+03 -0.21105645519E+03  0.30253776847E+03  0.41800000000E+01 0.  1.
        -11    1    1    2    0    0  0.16503643066E+03  0.12936690776E+03 -0.32190702467E+03  0.38418348845E+03  0.00000000000E+00 0.  1.
         11    1    1    2    0    0  0.12648463472E+02  0.41650471686E+02 -0.21969614514E+02  0.48758685193E+02  0.00000000000E+00 0. -1.
</event>
<event>
 7    1  0.6360573E-006  0.2079166E+03  0.7561462E-02  0.1143227E+00
          2   -1    0    0  501    0  0.00000000000E+00  0.00000000000E+00  0.33915112079E+03  0.33915112079E+03  0.00000000000E+00 0. -1.
         -2   -1    0    0    0  501 -0.00000000000E+00 -0.00000000000E+00 -0.17118711698E+03  0.17118711698E+03  0.00000000000E+00 0.  1.
         23    2    1    2    0    0  0.14814519870E+02 -0.18417163893E+03 -0.29277815027E+02  0.22504059690E+03  0.12508963671E+03 0.  0.
          5    1    3    3  502    0 -0.40938893113E+02 -0.16745501695E+02  0.66021286549E+01  0.44916203080E+02  0.41800000000E+01 0.  1.
         -5    1    3    3    0  502  0.55753412983E+02 -0.16742613724E+03 -0.35879943682E+02  0.18012439382E+03  0.41800000000E+01 0.  1.
        -11    1    1    2    0    0  0.24436508691E+02  0.74598434130E+02  0.35807289429E+02  0.86279958900E+02  0.00000000000E+00 0.  1.
         11    1    1    2    0    0 -0.39251028561E+02  0.10957320480E+03  0.16143452941E+03  0.19901768198E+03  0.00000000000E+00 0. -1.
</event>
<event>
 7    1  0.5109948E-006  0.1078073E+03  0.7561462E-02  0.1264685E+00
         -1   -1    0    0    0  501 -0.00000000000E+00  0.00000000000E+00  0.75139578104E+02  0.75139578104E+02  0.00000000000E+00 0.  1.
          1   -1    0    0  501    0  0.00000000000E+00 -0.00000000000E+00 -0.17281548072E+03  0.17281548072E+03  0.00000000000E+00 0. -1.
         23    2    1    2    0    0 -0.10784729193E+02  0.15853398198E+02 -0.24288210155E+02  0.12886563306E+03  0.12509513824E+03 0.  0.
          5    1    3    3  502    0 -0.62251003942E+02  0.33520062157E+02 -0.50716826637E+01  0.71006875891E+02  0.41800000000E+01 0. -1.
         -5    1    3    3    0  502  0.51466274748E+02 -0.17666663958E+02 -0.19216527492E+02  0.57858757165E+02  0.41800000000E+01 0. -1.
        -11    1    1    2    0    0 -0.10119181931E+01  0.36517574890E+02 -0.46248241952E+02  0.58936042775E+02  0.00000000000E+00 0.  1.
         11    1    1    2    0    0  0.11796647387E+02 -0.52370973088E+02 -0.27139450511E+02  0.60153382995E+02  0.00000000000E+00 0. -1.
</event>
<event>
 6    1  0.5109948E-006  0.1036026E+03  0.7561462E-02  0.1272898E+00
         -1   -1    0    0    0  501 -0.00000000000E+00  0.00000000000E+00  0.44659752648E+03  0.44659752648E+03  0.00000000000E+00 0.  1.
          1   -1    0    0  501    0  0.00000000000E+00 -0.00000000000E+00 -0.16729614056E+03  0.16729614056E+03  0.00000000000E+00 0. -1.
          5    1    1    2  502    0  0.75112903949E+02 -0.11292638047E+02  0.67299592143E+02  0.10156859513E+03  0.41800000000E+01 0. -1.
         -5    1    1    2    0  502 -0.64121057341E+02 -0.10155874516E+02  0.34392593775E+03  0.35002453462E+03  0.41800000000E+01 0.  1.
        -11    1    1    2    0    0 -0.25402528004E+02  0.36997293895E+02 -0.13369548530E+03  0.14102684487E+03  0.00000000000E+00 0. -1.
         11    1    1    2    0    0  0.14410681396E+02 -0.15548781332E+02  0.17713413315E+01  0.21273692423E+02  0.00000000000E+00 0.  1.
</event>
<event>
 7    1  0.5109948E-006  0.2657169E+03  0.7561462E-02  0.1103756E+00
         -2   -1    0    0    0  501 -0.00000000000E+00  0.00000000000E+00  0.51253415310E+02  0.51253415310E+02  0.00000000000E+00 0. -1.
          2   -1    0    0  501    0  0.00000000000E+00 -0.00000000000E+00 -0.15560810401E+04  0.15560810401E+04  0.00000000000E+00 0.  1.
         23    2    1    2    0    0 -0.22697731888E+03 -0.11607571477E+03 -0.63925185871E+03  0.69948790542E+03  0.12509243028E+03 0.  0.
          5    1    3    3  502    0 -0.18958448500E+03 -0.74726843310E+02 -0.59260540156E+03  0.62667775803E+03  0.41800000000E+01 0. -1.
         -5    1    3    3    0  502 -0.37392833881E+02 -0.41348871457E+02 -0.46646457157E+02  0.72810147382E+02  0.41800000000E+01 0. -1.
        -11    1    1    2    0    0  0.98178583761E+02 -0.20960673314E+00 -0.26077374003E+03  0.27864317995E+03  0.00000000000E+00 0. -1.
         11    1    1    2    0    0  0.12879873512E+03  0.11628532150E+03 -0.60480202609E+03  0.62920337009E+03  0.00000000000E+00 0.  1.
</event>
<event>
 7    1  0.5109948E-006  0.1117708E+03  0.7561462E-02  0.1257325E+00
          1   -1    0    0  501    0  0.00000000000E+00  0.00000000000E+00  0.14852360529E+03  0.14852360529E+03  0.00000000000E+00 0. -1.
         -1   -1    0    0    0  501 -0.00000000000E+00 -0.00000000000E+00 -0.86437450585E+02  0.86437450585E+02  0.00000000000E+00 0.  1.
         23    2    1    2    0    0  0.23277233386E+02  0.20511573507E+02  0.26477574143E+02  0.13157095610E+03  0.12508916946E+03 0.  0.
          5    1    3    3  502    0 -0.24255605072E+02 -0.41655649077E+02  0.21785255312E+02  0.53062201485E+02  0.41800000000E+01 0.  1.
         -5    1    3    3    0  502  0.47532838458E+02  0.62167222585E+02  0.46923188316E+01  0.78508754619E+02  0.41800000000E+01 0.  1.
        -11    1    1    2    0    0 -0.46764068084E+02  0.19280464816E+02  0.22492267696E+02  0.55358075232E+02  0.00000000000E+00 0. -1.
         11    1    1    2    0    0  0.23486834698E+02 -0.39792038324E+02  0.13116312866E+02  0.48032024539E+02  0.00000000000E+00 0.  1.
</event>
<event>
 7    1  0.5109948E-006  0.1235751E+03  0.7561462E-02  0.1237313E+00
         -1   -1    0    0    0  501 -0.00000000000E+00  0.00000000000E+00  0.53234352076E+03  0.53234352076E+03  0.00000000000E+00 0.  1.
          1   -1    0    0  501    0  0.00000000000E+00 -0.00000000000E+00 -0.38095027170E+02  0.38095027170E+02  0.00000000000E+00 0. -1.
         23    2    1    2    0    0 -0.89318997766E+02  0.94961799144E+01  0.30075373255E+03  0.33788511074E+03  0.12508189167E+03 0.  0.
          5    1    3    3  502    0 -0.84945016899E+02 -0.26559386139E+02  0.28403934586E+03  0.29768587350E+03  0.41800000000E+01 0. -1.
         -5    1    3    3    0  502 -0.43739808673E+01  0.36055566053E+02  0.16714386690E+02  0.40199237237E+02  0.41800000000E+01 0. -1.
        -11    1    1    2    0    0  0.76526197768E+02  0.28298692641E+02  0.16318498308E+03  0.18244564574E+03  0.00000000000E+00 0.  1.
         11    1    1    2    0    0  0.12792799998E+02 -0.37794872555E+02  0.30309777972E+02  0.50107791450E+02  0.00000000000E+00 0. -1.
</event>
<event>
 7    1  0.5109948E-006  0.8138603E+02  0.7561462E-02  0.1325163E+00
          4   -1    0    0  501    0  0.00000000000E+00  0.00000000000E+00  0.49578639216E+02  0.49578639216E+02  0.00000000000E+00 0. -1.
         -4   -1    0    0    0  501 -0.00000000000E+00 -0.00000000000E+00 -0.27579220267E+03  0.27579220267E+03  0.00000000000E+00 0.  1.
         23    2    1    2    0    0 -0.11726408144E+02 -0.42131252360E+02 -0.14314976005E+03  0.19506900568E+03  0.12509001598E+03 0.  0.
          5    1    3    3  502    0  0.34274040621E+02 -0.44991209418E+02 -0.14773332928E+02  0.58605823527E+02  0.41800000000E+01 0. -1.
         -5    1    3    3    0  502 -0.46000448765E+02  0.28599570586E+01 -0.12837642713E+03  0.13646318215E+03  0.41800000000E+01 0. -1.
        -11    1    1    2    0    0 -0.13112254783E+02  0.30314468273E+01  0.16021179581E+02  0.20923649073E+02  0.00000000000E+00 0. -1.
         11    1    1    2    0    0  0.24838662926E+02  0.39099805533E+02 -0.99084982983E+02  0.10937818714E+03  0.00000000000E+00 0.  1.
</event>
<event>
 7    1  0.5109948E-006  0.1272581E+03  0.7561462E-02  0.1231582E+00
          1   -1    0    0  501    0  0.00000000000E+00  0.00000000000E+00  0.30596314331E+03  0.30596314331E+03  0.00000000000E+00 0. -1.
         -1   -1    0    0    0  501 -0.00000000000E+00 -0.00000000000E+00 -0.67939492087E+02  0.67939492087E+02  0.00000000000E+00 0.  1.
         23    2    1    2    0    0  0.23006980969E+02 -0.69805848000E+02  0.51696044141E+02  0.15401989634E+03  0.12508984731E+03 0.  0.
          5    1    3    3  502    0  0.72514189120E+02 -0.57755386746E+02  0.23891422002E+02  0.95824134575E+02  0.41800000000E+01 0. -1.
         -5    1    3    3    0  502 -0.49507208151E+02 -0.12050461254E+02  0.27804622139E+02  0.58195761767E+02  0.41800000000E+01 0. -1.
        -11    1    1    2    0    0 -0.51704134386E+02  0.62244274624E+02  0.16354958227E+03  0.18247228035E+03  0.00000000000E+00 0.  1.
         11    1    1    2    0    0  0.28697153417E+02  0.75615733762E+01  0.22778024817E+02  0.37410458708E+02  0.00000000000E+00 0. -1.
</event>
<event>
 7    1  0.5109948E-006  0.8141603E+02  0.7561462E-02  0.1325080E+00
         -2   -1    0    0    0  501 -0.00000000000E+00  0.00000000000E+00  0.13358105657E+03  0.13358105657E+03  0.00000000000E+00 0. -1.
          2   -1    0    0  501    0  0.00000000000E+00 -0.00000000000E+00 -0.11137050039E+03  0.11137050039E+03  0.00000000000E+00 0.  1.
         23    2    1    2    0    0 -0.25304157799E+02  0.68463770259E+01  0.24733043100E+01  0.12783102678E+03  0.12508989125E+03 0.  0.
          5    1    3    3  502    0  0.44301388073E+00 -0.56822088022E+02  0.12408605324E+02  0.58312878805E+02  0.41800000000E+01 0.  1.
         -5    1    3    3    0  502 -0.25747171680E+02  0.63668465048E+02 -0.99353010142E+01  0.69518147971E+02  0.41800000000E+01 0.  1.
        -11    1    1    2    0    0  0.17057550279E+02 -0.16923792395E+02  0.65380482410E+02  0.69656171663E+02  0.00000000000E+00 0. -1.
         11    1    1    2    0    0  0.82466075206E+01  0.10077415369E+02 -0.45643230536E+02  0.47464358521E+02  0.00000000000E+00 0.  1.
</event>
<event>
 7    1  0.5109948E-006  0.1410063E+03  0.7561462E-02  0.1211981E+00
         -1   -1    0    0    0  501 -0.00000000000E+00  0.00000000000E+00  0.35310467755E+02  0.35310467755E+02  0.00000000000E+00 0.  1.
          1   -1    0    0  501    0  0.00000000000E+00 -0.00000000000E+00 -0.67792606856E+03  0.67792606856E+03  0.00000000000E+00 0. -1.
         23    2    1    2    0    0  0.10481670799E+03  0.56322998591E+01 -0.30168721909E+03  0.34304805631E+03  0.12509406742E+03 0.  0.
          5    1    3    3  502    0  0.49043800058E+02  0.65126015320E+02 -0.14892241222E+03  0.16982947169E+03  0.41800000000E+01 0.  1.
         -5    1    3    3    0  502  0.55772907934E+02 -0.59493715461E+02 -0.15276480687E+03  0.17321858462E+03  0.41800000000E+01 0.  1.
        -11    1    1    2    0    0 -0.82818618527E+02 -0.27928969543E+02 -0.32186681485E+03  0.33352240916E+03  0.00000000000E+00 0. -1.
         11    1    1    2    0    0 -0.21998089464E+02  0.22296669684E+02 -0.19061566867E+02  0.36666070835E+02  0.00000000000E+00 0.  1.
</event>
<event>
 7    1  0.5109948E-006  0.1189943E+03  0.7561462E-02  0.1244765E+00
          1   -1    0    0  501    0  0.00000000000E+00  0.00000000000E+00  0.52841522656E+03  0.52841522656E+03  0.00000000000E+00 0. -1.
         -1   -1    0    0    0  501 -0.00000000000E+00 -0.00000000000E+00 -0.35044186873E+02  0.35044186873E+02  0.00000000000E+00 0.  1.
         23    2    1    2    0    0 -0.44350226219E+02 -0.66764926143E+02  0.31022879459E+03  0.34396788054E+03  0.12508996731E+03 0.  0.
          5    1    3    3  502    0 -0.52038622764E+02 -0.23177031853E+01  0.24973809986E+03  0.25514697907E+03  0.41800000000E+01 0.  1.
         -5    1    3    3    0  502  0.76883965447E+01 -0.64447222958E+02  0.60490694725E+02  0.88820901463E+02  0.41800000000E+01 0.  1.
        -11    1    1    2    0    0 -0.26788224571E+02  0.67643365477E+01  0.48489475019E+02  0.55808551426E+02  0.00000000000E+00 0.  1.
         11    1    1    2    0    0  0.71138450790E+02  0.60000589596E+02  0.13465277008E+03  0.16368298147E+03  0.00000000000E+00 0. -1.
</event>
<event>
 7    1  0.5109948E-006  0.1096336E+03  0.7561462E-02  0.1261250E+00
          3   -1    0    0  501    0  0.00000000000E+00  0.00000000000E+00  0.28392714350E+03  0.28392714350E+03  0.00000000000E+00 0. -1.
         -3   -1    0    0    0  501 -0.00000000000E+00 -0.00000000000E+00 -0.44299658434E+02  0.44299658434E+02  0.00000000000E+00 0.  1.
         23    2    1    2    0    0 -0.21308915497E+02 -0.80777439998E+01  0.12768185350E+03  0.18019310985E+03  0.12509029257E+03 0.  0.
          5    1    3    3  502    0 -0.21617002249E+02  0.55568494749E+02  0.40625047163E+02  0.72270459055E+02  0.41800000000E+01 0. -1.
         -5    1    3    3    0  502  0.30808675160E+00 -0.63646238749E+02  0.87056806339E+02  0.10792265079E+03  0.41800000000E+01 0. -1.
        -11    1    1    2    0    0 -0.36510330327E+02 -0.37257133467E+01  0.32167650102E+02  0.48802078579E+02  0.00000000000E+00 0.  1.
         11    1    1    2    0    0  0.57819245824E+02  0.11803457346E+02  0.79777981458E+02  0.99231613504E+02  0.00000000000E+00 0. -1.
</event>
<event>
 7    1  0.5109948E-006  0.2051889E+03  0.7561462E-02  0.1145434E+00
          1   -1    0    0  501    0  0.00000000000E+00  0.00000000000E+00  0.83757943537E+02  0.83757943537E+02  0.00000000000E+00 0. -1.
         -1   -1    0    0    0  501 -0.00000000000E+00 -0.00000000000E+00 -0.51157793748E+03  0.51157793748E+03  0.00000000000E+00 0.  1.
         23    2    1    2    0    0 -0.16626186075E+03 -0.55684938462E+02 -0.20165161032E+03  0.29505156340E+03  0.12509290310E+03 0.  0.
          5    1    3    3  502    0  0.16400722884E+01  0.27568888813E+02 -0.26207234396E+02  0.38301762390E+02  0.41800000000E+01 0. -1.
         -5    1    3    3    0  502 -0.16790193304E+03 -0.83253827274E+02 -0.17544437592E+03  0.25674980101E+03  0.41800000000E+01 0. -1.
        -11    1    1    2    0    0  0.15301402077E+03  0.16828150928E+02 -0.15717661595E+03  0.22000219503E+03  0.00000000000E+00 0. -1.
         11    1    1    2    0    0  0.13247839984E+02  0.38856787533E+02 -0.68991767671E+02  0.80282122593E+02  0.00000000000E+00 0.  1.
</event>
<event>
 7    1  0.5109948E-006  0.4584953E+02  0.7561462E-02  0.1469107E+00
          2   -1    0    0  501    0  0.00000000000E+00  0.00000000000E+00  0.40761407152E+02  0.40761407152E+02  0.00000000000E+00 0. -1.
         -2   -1    0    0    0  501 -0.00000000000E+00 -0.00000000000E+00 -0.33038283366E+03  0.33038283366E+03  0.00000000000E+00 0.  1.
         23    2    1    2    0    0 -0.36297187635E+02  0.21762028877E+01 -0.21742237180E+03  0.25345996407E+03  0.12508894411E+03 0.  0.
          5    1    3    3  502    0 -0.28661228110E+02 -0.17482141891E+02 -0.22729712774E+03  0.22980110522E+03  0.41800000000E+01 0.  1.
         -5    1    3    3    0  502 -0.76359595244E+01  0.19658344779E+02  0.98747559387E+01  0.23658858851E+02  0.41800000000E+01 0.  1.
        -11    1    1    2    0    0  0.20663897454E+02 -0.91843442138E+00 -0.90930724537E+02  0.93253615719E+02  0.00000000000E+00 0.  1.
         11    1    1    2    0    0  0.15633290181E+02 -0.12577684663E+01  0.18731669829E+02  0.24430661022E+02  0.00000000000E+00 0. -1.
</event>
<event>
 7    1  0.5109948E-006  0.1464401E+03  0.7561462E-02  0.1204917E+00
         -1   -1    0    0    0  501 -0.00000000000E+00  0.00000000000E+00  0.39435232566E+02  0.39435232566E+02  0.00000000000E+00 0.  1.
          1   -1    0    0  501    0  0.00000000000E+00 -0.00000000000E+00 -0.60932771300E+03  0.60932771300E+03  0.00000000000E+00 0. -1.
         23    2    1    2    0    0 -0.19120197907E+02 -0.10835952262E+03 -0.27640188136E+03  0.32272767802E+03  0.12509111091E+03 0.  0.
          5    1    3    3  502    0 -0.32744404098E+02  0.13766314729E+02 -0.27509846960E+02  0.45121740887E+02  0.41800000000E+01 0.  1.
         -5    1    3    3    0  502  0.13624206191E+02 -0.12212583735E+03 -0.24889203440E+03  0.27760593713E+03  0.41800000000E+01 0.  1.
        -11    1    1    2    0    0  0.48412702853E+02  0.79223499655E+02 -0.24681885986E+03  0.26370381544E+03  0.00000000000E+00 0.  1.
         11    1    1    2    0    0 -0.29292504946E+02  0.29136022965E+02 -0.46671739207E+02  0.62331452100E+02  0.00000000000E+00 0. -1.
</event>
<event>
 7    1  0.5109948E-006  0.1296414E+03  0.7561462E-02  0.1227989E+00
         -1   -1    0    0    0  501 -0.00000000000E+00  0.00000000000E+00  0.16031360206E+03  0.16031360206E+03  0.00000000000E+00 0.  1.
          1   -1    0    0  501    0  0.00000000000E+00 -0.00000000000E+00 -0.14875970818E+03  0.14875970818E+03  0.00000000000E+00 0. -1.
         23    2    1    2    0    0  0.16138214804E+02 -0.10283318333E+03  0.40767353700E+02  0.16776498399E+03  0.12509199477E+03 0.  0.
          5    1    3    3  502    0 -0.19071797648E+02  0.19582295002E+02  0.28529507671E+02  0.39731661821E+02  0.41800000000E+01 0.  1.
         -5    1    3    3    0  502  0.35210012452E+02 -0.12241547833E+03  0.12237846029E+02  0.12803332217E+03  0.41800000000E+01 0.  1.
        -11    1    1    2    0    0 -0.69547031911E+01  0.31344947467E+02 -0.55888658701E+02  0.64454757773E+02  0.00000000000E+00 0. -1.
         11    1    1    2    0    0 -0.91835116133E+01  0.71488235860E+02  0.26675198876E+02  0.76853568473E+02  0.00000000000E+00 0.  1.
</event>
<event>
 7    1  0.5109948E-006  0.8763031E+02  0.7561462E-02  0.1308694E+00
          2   -1    0    0  501    0  0.00000000000E+00  0.00000000000E+00  0.16196539452E+03  0.16196539452E+03  0.00000000000E+00 0. -1.
         -2   -1    0    0    0  501 -0.00000000000E+00 -0.00000000000E+00 -0.11564320784E+03  0.11564320784E+03  0.00000000000E+00 0.  1.
         23    2    1    2    0    0  0.22896827358E+02  0.61985628722E+02 -0.25752132078E+02  0.14379787407E+03  0.12509265929E+03 0.  0.
          5    1    3    3  502    0 -0.18665641291E+02  0.23264596610E+02  0.44264624994E+02  0.53539490529E+02  0.41800000000E+01 0.  1.
         -5    1    3    3    0  502  0.41562468649E+02  0.38721032112E+02 -0.70016757072E+02  0.90258383539E+02  0.41800000000E+01 0.  1.
        -11    1    1    2    0    0 -0.21628352369E+02  0.41612326280E+01 -0.13355985612E+02  0.25758179961E+02  0.00000000000E+00 0.  1.
         11    1    1    2    0    0 -0.12684749887E+01 -0.66146861350E+02  0.85430304378E+02  0.10805254833E+03  0.00000000000E+00 0. -1.
</event>
<event>
 7    1  0.5109948E-006  0.1080672E+03  0.7561462E-02  0.1264192E+00
          3   -1    0    0  501    0  0.00000000000E+00  0.00000000000E+00  0.10129356766E+03  0.10129356766E+03  0.00000000000E+00 0. -1.
         -3   -1    0    0    0  501 -0.00000000000E+00 -0.00000000000E+00 -0.17214483611E+03  0.17214483611E+03  0.00000000000E+00 0.  1.
         23    2    1    2    0    0  0.18455100432E+02 -0.70872082675E+02 -0.59819751160E+02  0.15680931333E+03  0.12508922928E+03 0.  0.
          5    1    3    3  502    0 -0.45569105606E+01  0.33979409981E+02 -0.28861510032E+02  0.45009164598E+02  0.41800000000E+01 0.  1.
         -5    1    3    3    0  502  0.23012010993E+02 -0.10485149266E+03 -0.30958241127E+02  0.11180014873E+03  0.41800000000E+01 0.  1.
        -11    1    1    2    0    0 -0.65641070144E+01  0.88597095734E+01 -0.44026199468E+02  0.45385991167E+02  0.00000000000E+00 0.  1.
         11    1    1    2    0    0 -0.11890993418E+02  0.62012373102E+02  0.32994682185E+02  0.71243099278E+02  0.00000000000E+00 0. -1.
</event>
<event>
 7    1  0.5109948E-006  0.1047704E+03  0.7561462E-02  0.1270573E+00
          1   -1    0    0  501    0  0.00000000000E+00  0.00000000000E+00  0.78227104906E+02  0.78227104906E+02  0.00000000000E+00 0. -1.
         -1   -1    0    0    0  501 -0.00000000000E+00 -0.00000000000E+00 -0.31649705026E+03  0.31649705026E+03  0.00000000000E+00 0.  1.
         23    2    1    2    0    0  0.89434393495E+02 -0.20789733189E+01 -0.21160652527E+03  0.26158720059E+03  0.12509080345E+03 0.  0.
          5    1    3    3  502    0  0.45177720168E+02  0.36518739971E+02 -0.19024345437E+03  0.19895901362E+03  0.41800000000E+01 0.  1.
         -5    1    3    3    0  502  0.44256673328E+02 -0.38597713290E+02 -0.21363070895E+02  0.62628186971E+02  0.41800000000E+01 0.  1.
        -11    1    1    2    0    0 -0.14881630593E+02 -0.84831376643E+01 -0.51162860339E+02  0.53954284648E+02  0.00000000000E+00 0.  1.
         11    1    1    2    0    0 -0.74552762903E+02  0.10562110983E+02  0.24499440250E+02  0.79182669931E+02  0.00000000000E+00 0. -1.
</event>
<event>
 7    1  0.5109948E-006  0.1449315E+03  0.7561462E-02  0.1206843E+00
          1   -1    0    0  501    0  0.00000000000E+00  0.00000000000E+00  0.35668355698E+02  0.35668355698E+02  0.00000000000E+00 0. -1.
         -1   -1    0    0    0  501 -0.00000000000E+00 -0.00000000000E+00 -0.90823984107E+03  0.90823984107E+03  0.00000000000E+00 0.  1.
         23    2    1    2    0    0  0.85935165313E+02  0.63662068093E+02 -0.71046419518E+03  0.72926758677E+03  0.12503651038E+03 0.  0.
          5    1    3    3  502    0  0.52785101354E+01  0.74369007067E+02 -0.22644593356E+03  0.23844044352E+03  0.41800000000E+01 0.  1.
         -5    1    3    3    0  502  0.80656655177E+02 -0.10706938973E+02 -0.48401826162E+03  0.49082714325E+03  0.41800000000E+01 0.  1.
        -11    1    1    2    0    0 -0.47096329102E+02  0.12060695478E+02 -0.93281972774E+02  0.10519054632E+03  0.00000000000E+00 0.  1.
         11    1    1    2    0    0 -0.38838836210E+02 -0.75722763571E+02 -0.68825317411E+02  0.10945006367E+03  0.00000000000E+00 0. -1.
</event>
<event>
 7    1  0.5109948E-006  0.9444145E+02  0.7561462E-02  0.1292439E+00
         -2   -1    0    0    0  501 -0.00000000000E+00  0.00000000000E+00  0.12811768192E+03  0.12811768192E+03  0.00000000000E+00 0.  1.
          2   -1    0    0  501    0  0.00000000000E+00 -0.00000000000E+00 -0.12401032291E+03  0.12401032291E+03  0.00000000000E+00 0. -1.
         23    2    1    2    0    0 -0.25893898841E+02  0.29074377272E+01  0.61081097620E+02  0.14161930863E+03  0.12508469490E+03 0.  0.
          5    1    3    3  502    0  0.48666140956E+01  0.48317478817E+02 -0.11954915375E+02  0.50186204216E+02  0.41800000000E+01 0.  1.
         -5    1    3    3    0  502 -0.30760512937E+02 -0.45410041090E+02  0.73036012995E+02  0.91433104411E+02  0.41800000000E+01 0.  1.
        -11    1    1    2    0    0 -0.29467458666E+02 -0.41561362158E+01  0.17285486643E+01  0.29809268172E+02  0.00000000000E+00 0.  1.
         11    1    1    2    0    0  0.55361357508E+02  0.12486984886E+01 -0.58702287278E+02  0.80699428032E+02  0.00000000000E+00 0. -1.
</event>
<event>
 7    1  0.5109948E-006  0.1196363E+03  0.7561462E-02  0.1243698E+00
          1   -1    0    0  501    0  0.00000000000E+00  0.00000000000E+00  0.14843565574E+03  0.14843565574E+03  0.00000000000E+00 0. -1.
         -1   -1    0    0    0  501 -0.00000000000E+00 -0.00000000000E+00 -0.12226064785E+03  0.12226064785E+03  0.00000000000E+00 0.  1.
         23    2    1    2    0    0  0.58616466346E+02  0.56757269917E+02  0.74743548596E+01  0.14953568161E+03  0.12509107194E+03 0.  0.
          5    1    3    3  502    0  0.53582276768E+02 -0.81287034014E+01 -0.41160782304E+02  0.68182245508E+02  0.41800000000E+01 0. -1.
         -5    1    3    3    0  502  0.50341895782E+01  0.64885973319E+02  0.48635137164E+02  0.81353436099E+02  0.41800000000E+01 0. -1.
        -11    1    1    2    0    0  0.54969561258E+01  0.19391962075E+02  0.36599684373E+01  0.20485606868E+02  0.00000000000E+00 0. -1.
         11    1    1    2    0    0 -0.64113422472E+02 -0.76149231992E+02  0.15040684591E+02  0.10067501511E+03  0.00000000000E+00 0.  1.
</event>
<event>
 7    1  0.5109948E-006  0.7864102E+02  0.7561462E-02  0.1332953E+00
         -2   -1    0    0    0  501 -0.00000000000E+00  0.00000000000E+00  0.11068613657E+03  0.11068613657E+03  0.00000000000E+00 0.  1.
          2   -1    0    0  501    0  0.00000000000E+00 -0.00000000000E+00 -0.12458206105E+03  0.12458206105E+03  0.00000000000E+00 0. -1.
         23    2    1    2    0    0  0.35190745888E+02  0.16684572735E+02 -0.30219762266E+02  0.13445452759E+03  0.12509205568E+03 0.  0.
          5    1    3    3  502    0 -0.11404286337E+02  0.36964840648E+02  0.34541682030E+02  0.52029389661E+02  0.41800000000E+01 0. -1.
         -5    1    3    3    0  502  0.46595032225E+02 -0.20280267913E+02 -0.64761444296E+02  0.82425137925E+02  0.41800000000E+01 0. -1.
        -11    1    1    2    0    0  0.14982658627E+02 -0.56421660868E+01  0.40857396400E+02  0.43882125499E+02  0.00000000000E+00 0.  1.
         11    1    1    2    0    0 -0.50173404515E+02 -0.11042406648E+02 -0.24533558607E+02  0.56931544535E+02  0.00000000000E+00 0. -1.
</event>
<event>
 7    1  0.5109948E-006  0.1126721E+03  0.7561462E-02  0.1255700E+00
         -2   -1    0    0    0  501 -0.00000000000E+00  0.00000000000E+00  0.42819114203E+02  0.42819114203E+02  0.00000000000E+00 0.  1.
          2   -1    0    0  501    0  0.00000000000E+00 -0.00000000000E+00 -0.45063116083E+03  0.45063116083E+03  0.00000000000E+00 0. -1.
         23    2    1    2    0    0  0.32994242773E+02  0.75940839324E+02 -0.17996383169E+03  0.23427911793E+03  0.12507634967E+03 0.  0.
          5    1    3    3  502    0  0.52623049885E+02  0.12556954623E+02 -0.15334655357E+03  0.16266376481E+03  0.41800000000E+01 0. -1.
         -5    1    3    3    0  502 -0.19628807112E+02  0.63383884701E+02 -0.26617278122E+02  0.71615353124E+02  0.41800000000E+01 0. -1.
        -11    1    1    2    0    0  0.19123066551E+02 -0.27127707574E+02 -0.14960393590E+03  0.15324144945E+03  0.00000000000E+00 0.  1.
         11    1    1    2    0    0 -0.52117309324E+02 -0.48813131750E+02 -0.78244279035E+02  0.10592970766E+03  0.00000000000E+00 0. -1.
</event>
<event>
 7    1  0.7879020E-006  0.4141141E+03  0.7561462E-02  0.1038999E+00
          2   -1    0    0  501    0  0.00000000000E+00  0.00000000000E+00  0.10504260788E+04  0.10504260788E+04  0.00000000000E+00 0. -1.
         -2   -1    0    0    0  501 -0.00000000000E+00 -0.00000000000E+00 -0.23193273912E+03  0.23193273912E+03  0.00000000000E+00 0.  1.
         23    2    1    2    0    0 -0.12696262677E+03 -0.38931704235E+03  0.84505978540E+02  0.43643525492E+03  0.12508878153E+03 0.  0.
          5    1    3    3  502    0 -0.52992640668E+02 -0.19840274946E+03 -0.20276843073E+02  0.20639887045E+03  0.41800000000E+01 0.  1.
         -5    1    3    3    0  502 -0.73969986098E+02 -0.19091429289E+03  0.10478282161E+03  0.23003638447E+03  0.41800000000E+01 0.  1.
        -11    1    1    2    0    0  0.64297181558E+02  0.80981616533E+02  0.22350513154E+03  0.24626549412E+03  0.00000000000E+00 0. -1.
         11    1    1    2    0    0  0.62665445208E+02  0.30833542582E+03  0.51048222964E+03  0.59965806891E+03  0.00000000000E+00 0.  1.
</event>
<event>
 7    1  0.5109948E-006  0.1105421E+03  0.7561462E-02  0.1259569E+00
          1   -1    0    0  501    0  0.00000000000E+00  0.00000000000E+00  0.56881470704E+03  0.56881470704E+03  0.00000000000E+00 0. -1.
         -1   -1    0    0    0  501 -0.00000000000E+00 -0.00000000000E+00 -0.37069067606E+02  0.37069067606E+02  0.00000000000E+00 0.  1.
         23    2    1    2    0    0  0.91182642503E+02 -0.15074264858E+02  0.34398802634E+03  0.37751427313E+03  0.12509099245E+03 0.  0.
          5    1    3    3  502    0  0.90828646342E+02  0.19179002269E+02  0.32521225310E+03  0.33822796912E+03  0.41800000000E+01 0. -1.
         -5    1    3    3    0  502  0.35399616097E+00 -0.34253267126E+02  0.18775773240E+02  0.39286304011E+02  0.41800000000E+01 0. -1.
        -11    1    1    2    0    0 -0.42502821685E+02  0.14684958700E+02  0.12784087165E+02  0.46750088212E+02  0.00000000000E+00 0.  1.
         11    1    1    2    0    0 -0.48679820818E+02  0.38930615752E+00  0.17497352592E+03  0.18161941330E+03  0.00000000000E+00 0. -1.
</event>
<event>
 7    1  0.5109948E-006  0.1264161E+03  0.7561462E-02  0.1232873E+00
          4   -1    0    0  501    0  0.00000000000E+00  0.00000000000E+00  0.18500765002E+03  0.18500765002E+03  0.00000000000E+00 0. -1.
         -4   -1    0    0    0  501 -0.00000000000E+00 -0.00000000000E+00 -0.10931970291E+03  0.10931970291E+03  0.00000000000E+00 0.  1.
         23    2    1    2    0    0 -0.22663084937E+02  0.80078110761E+02  0.27040644924E+01  0.15027624481E+03  0.12509803575E+03 0.  0.
          5    1    3    3  502    0  0.30833631832E+02 -0.11974849363E+02 -0.23204464426E+02  0.40620554385E+02  0.41800000000E+01 0. -1.
         -5    1    3    3    0  502 -0.53496716769E+02  0.92052960125E+02  0.25908528918E+02  0.10965569043E+03  0.41800000000E+01 0. -1.
        -11    1    1    2    0    0  0.41972900417E+02 -0.83382057912E+02  0.32098804543E+02  0.98714868202E+02  0.00000000000E+00 0.  1.
         11    1    1    2    0    0 -0.19309815479E+02  0.33039471502E+01  0.40885078077E+02  0.45336239919E+02  0.00000000000E+00 0. -1.
</event>
<event>
 7    1  0.5109948E-006  0.1681796E+03  0.7561462E-02  0.1179760E+00
          1   -1    0    0  501    0  0.00000000000E+00  0.00000000000E+00  0.12652117668E+04  0.12652117668E+04  0.00000000000E+00 0. -1.
         -1   -1    0    0    0  501 -0.00000000000E+00 -0.00000000000E+00 -0.24070230884E+02  0.24070230884E+02  0.00000000000E+00 0.  1.
         23    2    1    2    0    0  0.11828066795E+03  0.72053011435E+02  0.67486988058E+03  0.70019921401E+03  0.12509049012E+03 0.  0.
          5    1    3    3  502    0  0.14432348570E+03  0.63797632970E+02  0.59909019680E+03  0.61953687768E+03  0.41800000000E+01 0. -1.
         -5    1    3    3    0  502 -0.26042817741E+02  0.82553784645E+01  0.75779683774E+02  0.80662336331E+02  0.41800000000E+01 0. -1.
        -11    1    1    2    0    0 -0.61921036548E+02 -0.33547611947E+01  0.13236497902E+03  0.14617098501E+03  0.00000000000E+00 0.  1.
         11    1    1    2    0    0 -0.56359631407E+02 -0.68698250240E+02  0.43390667634E+03  0.44291179868E+03  0.00000000000E+00 0. -1.
</event>
<event>
 7    1  0.5109948E-006  0.1386002E+03  0.7561462E-02  0.1215225E+00
         -2   -1    0    0    0  501 -0.00000000000E+00  0.00000000000E+00  0.32086090251E+02  0.32086090251E+02  0.00000000000E+00 0.  1.
          2   -1    0    0  501    0  0.00000000000E+00 -0.00000000000E+00 -0.66904960445E+03  0.66904960445E+03  0.00000000000E+00 0. -1.
         23    2    1    2    0    0 -0.60690744890E+02 -0.74571078989E+02 -0.30380570526E+03  0.34232922652E+03  0.12508869033E+03 0.  0.
          5    1    3    3  502    0 -0.17875412406E+02 -0.95323890751E+02 -0.13102354684E+03  0.16306690879E+03  0.41800000000E+01 0.  1.
         -5    1    3    3    0  502 -0.42815332485E+02  0.20752811762E+02 -0.17278215841E+03  0.17926231773E+03  0.41800000000E+01 0.  1.
        -11    1    1    2    0    0  0.84184415573E+02  0.48052479570E+02 -0.26103604400E+03  0.27845264029E+03  0.00000000000E+00 0.  1.
         11    1    1    2    0    0 -0.23493670683E+02  0.26518599420E+02 -0.72121764945E+02  0.80353827887E+02  0.00000000000E+00 0. -1.
</event>
<event>
 7    1  0.5109948E-006  0.8678984E+02  0.7561462E-02  0.1310817E+00
          1   -1    0    0  501    0  0.00000000000E+00  0.00000000000E+00  0.20089454615E+03  0.20089454615E+03  0.00000000000E+00 0. -1.
         -1   -1    0    0    0  501 -0.00000000000E+00 -0.00000000000E+00 -0.43819970193E+02  0.43819970193E+02  0.00000000000E+00 0.  1.
         23    2    1    2    0    0  0.70623265964E+01  0.34702945790E+01  0.78855015137E+02  0.14806785724E+03  0.12507620691E+03 0.  0.
          5    1    3    3  502    0  0.20534535308E+02 -0.55371668778E+02  0.17134010568E+02  0.61633883228E+02  0.41800000000E+01 0.  1.
         -5    1    3    3    0  502 -0.13472208711E+02  0.58841963357E+02  0.61721004569E+02  0.86433974016E+02  0.41800000000E+01 0.  1.
        -11    1    1    2    0    0 -0.27741167904E+02 -0.13536298139E+02  0.29156385798E+02  0.42460553420E+02  0.00000000000E+00 0.  1.
         11    1    1    2    0    0  0.20678841308E+02  0.10066003560E+02  0.49063175025E+02  0.54186105683E+02  0.00000000000E+00 0. -1.
</event>
<event>
 7    1  0.5109948E-006  0.9266114E+02  0.7561462E-02  0.1296532E+00
         -1   -1    0    0    0  501 -0.00000000000E+00  0.00000000000E+00  0.10643444922E+03  0.10643444922E+03  0.00000000000E+00 0.  1.
          1   -1    0    0  501    0  0.00000000000E+00 -0.00000000000E+00 -0.15097218721E+03  0.15097218721E+03  0.00000000000E+00 0. -1.
         23    2    1    2    0    0  0.48247266167E+02 -0.96798360566E+01  0.56848502511E+02  0.13468653811E+03  0.11174620079E+03 0.  0.
          5    1    3    3  502    0 -0.16698446086E+02  0.35636262156E+02  0.48872970273E+01  0.39876551435E+02  0.41800000000E+01 0. -1.
         -5    1    3    3    0  502  0.64945712253E+02 -0.45316098213E+02  0.51961205484E+02  0.94809986671E+02  0.41800000000E+01 0.  1.
        -11    1    1    2    0    0 -0.37132097710E+02 -0.14475084329E+02 -0.76707065292E+02  0.86442435253E+02  0.00000000000E+00 0. -1.
         11    1    1    2    0    0 -0.11115168457E+02  0.24154920385E+02 -0.24679175214E+02  0.36277663071E+02  0.00000000000E+00 0.  1.
</event>
<event>
 7    1  0.5109948E-006  0.1427143E+03  0.7561462E-02  0.1209723E+00
         -3   -1    0    0    0  501 -0.00000000000E+00  0.00000000000E+00  0.20927085034E+03  0.20927085034E+03  0.00000000000E+00 0.  1.
          3   -1    0    0  501    0  0.00000000000E+00 -0.00000000000E+00 -0.14271368403E+03  0.14271368403E+03  0.00000000000E+00 0. -1.
         23    2    1    2    0    0  0.78750079574E+02  0.71656338286E+02  0.11766192199E+03  0.20205975368E+03  0.12509040860E+03 0.  0.
          5    1    3    3  502    0 -0.22384981992E+02  0.46393737946E+02  0.70889969636E+02  0.87728709863E+02  0.41800000000E+01 0.  1.
         -5    1    3    3    0  502  0.10113506157E+03  0.25262600340E+02  0.46771952352E+02  0.11433104382E+03  0.41800000000E+01 0.  1.
        -11    1    1    2    0    0  0.10876189729E+01  0.13006458811E+02 -0.28546902650E+02  0.31389114941E+02  0.00000000000E+00 0. -1.
         11    1    1    2    0    0 -0.79837698547E+02 -0.84662797097E+02 -0.22557853025E+02  0.11853566575E+03  0.00000000000E+00 0.  1.
</event>
<event>
 7    1  0.5109948E-006  0.6421724E+02  0.7561462E-02  0.1380940E+00
         -4   -1    0    0    0  501 -0.00000000000E+00  0.00000000000E+00  0.97096862366E+02  0.97096862366E+02  0.00000000000E+00 0.  1.
          4   -1    0    0  501    0  0.00000000000E+00 -0.00000000000E+00 -0.11963638190E+03  0.11963638190E+03  0.00000000000E+00 0. -1.
         23    2    1    2    0    0 -0.92977758221E+01  0.53071448917E+01 -0.14888066132E+02  0.12639874809E+03  0.12506148322E+03 0.  0.
          5    1    3    3  502    0 -0.19085149387E+02 -0.91434895021E+01 -0.67472110216E+02  0.70836462252E+02  0.41800000000E+01 0. -1.
         -5    1    3    3    0  502  0.97873735644E+01  0.14450634394E+02  0.52584044084E+02  0.55562285841E+02  0.41800000000E+01 0. -1.
        -11    1    1    2    0    0 -0.21794979970E+02 -0.37995236745E+02 -0.10788644568E+02  0.45111573003E+02  0.00000000000E+00 0.  1.
         11    1    1    2    0    0  0.31092755792E+02  0.32688091853E+02  0.31371911653E+01  0.45222923171E+02  0.00000000000E+00 0. -1.
</event>
<event>
 7    1  0.5109948E-006  0.8219987E+02  0.7561462E-02  0.1322922E+00
         -2   -1    0    0    0  501 -0.00000000000E+00  0.00000000000E+00  0.25871592845E+02  0.25871592845E+02  0.00000000000E+00 0.  1.
          2   -1    0    0  501    0  0.00000000000E+00 -0.00000000000E+00 -0.59518425715E+03  0.59518425715E+03  0.00000000000E+00 0. -1.
         23    2    1    2    0    0 -0.22126001040E+02 -0.29735903203E+02 -0.20334522848E+03  0.24160097860E+03  0.12509183449E+03 0.  0.
          5    1    3    3  502    0 -0.33687582083E+02 -0.14235294626E+01 -0.20767191720E+03  0.21043283303E+03  0.41800000000E+01 0.  1.
         -5    1    3    3    0  502  0.11561581043E+02 -0.28312373741E+02  0.43266887279E+01  0.31168145572E+02  0.41800000000E+01 0.  1.
        -11    1    1    2    0    0 -0.18378120027E+02  0.50715428677E+02 -0.17559400612E+03  0.18369285502E+03  0.00000000000E+00 0.  1.
         11    1    1    2    0    0  0.40504121068E+02 -0.20979525474E+02 -0.19037342971E+03  0.19576201637E+03  0.00000000000E+00 0. -1.
</event>
<event>
 7    1  0.5109948E-006  0.7977974E+02  0.7561462E-02  0.1329678E+00
          2   -1    0    0  501    0  0.00000000000E+00  0.00000000000E+00  0.36220951262E+03  0.36220951262E+03  0.00000000000E+00 0. -1.
         -2   -1    0    0    0  501 -0.00000000000E+00 -0.00000000000E+00 -0.34664493102E+02  0.34664493102E+02  0.00000000000E+00 0.  1.
         23    2    1    2    0    0 -0.13626579304E+02  0.12764875861E+02  0.13619333593E+03  0.18586079896E+03  0.12508791356E+03 0.  0.
          5    1    3    3  502    0 -0.32164332985E+02 -0.16074332997E+02  0.14562669520E+03  0.15005843945E+03  0.41800000000E+01 0.  1.
         -5    1    3    3    0  502  0.18537753681E+02  0.28839208858E+02 -0.94333592650E+01  0.35802359505E+02  0.41800000000E+01 0.  1.
        -11    1    1    2    0    0  0.95282235995E+01  0.37347154211E+02  0.88536319714E+02  0.96562295339E+02  0.00000000000E+00 0. -1.
         11    1    1    2    0    0  0.40983557043E+01 -0.50112030072E+02  0.10281536388E+03  0.11445091143E+03  0.00000000000E+00 0.  1.
</event>
<event>
 7    1  0.5109948E-006  0.1122026E+03  0.7561462E-02  0.1256544E+00
         -1   -1    0    0    0  501 -0.00000000000E+00  0.00000000000E+00  0.50548333797E+02  0.50548333797E+02  0.00000000000E+00 0.  1.
          1   -1    0    0  501    0  0.00000000000E+00 -0.00000000000E+00 -0.49734188428E+03  0.49734188428E+03  0.00000000000E+00 0. -1.
         23    2    1    2    0    0 -0.12375876341E+02 -0.65888637435E+02 -0.77394847308E+02  0.16165631920E+03  0.12509327836E+03 0.  0.
          5    1    3    3  502    0  0.37150716001E+02 -0.76704491531E+02 -0.69768464624E+02  0.11022189336E+03  0.41800000000E+01 0. -1.
         -5    1    3    3    0  502 -0.49526592342E+02  0.10815854096E+02 -0.76263826842E+01  0.51434425842E+02  0.41800000000E+01 0. -1.
        -11    1    1    2    0    0  0.75120835458E+01 -0.98092779857E+01 -0.39136362398E+01  0.12960319534E+02  0.00000000000E+00 0.  1.
         11    1    1    2    0    0  0.48637927953E+01  0.75697915421E+02 -0.36548506693E+03  0.37327357933E+03  0.00000000000E+00 0. -1.
</event>
<event>
 6    1  0.5109948E-006  0.1932108E+03  0.7561462E-02  0.1155597E+00
         -2   -1    0    0    0  501 -0.00000000000E+00  0.00000000000E+00  0.10827538510E+03  0.10827538510E+03  0.00000000000E+00 0.  1.
          2   -1    0    0  501    0  0.00000000000E+00 -0.00000000000E+00 -0.11081946949E+04  0.11081946949E+04  0.00000000000E+00 0. -1.
          5    1    1    2  502    0  0.80822535177E+02  0.57128038214E+02 -0.19230003221E+03  0.21631613377E+03  0.41800000000E+01 0. -1.
         -5    1    1    2    0  502 -0.61472003948E+02  0.10366747456E+03  0.43991393679E+02  0.12836848394E+03  0.41800000000E+01 0.  1.
        -11    1    1    2    0    0 -0.28454580087E+02 -0.14984655414E+03 -0.83904166316E+03  0.85279221704E+03  0.00000000000E+00 0.  1.
         11    1    1    2    0    0  0.91040488583E+01 -0.10948958634E+02 -0.12569008112E+02  0.18993245265E+02  0.00000000000E+00 0. -1.
</event>
<event>
 6    1  0.5109948E-006  0.2278689E+03  0.7561462E-02  0.1128149E+00
         -2   -1    0    0    0  501 -0.00000000000E+00  0.00000000000E+00  0.46264422324E+02  0.46264422324E+02  0.00000000000E+00 0.  1.
          2   -1    0    0  501    0  0.00000000000E+00 -0.00000000000E+00 -0.13185255621E+04  0.13185255621E+04  0.00000000000E+00 0. -1.
          5    1    1    2  502    0  0.60932452284E+02  0.18316186916E+03 -0.74704311592E+03  0.77159051543E+03  0.41800000000E+01 0. -1.
         -5    1    1    2    0  502  0.44947876418E+02 -0.69399297914E+02 -0.92098613358E+02  0.12383941670E+03  0.41800000000E+01 0.  1.
        -11    1    1    2    0    0 -0.81775934361E+02 -0.12798865415E+03 -0.38186234628E+03  0.41095894021E+03  0.00000000000E+00 0.  1.
         11    1    1    2    0    0 -0.24104394341E+02  0.14226082910E+02 -0.51257064254E+02  0.58401112125E+02  0.00000000000E+00 0. -1.
</event>
<event>
 7    1  0.5109948E-006  0.1622706E+03  0.7561462E-02  0.1186157E+00
         -2   -1    0    0    0  501 -0.00000000000E+00  0.00000000000E+00  0.34984964542E+02  0.34984964542E+02  0.00000000000E+00 0. -1.
          2   -1    0    0  501    0  0.00000000000E+00 -0.00000000000E+00 -0.90372782312E+03  0.90372782312E+03  0.00000000000E+00 0.  1.
         23    2    1    2    0    0 -0.11661727449E+03 -0.76796956959E+02 -0.35621588457E+03  0.40253508949E+03  0.12508949013E+03 0.  0.
          5    1    3    3  502    0 -0.11505094741E+03 -0.25059526822E+02 -0.15483410786E+03  0.19456560267E+03  0.41800000000E+01 0.  1.
         -5    1    3    3    0  502 -0.15663270852E+01 -0.51737430137E+02 -0.20138177671E+03  0.20796948682E+03  0.41800000000E+01 0.  1.
        -11    1    1    2    0    0  0.10518728355E+03  0.89204129039E+02 -0.41824065238E+03  0.44039412412E+03  0.00000000000E+00 0. -1.
         11    1    1    2    0    0  0.11429990939E+02 -0.12407172080E+02 -0.94286321632E+02  0.95783574055E+02  0.00000000000E+00 0.  1.
</event>
<event>
 7    1  0.5109948E-006  0.9576703E+02  0.7561462E-02  0.1289458E+00
         -2   -1    0    0    0  501 -0.00000000000E+00  0.00000000000E+00  0.12361308674E+03  0.12361308674E+03  0.00000000000E+00 0.  1.
          2   -1    0    0  501    0  0.00000000000E+00 -0.00000000000E+00 -0.11099991600E+03  0.11099991600E+03  0.00000000000E+00 0. -1.
         23    2    1    2    0    0 -0.30172385960E+02  0.24068603680E+02  0.33490981131E+02  0.13511712546E+03  0.12508125846E+03 0.  0.
          5    1    3    3  502    0 -0.63703681093E+02  0.14468630765E+02 -0.22329402602E+02  0.69163392640E+02  0.41800000000E+01 0. -1.
         -5    1    3    3    0  502  0.33531295132E+02  0.95999729156E+01  0.55820383733E+02  0.65953732823E+02  0.41800000000E+01 0. -1.
        -11    1    1    2    0    0  0.56283075772E+02 -0.30554857467E+02  0.21561379104E+01  0.64078333810E+02  0.00000000000E+00 0.  1.
         11    1    1    2    0    0 -0.26110689811E+02  0.64862537865E+01 -0.23033948305E+02  0.35417543465E+02  0.00000000000E+00 0. -1.
</event>
<event>
 6    1  0.5109948E-006  0.1679439E+03  0.7561462E-02  0.1180009E+00
         -1   -1    0    0    0  501 -0.00000000000E+00  0.00000000000E+00  0.10814493991E+03  0.10814493991E+03  0.00000000000E+00 0.  1.
          1   -1    0    0  501    0  0.00000000000E+00 -0.00000000000E+00 -0.49314226233E+03  0.49314226233E+03  0.00000000000E+00 0. -1.
          5    1    1    2  502    0  0.65097118846E+02 -0.11858483234E+03 -0.23578374823E+03  0.27186659536E+03  0.41800000000E+01 0. -1.
         -5    1    1    2    0  502  0.32260313664E+02  0.57817067431E+02  0.49621095654E+02  0.82844834830E+02  0.41800000000E+01 0.  1.
        -11    1    1    2    0    0 -0.49284705174E+02 -0.83770763603E+01 -0.12482050403E+03  0.13445934627E+03  0.00000000000E+00 0. -1.
         11    1    1    2    0    0 -0.48072727336E+02  0.69144841267E+02 -0.74014165818E+02  0.11211642578E+03  0.00000000000E+00 0.  1.
</event>
<event>
 7    1  0.5109948E-006  0.1091267E+03  0.7561462E-02  0.1262196E+00
          1   -1    0    0  501    0  0.00000000000E+00  0.00000000000E+00  0.13550772420E+03  0.13550772420E+03  0.00000000000E+00 0.  1.
         -1   -1    0    0    0  501 -0.00000000000E+00 -0.00000000000E+00 -0.13896457057E+03  0.13896457057E+03  0.00000000000E+00 0. -1.
         23    2    1    2    0    0  0.23728118406E+02  0.14847395865E+02 -0.79569316035E+02  0.15087036292E+03  0.12508845505E+03 0.  0.
          5    1    3    3  502    0  0.72429191280E+02  0.25227672531E+02 -0.37148614447E+02  0.85322418895E+02  0.41800000000E+01 0. -1.
         -5    1    3    3    0  502 -0.48701072874E+02 -0.10380276666E+02 -0.42420701588E+02  0.65547944025E+02  0.41800000000E+01 0. -1.
        -11    1    1    2    0    0 -0.29368580379E+02 -0.48853573016E+02  0.25691170467E+02  0.62523766280E+02  0.00000000000E+00 0. -1.
         11    1    1    2    0    0  0.56404619725E+01  0.34006177151E+02  0.50421299203E+02  0.61078165567E+02  0.00000000000E+00 0.  1.
</event>
<event>
 7    1  0.5109948E-006  0.1248740E+03  0.7561462E-02  0.1235266E+00
         -1   -1    0    0    0  501 -0.00000000000E+00  0.00000000000E+00  0.10081972027E+04  0.10081972027E+04  0.00000000000E+00 0.  1.
          1   -1    0    0  501    0  0.00000000000E+00 -0.00000000000E+00 -0.26684126721E+02  0.26684126721E+02  0.00000000000E+00 0. -1.
         23    2    1    2    0    0  0.96156236533E+02 -0.24706002409E+02  0.75166520333E+03  0.76857009624E+03  0.12586900558E+03 0.  0.
          5    1    3    3  502    0  0.29114597207E+02  0.29051362992E+02  0.68497672039E+02  0.80006530590E+02  0.41800000000E+01 0. -1.
         -5    1    3    3    0  502  0.67041639325E+02 -0.53757365401E+02  0.68316753129E+03  0.68856356565E+03  0.41800000000E+01 0. -1.
        -11    1    1    2    0    0 -0.10740089820E+03  0.27333631390E+02  0.22938552499E+03  0.25475439037E+03  0.00000000000E+00 0.  1.
         11    1    1    2    0    0  0.11244661669E+02 -0.26276289805E+01  0.46234765495E+00  0.11556842798E+02  0.00000000000E+00 0. -1.
</event>
<event>
 7    1  0.5109948E-006  0.6257200E+02  0.7561462E-02  0.1387345E+00
         -1   -1    0    0    0  501 -0.00000000000E+00  0.00000000000E+00  0.54035759932E+02  0.54035759932E+02  0.00000000000E+00 0.  1.
          1   -1    0    0  501    0  0.00000000000E+00 -0.00000000000E+00 -0.29407999251E+03  0.29407999251E+03  0.00000000000E+00 0. -1.
         23    2    1    2    0    0  0.33678098820E+02  0.15387360852E+02 -0.32746681172E+02  0.13683291422E+03  0.12759277437E+03 0.  0.
          5    1    3    3  502    0  0.23430181528E+02  0.46032627048E+02 -0.70158382364E+02  0.87221827402E+02  0.41800000000E+01 0. -1.
         -5    1    3    3    0  502  0.10247917292E+02 -0.30645266197E+02  0.37411701192E+02  0.49611086817E+02  0.41800000000E+01 0.  1.
        -11    1    1    2    0    0 -0.11396063682E+02 -0.14497393752E+02 -0.86413129351E+02  0.88358777817E+02  0.00000000000E+00 0. -1.
         11    1    1    2    0    0 -0.22282035138E+02 -0.88996709957E+00 -0.12088442206E+03  0.12292406041E+03  0.00000000000E+00 0.  1.
</event>
<event>
 7    1  0.5109948E-006  0.1173789E+03  0.7561462E-02  0.1247485E+00
         -1   -1    0    0    0  501 -0.00000000000E+00  0.00000000000E+00  0.39784523097E+02  0.39784523097E+02  0.00000000000E+00 0.  1.
          1   -1    0    0  501    0  0.00000000000E+00 -0.00000000000E+00 -0.42495749703E+03  0.42495749703E+03  0.00000000000E+00 0. -1.
         23    2    1    2    0    0  0.71439481057E+02 -0.31029551399E+02 -0.19387027020E+03  0.24351617142E+03  0.12509201237E+03 0.  0.
          5    1    3    3  502    0  0.90928188567E+02  0.18060387958E+02 -0.10573962387E+03  0.14068565508E+03  0.41800000000E+01 0. -1.
         -5    1    3    3    0  502 -0.19488707510E+02 -0.49089939357E+02 -0.88130646335E+02  0.10283051634E+03  0.41800000000E+01 0. -1.
        -11    1    1    2    0    0 -0.91772711144E+01  0.24752820108E+02 -0.80749915110E+01  0.27606700207E+02  0.00000000000E+00 0.  1.
         11    1    1    2    0    0 -0.62262209943E+02  0.62767312907E+01 -0.18322771222E+03  0.19361914850E+03  0.00000000000E+00 0. -1.
</event>
<event>
 7    1  0.5109948E-006  0.1587985E+03  0.7561462E-02  0.1190060E+00
          1   -1    0    0  501    0  0.00000000000E+00  0.00000000000E+00  0.34610561177E+03  0.34610561177E+03  0.00000000000E+00 0. -1.
         -1   -1    0    0    0  501 -0.00000000000E+00 -0.00000000000E+00 -0.90569385401E+02  0.90569385401E+02  0.00000000000E+00 0.  1.
         23    2    1    2    0    0  0.12251829085E+03 -0.57879195696E+02  0.10823531777E+03  0.21383228925E+03  0.12509448838E+03 0.  0.
          5    1    3    3  502    0  0.74221816818E+02  0.13185677743E+02  0.10292078331E+03  0.12764364546E+03  0.41800000000E+01 0.  1.
         -5    1    3    3    0  502  0.48296474033E+02 -0.71064873438E+02  0.53145344569E+01  0.86188643784E+02  0.41800000000E+01 0.  1.
        -11    1    1    2    0    0 -0.53937891462E+02 -0.15014675170E+02  0.16944131402E+02  0.58496497287E+02  0.00000000000E+00 0.  1.
         11    1    1    2    0    0 -0.68580399389E+02  0.72893870865E+02  0.13035677720E+03  0.16434621064E+03  0.00000000000E+00 0. -1.
</event>
<event>
 7    1  0.5109948E-006  0.1050418E+03  0.7561462E-02  0.1270037E+00
         -3   -1    0    0    0  501 -0.00000000000E+00  0.00000000000E+00  0.44610364415E+03  0.44610364415E+03  0.00000000000E+00 0.  1.
          3   -1    0    0  501    0  0.00000000000E+00 -0.00000000000E+00 -0.31617291438E+02  0.31617291438E+02  0.00000000000E+00 0. -1.
         23    2    1    2    0    0  0.27144572831E+02  0.20761229351E+02  0.31053640008E+03  0.33652414918E+03  0.12509112970E+03 0.  0.
          5    1    3    3  502    0  0.32920934661E+01 -0.46933433178E+02  0.19339251264E+03  0.19907717442E+03  0.41800000000E+01 0. -1.
         -5    1    3    3    0  502  0.23852479364E+02  0.67694662529E+02  0.11714388744E+03  0.13744697476E+03  0.41800000000E+01 0. -1.
        -11    1    1    2    0    0  0.28979343150E+02  0.46416033151E+01  0.55649750239E+02  0.62914557238E+02  0.00000000000E+00 0.  1.
         11    1    1    2    0    0 -0.56123915981E+02 -0.25402832666E+02  0.48300202390E+02  0.78282229167E+02  0.00000000000E+00 0. -1.
</event>
<event>
 7    1  0.5109948E-006  0.1061494E+03  0.7561462E-02  0.1267871E+00
         -1   -1    0    0    0  501 -0.00000000000E+00  0.00000000000E+00  0.59752367191E+02  0.59752367191E+02  0.00000000000E+00 0.  1.
          1   -1    0    0  501    0  0.00000000000E+00 -0.00000000000E+00 -0.38078914641E+03  0.38078914641E+03  0.00000000000E+00 0. -1.
         23    2    1    2    0    0 -0.82567911110E+02  0.23411884115E+02 -0.63188714336E+02  0.15382439632E+03  0.11092139117E+03 0.  0.
          5    1    3    3  502    0 -0.77029721144E+02  0.14894282826E+02 -0.93180906883E+02  0.12188343369E+03  0.41800000000E+01 0. -1.
         -5    1    3    3    0  502 -0.55381899653E+01  0.85176012891E+01  0.29992192547E+02  0.31940962628E+02  0.41800000000E+01 0.  1.
        -11    1    1    2    0    0 -0.12625529644E+01 -0.37686724024E+02 -0.54190785233E+02  0.66019121562E+02  0.00000000000E+00 0. -1.
         11    1    1    2    0    0  0.83830464074E+02  0.14274839909E+02 -0.20365727965E+03  0.22069799572E+03  0.00000000000E+00 0.  1.
</event>
<event>
 7    1  0.5109948E-006  0.1161482E+03  0.7561462E-02  0.1249590E+00
         -2   -1    0    0    0  501 -0.00000000000E+00  0.00000000000E+00  0.97897379438E+02  0.97897379438E+02  0.00000000000E+00 0.  1.
          2   -1    0    0  501    0  0.00000000000E+00 -0.00000000000E+00 -0.21667055354E+03  0.21667055354E+03  0.00000000000E+00 0. -1.
         23    2    1    2    0    0  0.67972947130E+02  0.13041105499E+02  0.71903268720E+01  0.14314246166E+03  0.12509065335E+03 0.  0.
          5    1    3    3  502    0  0.63339374339E+02 -0.37074270985E+02  0.39240357060E+02  0.83328602130E+02  0.41800000000E+01 0.  1.
         -5    1    3    3    0  502  0.46335727919E+01  0.50115376484E+02 -0.32050030188E+02  0.59813859531E+02  0.41800000000E+01 0.  1.
        -11    1    1    2    0    0 -0.62600869812E+02 -0.44220613946E+02 -0.56889533607E+02  0.95450252137E+02  0.00000000000E+00 0.  1.
         11    1    1    2    0    0 -0.53720773188E+01  0.31179508447E+02 -0.69073967367E+02  0.75975219180E+02  0.00000000000E+00 0. -1.
</event>
<event>
 7    1  0.5109948E-006  0.1676767E+03  0.7561462E-02  0.1180293E+00
         -2   -1    0    0    0  501 -0.00000000000E+00  0.00000000000E+00  0.27821118644E+03  0.27821118644E+03  0.00000000000E+00 0.  1.
          2   -1    0    0  501    0  0.00000000000E+00 -0.00000000000E+00 -0.14295865867E+03  0.14295865867E+03  0.00000000000E+00 0. -1.
         23    2    1    2    0    0  0.99984252691E+02  0.13155879826E+03  0.94335876311E+02  0.22771290872E+03  0.12509733433E+03 0.  0.
          5    1    3    3  502    0  0.21155358280E+02  0.52467711968E+02  0.10092461994E+03  0.11577418233E+03  0.41800000000E+01 0. -1.
         -5    1    3    3    0  502  0.78828894411E+02  0.79091086289E+02 -0.65887436327E+01  0.11193872640E+03  0.41800000000E+01 0. -1.
        -11    1    1    2    0    0 -0.75123253914E+02 -0.80591388711E+02  0.69182808618E+02  0.13009510452E+03  0.00000000000E+00 0.  1.
         11    1    1    2    0    0 -0.24860998777E+02 -0.50967409545E+02 -0.28266157155E+02  0.63361831856E+02  0.00000000000E+00 0. -1.
</event>
<event>
 7    1  0.5109948E-006  0.8278130E+02  0.7561462E-02  0.1321339E+00
         -1   -1    0    0    0  501 -0.00000000000E+00  0.00000000000E+00  0.33834947713E+02  0.33834947713E+02  0.00000000000E+00 0.  1.
          1   -1    0    0  501    0  0.00000000000E+00 -0.00000000000E+00 -0.44907231361E+03  0.44907231361E+03  0.00000000000E+00 0. -1.
         23    2    1    2    0    0  0.34757087241E+02 -0.35516991493E+02 -0.17347578519E+03  0.21957086750E+03  0.12509199019E+03 0.  0.
          5    1    3    3  502    0  0.57934914865E+02 -0.68526628504E+00 -0.21589024866E+02  0.61971625321E+02  0.41800000000E+01 0.  1.
         -5    1    3    3    0  502 -0.23177827624E+02 -0.34831725208E+02 -0.15188676032E+03  0.15759924218E+03  0.41800000000E+01 0.  1.
        -11    1    1    2    0    0 -0.44555862000E+02  0.32580085911E+02 -0.24610804995E+03  0.25222184499E+03  0.00000000000E+00 0. -1.
         11    1    1    2    0    0  0.97987747595E+01  0.29369055822E+01  0.43464692361E+01  0.11114548844E+02  0.00000000000E+00 0.  1.
</event>
<event>
 7    1  0.5109948E-006  0.4214323E+02  0.7561462E-02  0.1493007E+00
          1   -1    0    0  501    0  0.00000000000E+00  0.00000000000E+00  0.39962324706E+03  0.39962324706E+03  0.00000000000E+00 0. -1.
         -1   -1    0    0    0  501 -0.00000000000E+00 -0.00000000000E+00 -0.30192344671E+02  0.30192344671E+02  0.00000000000E+00 0.  1.
         23    2    1    2    0    0 -0.15643360978E+02 -0.21451692638E+01  0.20610785037E+03  0.24161503095E+03  0.12509220881E+03 0.  0.
          5    1    3    3  502    0 -0.55434880343E+01 -0.10038515251E+02 -0.15426328932E+02  0.19670944877E+02  0.41800000000E+01 0.  1.
         -5    1    3    3    0  502 -0.10099872944E+02  0.78933459867E+01  0.22153417930E+03  0.22194408608E+03  0.41800000000E+01 0.  1.
        -11    1    1    2    0    0  0.11931881246E+02  0.29067542093E+02  0.10724718683E+02  0.33201075046E+02  0.00000000000E+00 0.  1.
         11    1    1    2    0    0  0.37114797324E+01 -0.26922372829E+02  0.15259833334E+03  0.15499948573E+03  0.00000000000E+00 0. -1.
</event>
<event>
 7    1  0.5109948E-006  0.1262246E+03  0.7561462E-02  0.1233168E+00
          2   -1    0    0  501    0  0.00000000000E+00  0.00000000000E+00  0.74290387663E+02  0.74290387663E+02  0.00000000000E+00 0. -1.
         -2   -1    0    0    0  501 -0.00000000000E+00 -0.00000000000E+00 -0.36389250680E+03  0.36389250680E+03  0.00000000000E+00 0.  1.
         23    2    1    2    0    0  0.89424098131E+02 -0.48877371898E+02 -0.24756448792E+03  0.29550082425E+03  0.12508754792E+03 0.  0.
          5    1    3    3  502    0  0.60982484915E+02  0.25359664849E+02 -0.51386403503E+02  0.83785505504E+02  0.41800000000E+01 0.  1.
         -5    1    3    3    0  502  0.28441613217E+02 -0.74237036747E+02 -0.19617808441E+03  0.21171531875E+03  0.41800000000E+01 0.  1.
        -11    1    1    2    0    0 -0.48028725742E+02  0.43720352251E+02 -0.67610698445E+02  0.93751982600E+02  0.00000000000E+00 0.  1.
         11    1    1    2    0    0 -0.41395372389E+02  0.51570196466E+01  0.25573067221E+02  0.48930087615E+02  0.00000000000E+00 0. -1.
</event>
<event>
 7    1  0.5109948E-006  0.7679763E+02  0.7561462E-02  0.1338393E+00
         -2   -1    0    0    0  501 -0.00000000000E+00  0.00000000000E+00  0.69893747395E+02  0.69893747395E+02  0.00000000000E+00 0.  1.
          2   -1    0    0  501    0  0.00000000000E+00 -0.00000000000E+00 -0.24616257656E+03  0.24616257656E+03  0.00000000000E+00 0. -1.
         23    2    1    2    0    0 -0.11934376234E+02 -0.13654674568E+02 -0.11567858602E+02  0.12692671887E+03  0.12509075560E+03 0.  0.
          5    1    3    3  502    0  0.39232396102E+02  0.22093949686E+02  0.27734773115E+02  0.53047276616E+02  0.41800000000E+01 0. -1.
         -5    1    3    3    0  502 -0.51166772336E+02 -0.35748624253E+02 -0.39302631717E+02  0.73879442250E+02  0.41800000000E+01 0. -1.
        -11    1    1    2    0    0 -0.98770652065E+01 -0.97129399078E+01  0.62631992563E+01  0.15202805125E+02  0.00000000000E+00 0.  1.
         11    1    1    2    0    0  0.21811441440E+02  0.23367614475E+02 -0.17096416982E+03  0.17392679996E+03  0.00000000000E+00 0. -1.
</event>
<event>
 7    1  0.5109948E-006  0.1228564E+03  0.7561462E-02  0.1238458E+00
         -1   -1    0    0    0  501 -0.00000000000E+00  0.00000000000E+00  0.23669890617E+02  0.23669890617E+02  0.00000000000E+00 0.  1.
          1   -1    0    0  501    0  0.00000000000E+00 -0.00000000000E+00 -0.95823267622E+03  0.95823267622E+03  0.00000000000E+00 0. -1.
         23    2    1    2    0    0  0.82047777967E+02  0.57621740128E+02 -0.41235700027E+03  0.44242265702E+03  0.12508960377E+03 0.  0.
          5    1    3    3  502    0  0.37302800655E+02 -0.54170509211E+00 -0.32962498954E+03  0.33175578143E+03  0.41800000000E+01 0. -1.
         -5    1    3    3    0  502  0.44744977312E+02  0.58163445220E+02 -0.82732010726E+02  0.11066687559E+03  0.41800000000E+01 0. -1.
        -11    1    1    2    0    0 -0.33841552628E+02 -0.75909949799E+02 -0.34923524388E+03  0.35898861644E+03  0.00000000000E+00 0.  1.
         11    1    1    2    0    0 -0.48206225339E+02  0.18288209671E+02 -0.17297054146E+03  0.18049129338E+03  0.00000000000E+00 0. -1.
</event>
<event>
 6    1  0.5109948E-006  0.2516961E+03  0.7561462E-02  0.1112238E+00
         -2   -1    0    0    0  501 -0.00000000000E+00  0.00000000000E+00  0.84506679860E+02  0.84506679860E+02  0.00000000000E+00 0.  1.
          2   -1    0    0  501    0  0.00000000000E+00 -0.00000000000E+00 -0.16653578426E+04  0.16653578426E+04  0.00000000000E+00 0. -1.
          5    1    1    2  502    0 -0.14744544536E+03 -0.69219106691E+02 -0.11215846216E+04  0.11333582752E+04  0.41800000000E+01 0. -1.
         -5    1    1    2    0  502  0.20929974393E+03  0.89267368982E+02 -0.11663617876E+03  0.25572742631E+03  0.41800000000E+01 0.  1.
        -11    1    1    2    0    0  0.23569445499E+02 -0.13589825093E+02 -0.89620772866E+02  0.93659409758E+02  0.00000000000E+00 0.  1.
         11    1    1    2    0    0 -0.85423744074E+02 -0.64584371986E+01 -0.25300958956E+03  0.26711941126E+03  0.00000000000E+00 0. -1.
</event>
<event>
 7    1  0.5109948E-006  0.1192615E+03  0.7561462E-02  0.1244320E+00
          1   -1    0    0  501    0  0.00000000000E+00  0.00000000000E+00  0.69546348531E+03  0.69546348531E+03  0.00000000000E+00 0. -1.
         -1   -1    0    0    0  501 -0.00000000000E+00 -0.00000000000E+00 -0.28879163315E+02  0.28879163315E+02  0.00000000000E+00 0.  1.
         23    2    1    2    0    0 -0.21076602579E+02  0.82119409959E+02  0.27889139069E+03  0.31719262354E+03  0.12507170727E+03 0.  0.
          5    1    3    3  502    0  0.28656625675E+02  0.58544959595E+02  0.24234834579E+03  0.25099583183E+03  0.41800000000E+01 0. -1.
         -5    1    3    3    0  502 -0.49733228255E+02  0.23574450364E+02  0.36543044903E+02  0.66196791715E+02  0.41800000000E+01 0. -1.
        -11    1    1    2    0    0  0.49408855575E+02 -0.27665114659E+02  0.12264183159E+03  0.13508372379E+03  0.00000000000E+00 0. -1.
         11    1    1    2    0    0 -0.28332252995E+02 -0.54454295300E+02  0.26505109972E+03  0.27206630129E+03  0.00000000000E+00 0.  1.
</event>
<event>
 7    1  0.5109948E-006  0.1492294E+03  0.7561462E-02  0.1201423E+00
          1   -1    0    0  501    0  0.00000000000E+00  0.00000000000E+00  0.71591870782E+02  0.71591870782E+02  0.00000000000E+00 0. -1.
         -1   -1    0    0    0  501 -0.00000000000E+00 -0.00000000000E+00 -0.44276915026E+03  0.44276915026E+03  0.00000000000E+00 0.  1.
         23    2    1    2    0    0 -0.23941084467E+02  0.12681534674E+03 -0.27852048511E+03  0.33147571636E+03  0.12508869738E+03 0.  0.
          5    1    3    3  502    0 -0.18559680094E+02  0.14085767803E+03 -0.16889634904E+03  0.22074599952E+03  0.41800000000E+01 0. -1.
         -5    1    3    3    0  502 -0.53814043727E+01 -0.14042331289E+02 -0.10962413607E+03  0.11072971683E+03  0.41800000000E+01 0. -1.
        -11    1    1    2    0    0  0.35486770523E+02 -0.12379320217E+03 -0.49262735798E+02  0.13787996563E+03  0.00000000000E+00 0. -1.
         11    1    1    2    0    0 -0.11545686056E+02 -0.30221445735E+01 -0.43394058570E+02  0.45005339055E+02  0.00000000000E+00 0.  1.
</event>
<event>
 7    1  0.5109948E-006  0.1287325E+03  0.7561462E-02  0.1229349E+00
         -2   -1    0    0    0  501 -0.00000000000E+00  0.00000000000E+00  0.44210968114E+02  0.44210968114E+02  0.00000000000E+00 0.  1.
          2   -1    0    0  501    0  0.00000000000E+00 -0.00000000000E+00 -0.40774679548E+03  0.40774679548E+03  0.00000000000E+00 0. -1.
         23    2    1    2    0    0 -0.68429934488E+01 -0.66111571028E+02 -0.20932492503E+03  0.25274684163E+03  0.12508587183E+03 0.  0.
          5    1    3    3  502    0 -0.33478377485E+02  0.21562957677E+02 -0.11231028766E+03  0.11923437431E+03  0.41800000000E+01 0. -1.
         -5    1    3    3    0  502  0.26635384036E+02 -0.87674528704E+02 -0.97014637374E+02  0.13351246732E+03  0.41800000000E+01 0. -1.
        -11    1    1    2    0    0 -0.28120388838E+02 -0.18829688260E+02 -0.34600832904E+02  0.48399701095E+02  0.00000000000E+00 0.  1.
         11    1    1    2    0    0  0.34963382287E+02  0.84941259288E+02 -0.11961006943E+03  0.15081122086E+03  0.00000000000E+00 0. -1.
</event>
<event>
 7    1  0.5109948E-006  0.1375345E+03  0.7561462E-02  0.1216686E+00
         -1   -1    0    0    0  501 -0.00000000000E+00  0.00000000000E+00  0.15244143018E+03  0.15244143018E+03  0.00000000000E+00 0.  1.
          1   -1    0    0  501    0  0.00000000000E+00 -0.00000000000E+00 -0.22438883892E+03  0.22438883892E+03  0.00000000000E+00 0. -1.
         23    2    1    2    0    0  0.11574536098E+03 -0.65600211290E+02  0.33128857240E+02  0.18559417734E+03  0.12508917288E+03 0.  0.
          5    1    3    3  502    0  0.23238735593E+02  0.59624403218E+01  0.60662587188E+02  0.65368275263E+02  0.41800000000E+01 0. -1.
         -5    1    3    3    0  502  0.92506625384E+02 -0.71562651612E+02 -0.27533729948E+02  0.12022590208E+03  0.41800000000E+01 0. -1.
        -11    1    1    2    0    0 -0.31399814587E+02  0.11293621643E+02 -0.81671740107E+02  0.88225661675E+02  0.00000000000E+00 0. -1.
         11    1    1    2    0    0 -0.84345546390E+02  0.54306589647E+02 -0.23404525866E+02  0.10301043008E+03  0.00000000000E+00 0.  1.
</event>
<event>
 7    1  0.5109948E-006  0.1317382E+03  0.7561462E-02  0.1224899E+00
         -1   -1    0    0    0  501 -0.00000000000E+00  0.00000000000E+00  0.73109448393E+02  0.73109448393E+02  0.00000000000E+00 0.  1.
          1   -1    0    0  501    0  0.00000000000E+00 -0.00000000000E+00 -0.38133779991E+03  0.38133779991E+03  0.00000000000E+00 0. -1.
         23    2    1    2    0    0  0.51845476612E+02 -0.98401271451E+02 -0.82693039370E+02  0.18669818183E+03  0.12508920285E+03 0.  0.
          5    1    3    3  502    0  0.43621665369E+02 -0.10109540477E+03 -0.70097578732E+01  0.11040715402E+03  0.41800000000E+01 0. -1.
         -5    1    3    3    0  502  0.82238112427E+01  0.26941333152E+01 -0.75683281497E+02  0.76291027807E+02  0.41800000000E+01 0. -1.
        -11    1    1    2    0    0 -0.77504274985E+02  0.62561559191E+02 -0.16742990002E+03  0.19481692111E+03  0.00000000000E+00 0. -1.
         11    1    1    2    0    0  0.25658798373E+02  0.35839712260E+02 -0.58105412130E+02  0.72932145366E+02  0.00000000000E+00 0.  1.
</event>
<event>
 7    1  0.5109948E-006  0.1003333E+03  0.7561462E-02  0.1279597E+00
          1   -1    0    0  501    0  0.00000000000E+00  0.00000000000E+00  0.16951658339E+03  0.16951658339E+03  0.00000000000E+00 0. -1.
         -1   -1    0    0    0  501 -0.00000000000E+00 -0.00000000000E+00 -0.74213887013E+02  0.74213887013E+02  0.00000000000E+00 0.  1.
         23    2    1    2    0    0 -0.18681540430E+02 -0.50234736649E+00  0.31290441910E+02  0.13029109386E+03  0.12508966815E+03 0.  0.
          5    1    3    3  502    0 -0.48595913420E+02  0.44154419755E+02 -0.39032425457E+01  0.65908142800E+02  0.41800000000E+01 0. -1.
         -5    1    3    3    0  502  0.29914372990E+02 -0.44656767122E+02  0.35193684455E+02  0.64382951056E+02  0.41800000000E+01 0. -1.
        -11    1    1    2    0    0 -0.13615640329E+02 -0.32223717297E+02  0.44350583081E+00  0.34985001293E+02  0.00000000000E+00 0.  1.
         11    1    1    2    0    0  0.32297180759E+02  0.32726064664E+02  0.63568748641E+02  0.78454375258E+02  0.00000000000E+00 0. -1.
</event>
<event>
 7    1  0.5109948E-006  0.5932203E+02  0.7561462E-02  0.1400699E+00
         -1   -1    0    0    0  501 -0.00000000000E+00  0.00000000000E+00  0.30640962988E+03  0.30640962988E+03  0.00000000000E+00 0.  1.
          1   -1    0    0  501    0  0.00000000000E+00 -0.00000000000E+00 -0.45286777592E+02  0.45286777592E+02  0.00000000000E+00 0. -1.
         23    2    1    2    0    0  0.22124906461E+02  0.22111500019E+02  0.20009413118E+03  0.23804172748E+03  0.12509105793E+03 0.  0.
          5    1    3    3  502    0  0.30749211421E+01  0.89678421534E+01 -0.16874859876E+02  0.19801783474E+02  0.41800000000E+01 0.  1.
         -5    1    3    3    0  502  0.19049985319E+02  0.13143657866E+02  0.21696899105E+03  0.21823994401E+03  0.41800000000E+01 0.  1.
        -11    1    1    2    0    0 -0.24640836798E+01  0.29464870532E+02 -0.22885841000E+01  0.29656161603E+02  0.00000000000E+00 0. -1.
         11    1    1    2    0    0 -0.19660822781E+02 -0.51576370551E+02  0.63317305208E+02  0.83998518382E+02  0.00000000000E+00 0.  1.
</event>
<event>
 7    1  0.5109948E-006  0.1158591E+03  0.7561462E-02  0.1250089E+00
         -1   -1    0    0    0  501 -0.00000000000E+00  0.00000000000E+00  0.18511201530E+02  0.18511201530E+02  0.00000000000E+00 0.  1.
          1   -1    0    0  501    0  0.00000000000E+00 -0.00000000000E+00 -0.12716997944E+04  0.12716997944E+04  0.00000000000E+00 0. -1.
         23    2    1    2    0    0  0.64652395747E+02  0.72147053755E+02 -0.87930294261E+03  0.89342369590E+03  0.12508839224E+03 0.  0.
          5    1    3    3  502    0  0.59020692931E+02  0.15099504306E+00 -0.16172469482E+03  0.17220863599E+03  0.41800000000E+01 0. -1.
         -5    1    3    3    0  502  0.56317028167E+01  0.71996058712E+02 -0.71757824779E+03  0.72121505991E+03  0.41800000000E+01 0. -1.
        -11    1    1    2    0    0 -0.27445065341E+02 -0.49656220366E+02 -0.33061377113E+03  0.33544662391E+03  0.00000000000E+00 0. -1.
         11    1    1    2    0    0 -0.37207330406E+02 -0.22490833389E+02 -0.43271879111E+02  0.61340676099E+02  0.00000000000E+00 0.  1.
</event>
<event>
 7    1  0.5109948E-006  0.1495187E+03  0.7561462E-02  0.1201066E+00
          2   -1    0    0  501    0  0.00000000000E+00  0.00000000000E+00  0.87120055716E+03  0.87120055716E+03  0.00000000000E+00 0. -1.
         -2   -1    0    0    0  501 -0.00000000000E+00 -0.00000000000E+00 -0.30105587035E+02  0.30105587035E+02  0.00000000000E+00 0.  1.
         23    2    1    2    0    0  0.10434611595E+03 -0.16159593778E+02  0.28766588862E+03  0.33098085941E+03  0.12508965359E+03 0.  0.
          5    1    3    3  502    0 -0.13758787976E+02 -0.38423169838E+02  0.50466955134E+02  0.65038682240E+02  0.41800000000E+01 0.  1.
         -5    1    3    3    0  502  0.11810490392E+03  0.22263576060E+02  0.23719893349E+03  0.26594217717E+03  0.41800000000E+01 0.  1.
        -11    1    1    2    0    0 -0.89170489762E+02  0.48877690122E+02  0.41449478960E+03  0.42678605348E+03  0.00000000000E+00 0. -1.
         11    1    1    2    0    0 -0.15175626186E+02 -0.32718096343E+02  0.13893429190E+03  0.14353923131E+03  0.00000000000E+00 0.  1.
</event>
<event>
 7    1  0.5109948E-006  0.1335929E+03  0.7561462E-02  0.1222220E+00
          2   -1    0    0  501    0  0.00000000000E+00  0.00000000000E+00  0.15197591127E+03  0.15197591127E+03  0.00000000000E+00 0. -1.
         -2   -1    0    0    0  501 -0.00000000000E+00 -0.00000000000E+00 -0.16076577651E+03  0.16076577651E+03  0.00000000000E+00 0.  1.
         23    2    1    2    0    0 -0.99178978150E+02 -0.53806274221E+02 -0.20400758239E+02  0.16969126720E+03  0.12508936955E+03 0.  0.
          5    1    3    3  502    0 -0.69582881170E+02  0.21692485700E+02 -0.43863410481E+02  0.85169316463E+02  0.41800000000E+01 0.  1.
         -5    1    3    3    0  502 -0.29596096981E+02 -0.75498759921E+02  0.23462652242E+02  0.84521950736E+02  0.41800000000E+01 0.  1.
        -11    1    1    2    0    0  0.58913664544E+02  0.35148214191E+02 -0.36408627253E+02  0.77664695772E+02  0.00000000000E+00 0.  1.
         11    1    1    2    0    0  0.40265313606E+02  0.18658060030E+02  0.48019520247E+02  0.65385724807E+02  0.00000000000E+00 0. -1.
</event>
<event>
 7    1  0.5109948E-006  0.7603595E+02  0.7561462E-02  0.1340693E+00
         -1   -1    0    0    0  501 -0.00000000000E+00  0.00000000000E+00  0.48798857623E+02  0.48798857623E+02  0.00000000000E+00 0.  1.
          1   -1    0    0  501    0  0.00000000000E+00 -0.00000000000E+00 -0.29500479959E+03  0.29500479959E+03  0.00000000000E+00 0. -1.
         23    2    1    2    0    0 -0.87316465343E+01 -0.47205314831E+02 -0.11157068373E+03  0.17403522066E+03  0.12464211633E+03 0.  0.
          5    1    3    3  502    0 -0.55258383314E+01 -0.44640899369E+02 -0.13891204446E+03  0.14607317783E+03  0.41800000000E+01 0. -1.
         -5    1    3    3    0  502 -0.32058082029E+01 -0.25644154628E+01  0.27341360727E+02  0.27962042832E+02  0.41800000000E+01 0. -1.
        -11    1    1    2    0    0  0.35142667879E+02  0.61629081677E+02 -0.10992300236E+03  0.13082896186E+03  0.00000000000E+00 0.  1.
         11    1    1    2    0    0 -0.26411021345E+02 -0.14423766846E+02 -0.24712255872E+02  0.38939474686E+02  0.00000000000E+00 0. -1.
</event>
<event>
 7    1  0.5109948E-006  0.3297695E+03  0.7561462E-02  0.1071239E+00
         -1   -1    0    0    0  501 -0.00000000000E+00  0.00000000000E+00  0.41857680991E+03  0.41857680991E+03  0.00000000000E+00 0.  1.
          1   -1    0    0  501    0  0.00000000000E+00 -0.00000000000E+00 -0.40240388370E+03  0.40240388370E+03  0.00000000000E+00 0. -1.
         23    2    1    2    0    0 -0.17585267173E+03 -0.27848596088E+03  0.22704895286E+03  0.41913917824E+03  0.12509129138E+03 0.  0.
          5    1    3    3  502    0 -0.73087785708E+02 -0.13591345791E+03  0.18004311994E+03  0.23716511105E+03  0.41800000000E+01 0.  1.
         -5    1    3    3    0  502 -0.10276488602E+03 -0.14257250297E+03  0.47005832921E+02  0.18197406719E+03  0.41800000000E+01 0.  1.
        -11    1    1    2    0    0  0.36266721928E+02  0.56151033470E+02 -0.91848862078E+02  0.11359765466E+03  0.00000000000E+00 0.  1.
         11    1    1    2    0    0  0.13958594980E+03  0.22233492742E+03 -0.11902716457E+03  0.28824386071E+03  0.00000000000E+00 0. -1.
</event>
<event>
 7    1  0.5109948E-006  0.1168948E+03  0.7561462E-02  0.1248309E+00
          2   -1    0    0  501    0  0.00000000000E+00  0.00000000000E+00  0.10182095781E+04  0.10182095781E+04  0.00000000000E+00 0. -1.
         -2   -1    0    0    0  501 -0.00000000000E+00 -0.00000000000E+00 -0.14585267231E+02  0.14585267231E+02  0.00000000000E+00 0.  1.
         23    2    1    2    0    0  0.48661254593E+01 -0.58207184025E+02  0.64653147923E+03  0.66110633239E+03  0.12508746401E+03 0.  0.
          5    1    3    3  502    0 -0.49885325295E+02  0.68961883371E+01  0.18473431221E+03  0.19152112573E+03  0.41800000000E+01 0. -1.
         -5    1    3    3    0  502  0.54751450755E+02 -0.65103372362E+02  0.46179716702E+03  0.46958520666E+03  0.41800000000E+01 0. -1.
        -11    1    1    2    0    0 -0.41734017500E+02  0.35487108987E+02  0.25451237976E+03  0.26034134242E+03  0.00000000000E+00 0. -1.
         11    1    1    2    0    0  0.36867892040E+02  0.22720075038E+02  0.10258045183E+03  0.11134717047E+03  0.00000000000E+00 0.  1.
</event>
<event>
 7    1  0.5109948E-006  0.2413974E+03  0.7561462E-02  0.1118865E+00
         -2   -1    0    0    0  501 -0.00000000000E+00  0.00000000000E+00  0.89444601399E+02  0.89444601399E+02  0.00000000000E+00 0.  1.
          2   -1    0    0  501    0  0.00000000000E+00 -0.00000000000E+00 -0.87629811766E+03  0.87629811766E+03  0.00000000000E+00 0. -1.
         23    2    1    2    0    0  0.36568412459E+02 -0.23279298963E+03 -0.20778210348E+03  0.33815783338E+03  0.12508993940E+03 0.  0.
          5    1    3    3  502    0  0.50826469686E+02 -0.20874050231E+03 -0.12039112905E+03  0.24630757942E+03  0.41800000000E+01 0. -1.
         -5    1    3    3    0  502 -0.14258057227E+02 -0.24052487326E+02 -0.87390974422E+02  0.91850253962E+02  0.41800000000E+01 0. -1.
        -11    1    1    2    0    0 -0.43190054636E+02  0.13757379027E+03 -0.30498441089E+03  0.33735355263E+03  0.00000000000E+00 0.  1.
         11    1    1    2    0    0  0.66216421768E+01  0.95219199360E+02 -0.27408700190E+03  0.29023133305E+03  0.00000000000E+00 0. -1.
</event>
<event>
 6    1  0.5109948E-006  0.1893889E+03  0.7561462E-02  0.1159014E+00
          1   -1    0    0  501    0  0.00000000000E+00  0.00000000000E+00  0.15446354336E+03  0.15446354336E+03  0.00000000000E+00 0. -1.
         -1   -1    0    0    0  501 -0.00000000000E+00 -0.00000000000E+00 -0.33857620365E+03  0.33857620365E+03  0.00000000000E+00 0.  1.
          5    1    1    2  502    0 -0.37912961027E+02 -0.49791789036E+02 -0.40243196924E+02  0.74522494375E+02  0.41800000000E+01 0. -1.
         -5    1    1    2    0  502 -0.66404175421E+02  0.14597083463E+03 -0.18615529291E+03  0.24574023797E+03  0.41800000000E+01 0.  1.
        -11    1    1    2    0    0 -0.89993640838E+01 -0.60078480381E+01 -0.13751100980E+02  0.17497873303E+02  0.00000000000E+00 0.  1.
         11    1    1    2    0    0  0.11331650053E+03 -0.90171197561E+02  0.56036930522E+02  0.15527914137E+03  0.00000000000E+00 0. -1.
</event>
<event>
 7    1  0.5109948E-006  0.1059229E+03  0.7561462E-02  0.1268312E+00
         -1   -1    0    0    0  501 -0.00000000000E+00  0.00000000000E+00  0.84210620971E+03  0.84210620971E+03  0.00000000000E+00 0.  1.
          1   -1    0    0  501    0  0.00000000000E+00 -0.00000000000E+00 -0.25053492222E+02  0.25053492222E+02  0.00000000000E+00 0. -1.
         23    2    1    2    0    0  0.57503103510E+02 -0.41585098870E+02  0.63561481000E+03  0.65167642460E+03  0.12506017884E+03 0.  0.
          5    1    3    3  502    0  0.72511657622E+02 -0.41962476665E+02  0.62929247729E+03  0.63485847581E+03  0.41800000000E+01 0.  1.
         -5    1    3    3    0  502 -0.15008554112E+02  0.37737779562E+00  0.63223327058E+01  0.16817948786E+02  0.41800000000E+01 0.  1.
        -11    1    1    2    0    0 -0.73814694783E+01  0.58892505095E+02  0.67972235314E+02  0.90238783356E+02  0.00000000000E+00 0.  1.
         11    1    1    2    0    0 -0.50121634032E+02 -0.17307406225E+02  0.11346567218E+03  0.12524449397E+03  0.00000000000E+00 0. -1.
</event>
<event>
 7    1  0.5109948E-006  0.1023767E+03  0.7561462E-02  0.1275376E+00
         -2   -1    0    0    0  501 -0.00000000000E+00  0.00000000000E+00  0.83504400177E+03  0.83504400177E+03  0.00000000000E+00 0.  1.
          2   -1    0    0  501    0  0.00000000000E+00 -0.00000000000E+00 -0.24496000567E+02  0.24496000567E+02  0.00000000000E+00 0. -1.
         23    2    1    2    0    0  0.32902191339E+02  0.59769389299E+02  0.63471001728E+03  0.65050842165E+03  0.12509782774E+03 0.  0.
          5    1    3    3  502    0  0.49745794476E+02  0.80705981893E+02  0.59411738484E+03  0.60164860089E+03  0.41800000000E+01 0.  1.
         -5    1    3    3    0  502 -0.16843603137E+02 -0.20936592594E+02  0.40592632437E+02  0.48859820756E+02  0.41800000000E+01 0.  1.
        -11    1    1    2    0    0 -0.41534289451E+02 -0.28878513190E+02  0.28132073791E+02  0.57883324888E+02  0.00000000000E+00 0. -1.
         11    1    1    2    0    0  0.86320981121E+01 -0.30890876109E+02  0.14770591013E+03  0.15114825580E+03  0.00000000000E+00 0.  1.
</event>
<event>
 7    1  0.5109948E-006  0.8567822E+02  0.7561462E-02  0.1313668E+00
          1   -1    0    0  501    0  0.00000000000E+00  0.00000000000E+00  0.39305308147E+03  0.39305308147E+03  0.00000000000E+00 0. -1.
         -1   -1    0    0    0  501 -0.00000000000E+00 -0.00000000000E+00 -0.43530916240E+02  0.43530916240E+02  0.00000000000E+00 0.  1.
         23    2    1    2    0    0 -0.67794811263E+02 -0.11070514260E+02  0.15119542193E+03  0.20790813025E+03  0.12508813810E+03 0.  0.
          5    1    3    3  502    0  0.20810755063E+01 -0.77568845368E+01 -0.20527865770E+02  0.22435815253E+02  0.41800000000E+01 0.  1.
         -5    1    3    3    0  502 -0.69875886770E+02 -0.33136297236E+01  0.17172328770E+03  0.18547231500E+03  0.41800000000E+01 0.  1.
        -11    1    1    2    0    0  0.62397492222E+02  0.32339622354E+02  0.19396285665E+03  0.20630290345E+03  0.00000000000E+00 0. -1.
         11    1    1    2    0    0  0.53973190416E+01 -0.21269108093E+02  0.43638866496E+01  0.22372964010E+02  0.00000000000E+00 0.  1.
</event>
<event>
 7    1  0.5109948E-006  0.8553684E+02  0.7561462E-02  0.1314035E+00
         -1   -1    0    0    0  501 -0.00000000000E+00  0.00000000000E+00  0.31780487724E+03  0.31780487724E+03  0.00000000000E+00 0.  1.
          1   -1    0    0  501    0  0.00000000000E+00 -0.00000000000E+00 -0.64949749955E+02  0.64949749955E+02  0.00000000000E+00 0. -1.
         23    2    1    2    0    0  0.28517809703E+02  0.26698427300E+01  0.25631945707E+03  0.28664863994E+03  0.12508950866E+03 0.  0.
          5    1    3    3  502    0 -0.13157282489E+02 -0.23781052181E+02  0.20228716432E+01  0.27572031754E+02  0.41800000000E+01 0. -1.
         -5    1    3    3    0  502  0.41675092192E+02  0.26450894911E+02  0.25429658543E+03  0.25907660819E+03  0.41800000000E+01 0. -1.
        -11    1    1    2    0    0 -0.22560857685E+02  0.42692426926E+02 -0.11540438070E+02  0.49646926664E+02  0.00000000000E+00 0. -1.
         11    1    1    2    0    0 -0.59569520182E+01 -0.45362269656E+02  0.80761082852E+01  0.46459060588E+02  0.00000000000E+00 0.  1.
</event>
<event>
 7    1  0.5109948E-006  0.1460066E+03  0.7561462E-02  0.1205468E+00
         -1   -1    0    0    0  501 -0.00000000000E+00  0.00000000000E+00  0.85424331070E+02  0.85424331070E+02  0.00000000000E+00 0.  1.
          1   -1    0    0  501    0  0.00000000000E+00 -0.00000000000E+00 -0.28114981798E+03  0.28114981798E+03  0.00000000000E+00 0. -1.
         23    2    1    2    0    0  0.10325893296E+03  0.28784352163E+02 -0.71931976594E+02  0.17975628909E+03  0.12508864076E+03 0.  0.
          5    1    3    3  502    0  0.60377368341E+02  0.78147382091E+02 -0.49140939577E+02  0.11038452916E+03  0.41800000000E+01 0.  1.
         -5    1    3    3    0  502  0.42881564620E+02 -0.49363029928E+02 -0.22791037018E+02  0.69371759933E+02  0.41800000000E+01 0.  1.
        -11    1    1    2    0    0 -0.26896030814E+02  0.22995501207E+02 -0.73883613817E+02  0.81920558714E+02  0.00000000000E+00 0. -1.
         11    1    1    2    0    0 -0.76362902148E+02 -0.51779853370E+02 -0.49909896498E+02  0.10489730124E+03  0.00000000000E+00 0.  1.
</event>
<event>
 7    1  0.5109948E-006  0.1585863E+03  0.7561462E-02  0.1190302E+00
          2   -1    0    0  501    0  0.00000000000E+00  0.00000000000E+00  0.57602639766E+03  0.57602639766E+03  0.00000000000E+00 0. -1.
         -2   -1    0    0    0  501 -0.00000000000E+00 -0.00000000000E+00 -0.58416092094E+02  0.58416092094E+02  0.00000000000E+00 0.  1.
         23    2    1    2    0    0 -0.84481589212E+02  0.96006682484E+02  0.14605340197E+03  0.23093985409E+03  0.12508876042E+03 0.  0.
          5    1    3    3  502    0 -0.50817093186E+02 -0.19377201429E+02  0.24014133951E+02  0.59598690627E+02  0.41800000000E+01 0. -1.
         -5    1    3    3    0  502 -0.33664496026E+02  0.11538388391E+03  0.12203926802E+03  0.17134116346E+03  0.41800000000E+01 0. -1.
        -11    1    1    2    0    0  0.26711491555E+02 -0.77064428242E+02  0.12276054947E+03  0.14738582831E+03  0.00000000000E+00 0.  1.
         11    1    1    2    0    0  0.57770097656E+02 -0.18942254242E+02  0.24879635413E+03  0.25611680735E+03  0.00000000000E+00 0. -1.
</event>
<event>
 7    1  0.5109948E-006  0.1564095E+03  0.7561462E-02  0.1192811E+00
         -1   -1    0    0    0  501 -0.00000000000E+00  0.00000000000E+00  0.10411522898E+03  0.10411522898E+03  0.00000000000E+00 0.  1.
          1   -1    0    0  501    0  0.00000000000E+00 -0.00000000000E+00 -0.25494911240E+03  0.25494911240E+03  0.00000000000E+00 0. -1.
         23    2    1    2    0    0 -0.12190778274E+03  0.20036355596E+02 -0.81398535791E+02  0.19374260906E+03  0.12509002318E+03 0.  0.
          5    1    3    3  502    0 -0.40981297715E+01  0.43092788670E+02  0.77292090778E+01  0.44170082363E+02  0.41800000000E+01 0.  1.
         -5    1    3    3    0  502 -0.11780965297E+03 -0.23056433074E+02 -0.89127744868E+02  0.14957252670E+03  0.41800000000E+01 0.  1.
        -11    1    1    2    0    0  0.11533795762E+03 -0.44694236377E+02 -0.50783829596E+02  0.13371393563E+03  0.00000000000E+00 0.  1.
         11    1    1    2    0    0  0.65698251184E+01  0.24657880781E+02 -0.18651518032E+02  0.31607796690E+02  0.00000000000E+00 0. -1.
</event>
<event>
 7    1  0.5109948E-006  0.1148255E+03  0.7561462E-02  0.1251886E+00
          1   -1    0    0  501    0  0.00000000000E+00  0.00000000000E+00  0.46642605701E+02  0.46642605701E+02  0.00000000000E+00 0. -1.
         -1   -1    0    0    0  501 -0.00000000000E+00 -0.00000000000E+00 -0.41419121611E+03  0.41419121611E+03  0.00000000000E+00 0.  1.
         23    2    1    2    0    0 -0.69958709475E+02 -0.42918173564E+02 -0.15805915681E+03  0.21763876514E+03  0.12509094447E+03 0.  0.
          5    1    3    3  502    0 -0.10268654442E+02 -0.74387052093E+02 -0.50477190683E+02  0.90577579800E+02  0.41800000000E+01 0.  1.
         -5    1    3    3    0  502 -0.59690055033E+02  0.31468878529E+02 -0.10758196613E+03  0.12706118534E+03  0.41800000000E+01 0.  1.
        -11    1    1    2    0    0  0.34596508079E+02  0.37567480346E+02 -0.28055317223E+02  0.58269501244E+02  0.00000000000E+00 0. -1.
         11    1    1    2    0    0  0.35362201395E+02  0.53506932179E+01 -0.18143413638E+03  0.18492555543E+03  0.00000000000E+00 0.  1.
</event>
<event>
 7    1  0.5109948E-006  0.1510480E+03  0.7561462E-02  0.1199191E+00
         -2   -1    0    0    0  501 -0.00000000000E+00  0.00000000000E+00  0.59534570692E+03  0.59534570692E+03  0.00000000000E+00 0.  1.
          2   -1    0    0  501    0  0.00000000000E+00 -0.00000000000E+00 -0.71204856180E+02  0.71204856180E+02  0.00000000000E+00 0. -1.
         23    2    1    2    0    0 -0.48161207022E+02  0.13336940307E+03  0.43908980064E+03  0.47807374702E+03  0.12509098698E+03 0.  0.
          5    1    3    3  502    0 -0.33546806209E+02  0.83312503639E+02  0.98000471540E+02  0.13299596344E+03  0.41800000000E+01 0. -1.
         -5    1    3    3    0  502 -0.14614400813E+02  0.50056899428E+02  0.34108932910E+03  0.34507778358E+03  0.41800000000E+01 0. -1.
        -11    1    1    2    0    0 -0.19216318764E+02 -0.43451767743E+02 -0.74445142633E-01  0.47511352000E+02  0.00000000000E+00 0. -1.
         11    1    1    2    0    0  0.67377525786E+02 -0.89917635325E+02  0.85125495239E+02  0.14096546408E+03  0.00000000000E+00 0.  1.
</event>
<event>
 7    1  0.5109948E-006  0.1085384E+03  0.7561462E-02  0.1263301E+00
         -1   -1    0    0    0  501 -0.00000000000E+00  0.00000000000E+00  0.63551708630E+03  0.63551708630E+03  0.00000000000E+00 0.  1.
          1   -1    0    0  501    0  0.00000000000E+00 -0.00000000000E+00 -0.19729739782E+02  0.19729739782E+02  0.00000000000E+00 0. -1.
         23    2    1    2    0    0  0.20834766763E+02 -0.21368112221E+02  0.42696786139E+03  0.44591289073E+03  0.12508424255E+03 0.  0.
          5    1    3    3  502    0 -0.69691233868E+01  0.50166898472E+02  0.19652062536E+03  0.20298550435E+03  0.41800000000E+01 0. -1.
         -5    1    3    3    0  502  0.27803890149E+02 -0.71535010692E+02  0.23044723602E+03  0.24292738638E+03  0.41800000000E+01 0. -1.
        -11    1    1    2    0    0 -0.53796694333E+02  0.11869198651E+02  0.10090885641E+03  0.11496764545E+03  0.00000000000E+00 0.  1.
         11    1    1    2    0    0  0.32961927571E+02  0.94989135702E+01  0.87910628716E+02  0.94366289900E+02  0.00000000000E+00 0. -1.
</event>
<event>
 7    1  0.5109948E-006  0.1559082E+03  0.7561462E-02  0.1193395E+00
         -1   -1    0    0    0  501 -0.00000000000E+00  0.00000000000E+00  0.65785768014E+02  0.65785768014E+02  0.00000000000E+00 0.  1.
          1   -1    0    0  501    0  0.00000000000E+00 -0.00000000000E+00 -0.41197325262E+03  0.41197325262E+03  0.00000000000E+00 0. -1.
         23    2    1    2    0    0 -0.67318082359E+02 -0.90601692575E+02 -0.12034489947E+03  0.20705526905E+03  0.12509435919E+03 0.  0.
          5    1    3    3  502    0 -0.77535833105E+02 -0.22341830800E+01 -0.71023773220E+02  0.10525514596E+03  0.41800000000E+01 0.  1.
         -5    1    3    3    0  502  0.10217750746E+02 -0.88367509495E+02 -0.49321126253E+02  0.10180012308E+03  0.41800000000E+01 0.  1.
        -11    1    1    2    0    0  0.11372697889E+02 -0.18933258802E+02 -0.62113351302E+02  0.65923250497E+02  0.00000000000E+00 0.  1.
         11    1    1    2    0    0  0.55945384470E+02  0.10953495138E+03 -0.16372923384E+03  0.20478050110E+03  0.00000000000E+00 0. -1.
</event>
<event>
 7    1  0.5109948E-006  0.9044867E+02  0.7561462E-02  0.1301769E+00
         -1   -1    0    0    0  501 -0.00000000000E+00  0.00000000000E+00  0.21370188945E+03  0.21370188945E+03  0.00000000000E+00 0.  1.
          1   -1    0    0  501    0  0.00000000000E+00 -0.00000000000E+00 -0.54685673980E+02  0.54685673980E+02  0.00000000000E+00 0. -1.
         23    2    1    2    0    0 -0.13711528118E+02 -0.17673867444E+02  0.11842007041E+03  0.16400439435E+03  0.11123738893E+03 0.  0.
          5    1    3    3  502    0 -0.39338133177E+01 -0.50440659216E+02  0.11918544680E+03  0.12954681825E+03  0.41800000000E+01 0.  1.
         -5    1    3    3    0  502 -0.97777148001E+01  0.32766791772E+02 -0.76537639084E+00  0.34457576101E+02  0.41800000000E+01 0. -1.
        -11    1    1    2    0    0 -0.23232260183E+02  0.44382159305E+02  0.26465638970E+02  0.56656367903E+02  0.00000000000E+00 0. -1.
         11    1    1    2    0    0  0.36943788301E+02 -0.26708291861E+02  0.14130506088E+02  0.47726801176E+02  0.00000000000E+00 0.  1.
</event>
<event>
 7    1  0.5109948E-006  0.1052549E+03  0.7561462E-02  0.1269618E+00
          2   -1    0    0  501    0  0.00000000000E+00  0.00000000000E+00  0.41656610204E+02  0.41656610204E+02  0.00000000000E+00 0. -1.
         -2   -1    0    0    0  501 -0.00000000000E+00 -0.00000000000E+00 -0.31412849917E+03  0.31412849917E+03  0.00000000000E+00 0.  1.
         23    2    1    2    0    0 -0.64358940435E+00  0.27550003891E+02 -0.18403382679E+03  0.22422117068E+03  0.12508903652E+03 0.  0.
          5    1    3    3  502    0  0.56656820043E+02  0.84127529614E+01 -0.13357467070E+03  0.14539750590E+03  0.41800000000E+01 0.  1.
         -5    1    3    3    0  502 -0.57300409447E+02  0.19137250930E+02 -0.50459156085E+02  0.78823664777E+02  0.41800000000E+01 0.  1.
        -11    1    1    2    0    0 -0.26972075966E+02  0.22655105965E+02 -0.54729416161E+02  0.65084988296E+02  0.00000000000E+00 0.  1.
         11    1    1    2    0    0  0.27615665370E+02 -0.50205109856E+02 -0.33708646014E+02  0.66478950395E+02  0.00000000000E+00 0. -1.
</event>
<event>
 7    1  0.5109948E-006  0.1027225E+03  0.7561462E-02  0.1274673E+00
         -2   -1    0    0    0  501 -0.00000000000E+00  0.00000000000E+00  0.28941278648E+02  0.28941278648E+02  0.00000000000E+00 0.  1.
          2   -1    0    0  501    0  0.00000000000E+00 -0.00000000000E+00 -0.80206127577E+03  0.80206127577E+03  0.00000000000E+00 0. -1.
         23    2    1    2    0    0 -0.36839840915E+02 -0.71155351028E+02 -0.22435818749E+03  0.26907966703E+03  0.12508802124E+03 0.  0.
          5    1    3    3  502    0 -0.88127428168E+01 -0.49837283017E+02 -0.22785652646E+03  0.23344697099E+03  0.41800000000E+01 0. -1.
         -5    1    3    3    0  502 -0.28027098098E+02 -0.21318068011E+02  0.34983389708E+01  0.35632696040E+02  0.41800000000E+01 0. -1.
        -11    1    1    2    0    0  0.36499296432E+02  0.91677808784E+02 -0.48508945641E+03  0.49502403981E+03  0.00000000000E+00 0. -1.
         11    1    1    2    0    0  0.34054448303E+00 -0.20522457757E+02 -0.63672353216E+02  0.66898847576E+02  0.00000000000E+00 0.  1.
</event>
<event>
 7    1  0.5109948E-006  0.1269316E+03  0.7561462E-02  0.1232081E+00
          1   -1    0    0  501    0  0.00000000000E+00  0.00000000000E+00  0.17978047446E+03  0.17978047446E+03  0.00000000000E+00 0. -1.
         -1   -1    0    0    0  501 -0.00000000000E+00 -0.00000000000E+00 -0.14240925232E+03  0.14240925232E+03  0.00000000000E+00 0.  1.
         23    2    1    2    0    0 -0.75750523653E+02 -0.88529788647E+02  0.33440937032E+02  0.17417783824E+03  0.12507580803E+03 0.  0.
          5    1    3    3  502    0 -0.58802399401E+02 -0.30738783208E+02 -0.41172764552E+02  0.78200152873E+02  0.41800000000E+01 0.  1.
         -5    1    3    3    0  502 -0.16948124252E+02 -0.57791005438E+02  0.74613701584E+02  0.95977685372E+02  0.41800000000E+01 0.  1.
        -11    1    1    2    0    0  0.62202967126E+01  0.44010974729E+02 -0.35151001606E+02  0.56667900100E+02  0.00000000000E+00 0.  1.
         11    1    1    2    0    0  0.69530226941E+02  0.44518813917E+02  0.39081286713E+02  0.91343988429E+02  0.00000000000E+00 0. -1.
</event>
<event>
 7    1  0.5109948E-006  0.8916119E+02  0.7561462E-02  0.1304896E+00
          1   -1    0    0  501    0  0.00000000000E+00  0.00000000000E+00  0.69427640204E+02  0.69427640204E+02  0.00000000000E+00 0. -1.
         -1   -1    0    0    0  501 -0.00000000000E+00 -0.00000000000E+00 -0.62374602807E+03  0.62374602807E+03  0.00000000000E+00 0.  1.
         23    2    1    2    0    0  0.52544682018E+01 -0.18731423416E+02 -0.58156669244E+03  0.59518464113E+03  0.12508582500E+03 0.  0.
          5    1    3    3  502    0 -0.10831833565E+02  0.44264414639E+02 -0.39351054608E+03  0.39616245317E+03  0.41800000000E+01 0. -1.
         -5    1    3    3    0  502  0.16086301766E+02 -0.62995838055E+02 -0.18805614636E+03  0.19902218796E+03  0.41800000000E+01 0. -1.
        -11    1    1    2    0    0 -0.32804804988E+02  0.22244795764E+02  0.48775652126E+02  0.62849426483E+02  0.00000000000E+00 0. -1.
         11    1    1    2    0    0  0.27550336787E+02 -0.35133723486E+01 -0.21527347549E+02  0.35139600664E+02  0.00000000000E+00 0.  1.
</event>
<event>
 7    1  0.5109948E-006  0.9337718E+02  0.7561462E-02  0.1294873E+00
         -1   -1    0    0    0  501 -0.00000000000E+00  0.00000000000E+00  0.24914383177E+03  0.24914383177E+03  0.00000000000E+00 0.  1.
          1   -1    0    0  501    0  0.00000000000E+00 -0.00000000000E+00 -0.52408411416E+02  0.52408411416E+02  0.00000000000E+00 0. -1.
         23    2    1    2    0    0  0.33724613883E+02 -0.35840666955E+01  0.13559368077E+03  0.18757213399E+03  0.12508982401E+03 0.  0.
          5    1    3    3  502    0  0.28647278188E+02 -0.56861771920E+02  0.33125348164E+02  0.71893593209E+02  0.41800000000E+01 0. -1.
         -5    1    3    3    0  502  0.50773356950E+01  0.53277705225E+02  0.10246833260E+03  0.11567854079E+03  0.41800000000E+01 0. -1.
        -11    1    1    2    0    0 -0.46958190201E+02 -0.12346929215E+02  0.74795881604E+02  0.89173663113E+02  0.00000000000E+00 0.  1.
         11    1    1    2    0    0  0.13233576318E+02  0.15930995911E+02 -0.13654142017E+02  0.24806446080E+02  0.00000000000E+00 0. -1.
</event>
<event>
 7    1  0.5109948E-006  0.1499885E+03  0.7561462E-02  0.1200487E+00
          1   -1    0    0  501    0  0.00000000000E+00  0.00000000000E+00  0.18834014492E+03  0.18834014492E+03  0.00000000000E+00 0. -1.
         -1   -1    0    0    0  501 -0.00000000000E+00 -0.00000000000E+00 -0.21669215150E+03  0.21669215150E+03  0.00000000000E+00 0.  1.
         23    2    1    2    0    0  0.72794494807E+02 -0.79449786543E+02 -0.14601567294E+03  0.22041086893E+03  0.12509623233E+03 0.  0.
          5    1    3    3  502    0  0.41630437884E+02  0.29402654145E+02 -0.54794670986E+02  0.74950235474E+02  0.41800000000E+01 0.  1.
         -5    1    3    3    0  502  0.31164056924E+02 -0.10885244069E+03 -0.91221001950E+02  0.14546063345E+03  0.41800000000E+01 0.  1.
        -11    1    1    2    0    0 -0.22941988118E+02  0.82461003035E+02  0.45711226569E+02  0.97034365432E+02  0.00000000000E+00 0.  1.
         11    1    1    2    0    0 -0.49852506690E+02 -0.30112164920E+01  0.71952439797E+02  0.87587062062E+02  0.00000000000E+00 0. -1.
</event>
<event>
 7    1  0.5109948E-006  0.9732195E+02  0.7561462E-02  0.1286030E+00
         -2   -1    0    0    0  501 -0.00000000000E+00  0.00000000000E+00  0.32231214616E+02  0.32231214616E+02  0.00000000000E+00 0.  1.
          2   -1    0    0  501    0  0.00000000000E+00 -0.00000000000E+00 -0.43205290349E+03  0.43205290349E+03  0.00000000000E+00 0. -1.
         23    2    1    2    0    0 -0.23777721195E+02  0.52923304416E+02 -0.22991127722E+03  0.26809115895E+03  0.12508963962E+03 0.  0.
          5    1    3    3  502    0 -0.74907140076E+01 -0.30015780724E+02 -0.10517287682E+02  0.32941518316E+02  0.41800000000E+01 0.  1.
         -5    1    3    3    0  502 -0.16287007187E+02  0.82939085140E+02 -0.21939398953E+03  0.23514964063E+03  0.41800000000E+01 0.  1.
        -11    1    1    2    0    0  0.27110618701E+02 -0.13764648460E+01 -0.11335744668E+02  0.29417331779E+02  0.00000000000E+00 0.  1.
         11    1    1    2    0    0 -0.33328975066E+01 -0.51546839570E+02 -0.15857466699E+03  0.16677562738E+03  0.00000000000E+00 0. -1.
</event>
<event>
 7    1  0.5109948E-006  0.1206679E+03  0.7561462E-02  0.1241999E+00
          1   -1    0    0  501    0  0.00000000000E+00  0.00000000000E+00  0.95612126791E+01  0.95612126791E+01  0.00000000000E+00 0. -1.
         -1   -1    0    0    0  501 -0.00000000000E+00 -0.00000000000E+00 -0.20335186661E+04  0.20335186661E+04  0.00000000000E+00 0.  1.
         23    2    1    2    0    0 -0.67495800462E+02  0.39140749252E+02 -0.14191654138E+04  0.14268027267E+04  0.12509143695E+03 0.  0.
          5    1    3    3  502    0 -0.69811052158E+01  0.58652994448E+02 -0.10851069456E+04  0.10867214295E+04  0.41800000000E+01 0.  1.
         -5    1    3    3    0  502 -0.60514695247E+02 -0.19512245196E+02 -0.33405846824E+03  0.34008129713E+03  0.41800000000E+01 0.  1.
        -11    1    1    2    0    0  0.60325752375E+02  0.16307703528E+02 -0.31323327267E+03  0.31940604362E+03  0.00000000000E+00 0.  1.
         11    1    1    2    0    0  0.71700480874E+01 -0.55448452780E+02 -0.29155876686E+03  0.29687110846E+03  0.00000000000E+00 0. -1.
</event>
<event>
 7    1  0.5109948E-006  0.1270030E+03  0.7561462E-02  0.1231972E+00
         -1   -1    0    0    0  501 -0.00000000000E+00  0.00000000000E+00  0.55021238832E+02  0.55021238832E+02  0.00000000000E+00 0.  1.
          1   -1    0    0  501    0  0.00000000000E+00 -0.00000000000E+00 -0.63184243702E+03  0.63184243702E+03  0.00000000000E+00 0. -1.
         23    2    1    2    0    0  0.22906111009E+02  0.10317284430E+03 -0.10368622252E+03  0.19382525581E+03  0.12509225127E+03 0.  0.
          5    1    3    3  502    0  0.47390944596E+02  0.28030589116E+02  0.91806550610E+01  0.55976534220E+02  0.41800000000E+01 0.  1.
         -5    1    3    3    0  502 -0.24484833587E+02  0.75142255186E+02 -0.11286687758E+03  0.13784872159E+03  0.41800000000E+01 0.  1.
        -11    1    1    2    0    0 -0.27279518100E+02 -0.14553160429E+02 -0.38196768950E+02  0.49142239921E+02  0.00000000000E+00 0.  1.
         11    1    1    2    0    0  0.43734070914E+01 -0.88619683873E+02 -0.43493820672E+03  0.44389618012E+03  0.00000000000E+00 0. -1.
</event>
<event>
 7    1  0.5109948E-006  0.9929737E+02  0.7561462E-02  0.1281780E+00
         -1   -1    0    0    0  501 -0.00000000000E+00  0.00000000000E+00  0.38996632074E+03  0.38996632074E+03  0.00000000000E+00 0.  1.
          1   -1    0    0  501    0  0.00000000000E+00 -0.00000000000E+00 -0.65762300135E+02  0.65762300135E+02  0.00000000000E+00 0. -1.
         23    2    1    2    0    0  0.14127552503E+02 -0.71839529131E+02  0.29074732928E+03  0.32487223424E+03  0.12508978140E+03 0.  0.
          5    1    3    3  502    0  0.27935262209E+02 -0.46019609111E+01  0.23391557939E+03  0.23565977086E+03  0.41800000000E+01 0.  1.
         -5    1    3    3    0  502 -0.13807709706E+02 -0.67237568220E+02  0.56831749893E+02  0.89212463386E+02  0.41800000000E+01 0.  1.
        -11    1    1    2    0    0  0.25708760258E+02  0.98685332310E+01 -0.24703973228E+02  0.36994791463E+02  0.00000000000E+00 0. -1.
         11    1    1    2    0    0 -0.39836312761E+02  0.61970995900E+02  0.58160664550E+02  0.93861595171E+02  0.00000000000E+00 0.  1.
</event>
<event>
 7    1  0.5109948E-006  0.7869640E+02  0.7561462E-02  0.1332792E+00
          1   -1    0    0  501    0  0.00000000000E+00  0.00000000000E+00  0.84979035502E+02  0.84979035502E+02  0.00000000000E+00 0. -1.
         -1   -1    0    0    0  501 -0.00000000000E+00 -0.00000000000E+00 -0.17949476228E+03  0.17949476228E+03  0.00000000000E+00 0.  1.
         23    2    1    2    0    0 -0.34129552679E+01  0.27701098093E+02 -0.11042455442E+03  0.16915686290E+03  0.12506583445E+03 0.  0.
          5    1    3    3  502    0  0.21927907538E+02 -0.43059968198E+01 -0.12389609693E+03  0.12596463779E+03  0.41800000000E+01 0. -1.
         -5    1    3    3    0  502 -0.25340862806E+02  0.32007094913E+02  0.13471542512E+02  0.43192225112E+02  0.41800000000E+01 0. -1.
        -11    1    1    2    0    0 -0.42792109756E+02 -0.17915082963E+02  0.12045331375E+02  0.47929165054E+02  0.00000000000E+00 0.  1.
         11    1    1    2    0    0  0.46205065023E+02 -0.97860151305E+01  0.38634962666E+01  0.47387769829E+02  0.00000000000E+00 0. -1.
</event>
<event>
 7    1  0.5109948E-006  0.1307272E+03  0.7561462E-02  0.1226381E+00
          1   -1    0    0  501    0  0.00000000000E+00  0.00000000000E+00  0.11992325284E+04  0.11992325284E+04  0.00000000000E+00 0. -1.
         -1   -1    0    0    0  501 -0.00000000000E+00 -0.00000000000E+00 -0.16789631664E+02  0.16789631664E+02  0.00000000000E+00 0.  1.
         23    2    1    2    0    0 -0.89376649738E+02  0.13851544747E+02  0.70056089005E+03  0.71736707983E+03  0.12509962326E+03 0.  0.
          5    1    3    3  502    0 -0.11762551539E+03  0.29984707442E+02  0.54013963364E+03  0.55362725798E+03  0.41800000000E+01 0.  1.
         -5    1    3    3    0  502  0.28248865653E+02 -0.16133162694E+02  0.16042125642E+03  0.16373982185E+03  0.41800000000E+01 0.  1.
        -11    1    1    2    0    0  0.27502232649E+02  0.22412720614E+02  0.52747187632E+02  0.63568613710E+02  0.00000000000E+00 0.  1.
         11    1    1    2    0    0  0.61874417090E+02 -0.36264265361E+02  0.42913481905E+03  0.43508646653E+03  0.00000000000E+00 0. -1.
</event>
<event>
 7    1  0.5109948E-006  0.9774370E+02  0.7561462E-02  0.1285113E+00
          1   -1    0    0  501    0  0.00000000000E+00  0.00000000000E+00  0.15496111357E+03  0.15496111357E+03  0.00000000000E+00 0. -1.
         -1   -1    0    0    0  501 -0.00000000000E+00 -0.00000000000E+00 -0.25701168554E+03  0.25701168554E+03  0.00000000000E+00 0.  1.
         23    2    1    2    0    0  0.92131342957E+01 -0.37011417102E+02 -0.22344943951E+03  0.25514478222E+03  0.11710884270E+03 0.  0.
          5    1    3    3  502    0  0.29056095508E+02 -0.64088305598E+02 -0.75153076894E+02  0.10303894879E+03  0.41800000000E+01 0. -1.
         -5    1    3    3    0  502 -0.19842961212E+02  0.27076888495E+02 -0.14829636262E+03  0.15210583344E+03  0.41800000000E+01 0.  1.
        -11    1    1    2    0    0 -0.29189274302E+02 -0.16861999004E+02  0.17216347802E+02  0.37851596747E+02  0.00000000000E+00 0.  1.
         11    1    1    2    0    0  0.19976140006E+02  0.53873416107E+02  0.10418251973E+03  0.11897642015E+03  0.00000000000E+00 0. -1.
</event>
<event>
 7    1  0.5109948E-006  0.1004520E+03  0.7561462E-02  0.1279348E+00
         -2   -1    0    0    0  501 -0.00000000000E+00  0.00000000000E+00  0.31328406904E+03  0.31328406904E+03  0.00000000000E+00 0.  1.
          2   -1    0    0  501    0  0.00000000000E+00 -0.00000000000E+00 -0.43581211235E+02  0.43581211235E+02  0.00000000000E+00 0. -1.
         23    2    1    2    0    0 -0.33421939997E+02 -0.27634205853E+01  0.19496581153E+03  0.23405888779E+03  0.12508889928E+03 0.  0.
          5    1    3    3  502    0 -0.73397959836E+02 -0.24036286853E+02  0.15620341781E+03  0.17430428489E+03  0.41800000000E+01 0.  1.
         -5    1    3    3    0  502  0.39976019840E+02  0.21272866268E+02  0.38762393718E+02  0.59754602904E+02  0.41800000000E+01 0.  1.
        -11    1    1    2    0    0 -0.22205674263E+02  0.33102636536E+01  0.61715645234E+02  0.65672449943E+02  0.00000000000E+00 0.  1.
         11    1    1    2    0    0  0.55627614260E+02 -0.54684306835E+00  0.13021401046E+02  0.57133942545E+02  0.00000000000E+00 0. -1.
</event>
<event>
 7    1  0.5109948E-006  0.8229049E+02  0.7561462E-02  0.1322674E+00
          2   -1    0    0  501    0  0.00000000000E+00  0.00000000000E+00  0.33519534950E+03  0.33519534950E+03  0.00000000000E+00 0.  1.
         -2   -1    0    0    0  501 -0.00000000000E+00 -0.00000000000E+00 -0.44389605433E+02  0.44389605433E+02  0.00000000000E+00 0. -1.
         23    2    1    2    0    0  0.35115276531E+02  0.43081126524E+02  0.15103394813E+03  0.20383207330E+03  0.12508874654E+03 0.  0.
          5    1    3    3  502    0 -0.69010754448E+01 -0.13308106348E+02 -0.16140413550E+02  0.22421326598E+02  0.41800000000E+01 0.  1.
         -5    1    3    3    0  502  0.42016351976E+02  0.56389232872E+02  0.16717436168E+03  0.18141074670E+03  0.41800000000E+01 0.  1.
        -11    1    1    2    0    0 -0.21164407833E+02  0.10200785033E+02 -0.20772339890E+01  0.23586077997E+02  0.00000000000E+00 0.  1.
         11    1    1    2    0    0 -0.13950868698E+02 -0.53281911557E+02  0.14184902993E+03  0.15216680363E+03  0.00000000000E+00 0. -1.
</event>
<event>
 7    1  0.5109948E-006  0.3312631E+03  0.7561462E-02  0.1070579E+00
          2   -1    0    0  501    0  0.00000000000E+00  0.00000000000E+00  0.19896590226E+03  0.19896590226E+03  0.00000000000E+00 0. -1.
         -2   -1    0    0    0  501 -0.00000000000E+00 -0.00000000000E+00 -0.60931784870E+03  0.60931784870E+03  0.00000000000E+00 0.  1.
         23    2    1    2    0    0 -0.13990720388E+03 -0.28714113140E+03 -0.10892523801E+03  0.35991142222E+03  0.12508984503E+03 0.  0.
          5    1    3    3  502    0  0.10302631109E+02 -0.73093224539E+01  0.14012797139E+02  0.19323594028E+02  0.41800000000E+01 0. -1.
         -5    1    3    3    0  502 -0.15020983499E+03 -0.27983180894E+03 -0.12293803515E+03  0.34058782819E+03  0.41800000000E+01 0. -1.
        -11    1    1    2    0    0  0.13925048275E+03  0.19588776303E+03 -0.20928764872E+03  0.31869112407E+03  0.00000000000E+00 0. -1.
         11    1    1    2    0    0  0.65672112718E+00  0.91253368365E+02 -0.92139059710E+02  0.12968120467E+03  0.00000000000E+00 0.  1.
</event>
<event>
 6    1  0.5109948E-006  0.1401165E+03  0.7561462E-02  0.1213172E+00
         -4   -1    0    0    0  501 -0.00000000000E+00  0.00000000000E+00  0.28107230032E+03  0.28107230032E+03  0.00000000000E+00 0.  1.
          4   -1    0    0  501    0  0.00000000000E+00 -0.00000000000E+00 -0.87118589796E+02  0.87118589796E+02  0.00000000000E+00 0. -1.
          5    1    1    2  502    0  0.16638482779E+02 -0.89393957156E+02  0.10656003008E+03  0.14014503593E+03  0.41800000000E+01 0. -1.
         -5    1    1    2    0  502  0.18008926259E+02  0.95487932337E+02  0.88006588646E+02  0.13116744525E+03  0.41800000000E+01 0.  1.
        -11    1    1    2    0    0  0.26330860620E+02  0.11123914642E+02  0.14036327579E+02  0.31844531553E+02  0.00000000000E+00 0.  1.
         11    1    1    2    0    0 -0.60978269657E+02 -0.17217889823E+02 -0.14649235772E+02  0.65033877395E+02  0.00000000000E+00 0. -1.
</event>
<event>
 7    1  0.5109948E-006  0.1062376E+03  0.7561462E-02  0.1267700E+00
          3   -1    0    0  501    0  0.00000000000E+00  0.00000000000E+00  0.44636516004E+03  0.44636516004E+03  0.00000000000E+00 0. -1.
         -3   -1    0    0    0  501 -0.00000000000E+00 -0.00000000000E+00 -0.37511392914E+02  0.37511392914E+02  0.00000000000E+00 0.  1.
         23    2    1    2    0    0 -0.21798651875E+02 -0.29160417694E+02  0.11294786019E+03  0.17242395486E+03  0.12508912785E+03 0.  0.
          5    1    3    3  502    0 -0.51772688256E+02  0.28298304740E+02  0.80311626441E+02  0.99742844566E+02  0.41800000000E+01 0.  1.
         -5    1    3    3    0  502  0.29974036381E+02 -0.57458722434E+02  0.32636233751E+02  0.72681110298E+02  0.41800000000E+01 0.  1.
        -11    1    1    2    0    0  0.10378949774E+02  0.57186455915E+02  0.24853095805E+03  0.25523645987E+03  0.00000000000E+00 0. -1.
         11    1    1    2    0    0  0.11419702101E+02 -0.28026038222E+02  0.47374948878E+02  0.56216138214E+02  0.00000000000E+00 0.  1.
</event>
<event>
 7    1  0.5109948E-006  0.1042571E+03  0.7561462E-02  0.1271590E+00
          1   -1    0    0  501    0  0.00000000000E+00  0.00000000000E+00  0.58432663690E+03  0.58432663690E+03  0.00000000000E+00 0. -1.
         -1   -1    0    0    0  501 -0.00000000000E+00 -0.00000000000E+00 -0.21484371457E+02  0.21484371457E+02  0.00000000000E+00 0.  1.
         23    2    1    2    0    0  0.17431683302E+01 -0.27353352659E+02  0.35467080162E+03  0.37708219804E+03  0.12509341317E+03 0.  0.
          5    1    3    3  502    0 -0.51813696781E+02  0.10019223163E+02  0.23290142551E+03  0.23884218726E+03  0.41800000000E+01 0. -1.
         -5    1    3    3    0  502  0.53556865111E+02 -0.37372575822E+02  0.12176937610E+03  0.13824001078E+03  0.41800000000E+01 0. -1.
        -11    1    1    2    0    0 -0.18343866545E+02  0.54949117378E+02  0.96951296642E+02  0.11294005871E+03  0.00000000000E+00 0. -1.
         11    1    1    2    0    0  0.16600698215E+02 -0.27595764719E+02  0.11122016719E+03  0.11578875162E+03  0.00000000000E+00 0.  1.
</event>
<event>
 7    1  0.5109948E-006  0.1185065E+03  0.7561462E-02  0.1245581E+00
          1   -1    0    0  501    0  0.00000000000E+00  0.00000000000E+00  0.52870811149E+03  0.52870811149E+03  0.00000000000E+00 0.  1.
         -1   -1    0    0    0  501 -0.00000000000E+00 -0.00000000000E+00 -0.32275496582E+02  0.32275496582E+02  0.00000000000E+00 0. -1.
         23    2    1    2    0    0 -0.45190405126E+02  0.54077703699E+02  0.31723017170E+03  0.34820637769E+03  0.12508448695E+03 0.  0.
          5    1    3    3  502    0 -0.13853075648E+01 -0.33141123844E+02  0.15719103726E+03  0.16070702462E+03  0.41800000000E+01 0.  1.
         -5    1    3    3    0  502 -0.43805097561E+02  0.87218827543E+02  0.16003913444E+03  0.18749935308E+03  0.41800000000E+01 0.  1.
        -11    1    1    2    0    0  0.67202594795E+02 -0.31034100600E+02  0.81924769099E+02  0.11041273450E+03  0.00000000000E+00 0. -1.
         11    1    1    2    0    0 -0.22012189669E+02 -0.23043603100E+02  0.97277674099E+02  0.10236449588E+03  0.00000000000E+00 0.  1.
</event>
<event>
 7    1  0.5109948E-006  0.1606374E+03  0.7561462E-02  0.1187979E+00
          2   -1    0    0  501    0  0.00000000000E+00  0.00000000000E+00  0.15536023144E+03  0.15536023144E+03  0.00000000000E+00 0. -1.
         -2   -1    0    0    0  501 -0.00000000000E+00 -0.00000000000E+00 -0.19551389205E+03  0.19551389205E+03  0.00000000000E+00 0.  1.
         23    2    1    2    0    0  0.12756899087E+03  0.26735788984E+01 -0.59707606308E+02  0.18839396693E+03  0.12508514328E+03 0.  0.
          5    1    3    3  502    0  0.77369427508E+02  0.49498059515E+02  0.74804285069E+01  0.92247034745E+02  0.41800000000E+01 0. -1.
         -5    1    3    3    0  502  0.50199563359E+02 -0.46824480617E+02 -0.67188034815E+02  0.96146932186E+02  0.41800000000E+01 0. -1.
        -11    1    1    2    0    0  0.15767705232E+02 -0.67740727770E+01  0.70080818303E+01  0.18537038631E+02  0.00000000000E+00 0.  1.
         11    1    1    2    0    0 -0.14333669610E+03  0.41004938786E+01  0.12545863870E+02  0.14394311793E+03  0.00000000000E+00 0. -1.
</event>
<event>
 7    1  0.5109948E-006  0.9598586E+02  0.7561462E-02  0.1288971E+00
         -2   -1    0    0    0  501 -0.00000000000E+00  0.00000000000E+00  0.65177321116E+03  0.65177321116E+03  0.00000000000E+00 0. -1.
          2   -1    0    0  501    0  0.00000000000E+00 -0.00000000000E+00 -0.27512936220E+02  0.27512936220E+02  0.00000000000E+00 0.  1.
         23    2    1    2    0    0 -0.71111692324E+02 -0.19872439946E+02  0.39696734882E+03  0.42270803118E+03  0.12508883617E+03 0.  0.
          5    1    3    3  502    0  0.14786462451E+01 -0.11655067205E+02  0.30466343413E+03  0.30491852597E+03  0.41800000000E+01 0. -1.
         -5    1    3    3    0  502 -0.72590338569E+02 -0.82173727402E+01  0.92303914695E+02  0.11778950520E+03  0.41800000000E+01 0. -1.
        -11    1    1    2    0    0  0.74049764106E+02  0.41240420525E+02  0.11865002534E+03  0.14581484274E+03  0.00000000000E+00 0.  1.
         11    1    1    2    0    0 -0.29380717822E+01 -0.21367980579E+02  0.10864290078E+03  0.11076327347E+03  0.00000000000E+00 0. -1.
</event>
<event>
 7    1  0.5109948E-006  0.8536445E+02  0.7561462E-02  0.1314482E+00
          2   -1    0    0  501    0  0.00000000000E+00  0.00000000000E+00  0.22054605908E+03  0.22054605908E+03  0.00000000000E+00 0. -1.
         -2   -1    0    0    0  501 -0.00000000000E+00 -0.00000000000E+00 -0.10518656864E+03  0.10518656864E+03  0.00000000000E+00 0.  1.
         23    2    1    2    0    0 -0.40725413494E+02  0.31461467192E+02 -0.37401138311E+02  0.14033689843E+03  0.12508883521E+03 0.  0.
          5    1    3    3  502    0 -0.30022420951E+01 -0.11466946625E+02  0.41195534034E+02  0.43070276837E+02  0.41800000000E+01 0. -1.
         -5    1    3    3    0  502 -0.37723171399E+02  0.42928413818E+02 -0.78596672344E+02  0.97266621597E+02  0.41800000000E+01 0. -1.
        -11    1    1    2    0    0  0.65627006150E+02 -0.70778107702E+01  0.73370908899E+02  0.98692905592E+02  0.00000000000E+00 0.  1.
         11    1    1    2    0    0 -0.24901592655E+02 -0.24383656422E+02  0.79389719858E+02  0.86702823694E+02  0.00000000000E+00 0. -1.
</event>
<event>
 7    1  0.5109948E-006  0.1234381E+03  0.7561462E-02  0.1237531E+00
          2   -1    0    0  501    0  0.00000000000E+00  0.00000000000E+00  0.36821812086E+03  0.36821812086E+03  0.00000000000E+00 0. -1.
         -2   -1    0    0    0  501 -0.00000000000E+00 -0.00000000000E+00 -0.82804954889E+02  0.82804954889E+02  0.00000000000E+00 0.  1.
         23    2    1    2    0    0 -0.56461373884E+02  0.54736977534E+02  0.73286664155E+01  0.14793222421E+03  0.12508481186E+03 0.  0.
          5    1    3    3  502    0  0.71154387026E+01 -0.23882071069E+02  0.34864274719E+02  0.43057784873E+02  0.41800000000E+01 0.  1.
         -5    1    3    3    0  502 -0.63576812586E+02  0.78619048603E+02 -0.27535608304E+02  0.10487443934E+03  0.41800000000E+01 0.  1.
        -11    1    1    2    0    0  0.12987403916E+02  0.25804270589E+02  0.73112625071E+02  0.78612905975E+02  0.00000000000E+00 0.  1.
         11    1    1    2    0    0  0.43473969967E+02 -0.80541248123E+02  0.20497187448E+03  0.22447794556E+03  0.00000000000E+00 0. -1.
</event>
<event>
 7    1  0.5109948E-006  0.1139749E+03  0.7561462E-02  0.1253381E+00
         -3   -1    0    0    0  501 -0.00000000000E+00  0.00000000000E+00  0.18138516193E+03  0.18138516193E+03  0.00000000000E+00 0.  1.
          3   -1    0    0  501    0  0.00000000000E+00 -0.00000000000E+00 -0.83847806467E+02  0.83847806467E+02  0.00000000000E+00 0. -1.
         23    2    1    2    0    0 -0.21752302512E+02 -0.42967697931E+02  0.94722465091E+02  0.16413201666E+03  0.12509031845E+03 0.  0.
          5    1    3    3  502    0  0.37849761569E+02  0.23133005098E+02  0.37514479516E+02  0.58245591671E+02  0.41800000000E+01 0.  1.
         -5    1    3    3    0  502 -0.59602064082E+02 -0.66100703029E+02  0.57207985575E+02  0.10588642499E+03  0.41800000000E+01 0.  1.
        -11    1    1    2    0    0  0.52055731192E+02  0.35724330510E+02 -0.15432458818E+02  0.64993751434E+02  0.00000000000E+00 0. -1.
         11    1    1    2    0    0 -0.30303428679E+02  0.72433674210E+01  0.18247349193E+02  0.36107200306E+02  0.00000000000E+00 0.  1.
</event>
<event>
 7    1  0.5109948E-006  0.1312797E+03  0.7561462E-02  0.1225569E+00
          3   -1    0    0  501    0  0.00000000000E+00  0.00000000000E+00  0.34633551396E+03  0.34633551396E+03  0.00000000000E+00 0. -1.
         -3   -1    0    0    0  501 -0.00000000000E+00 -0.00000000000E+00 -0.55815993546E+02  0.55815993546E+02  0.00000000000E+00 0.  1.
         23    2    1    2    0    0  0.46399763883E+02 -0.65648001121E+02  0.11190959412E+03  0.18610305466E+03  0.12509193242E+03 0.  0.
          5    1    3    3  502    0  0.14180376550E+02  0.37529380801E+02  0.34626427897E+02  0.53160129903E+02  0.41800000000E+01 0. -1.
         -5    1    3    3    0  502  0.32219387332E+02 -0.10317738192E+03  0.77283166225E+02  0.13294292475E+03  0.41800000000E+01 0. -1.
        -11    1    1    2    0    0 -0.52039612247E+02  0.40512919489E+01  0.45401713489E+02  0.69179836636E+02  0.00000000000E+00 0.  1.
         11    1    1    2    0    0  0.56398483649E+01  0.61596709172E+02  0.13320821280E+03  0.14686861621E+03  0.00000000000E+00 0. -1.
</event>
<event>
 7    1  0.5109948E-006  0.1283449E+03  0.7561462E-02  0.1229932E+00
         -1   -1    0    0    0  501 -0.00000000000E+00  0.00000000000E+00  0.10868034328E+03  0.10868034328E+03  0.00000000000E+00 0.  1.
          1   -1    0    0  501    0  0.00000000000E+00 -0.00000000000E+00 -0.22001377123E+03  0.22001377123E+03  0.00000000000E+00 0. -1.
         23    2    1    2    0    0  0.10098531673E+03 -0.37535300702E+02 -0.34624839021E+02  0.16867957925E+03  0.12508792102E+03 0.  0.
          5    1    3    3  502    0  0.63285862642E+02 -0.71005204241E+02 -0.59539301667E+02  0.11229087355E+03  0.41800000000E+01 0.  1.
         -5    1    3    3    0  502  0.37699454090E+02  0.33469903539E+02  0.24914462647E+02  0.56388705701E+02  0.41800000000E+01 0.  1.
        -11    1    1    2    0    0 -0.50603049579E+02  0.32776091778E+02 -0.89410139573E+02  0.10783836923E+03  0.00000000000E+00 0. -1.
         11    1    1    2    0    0 -0.50382267154E+02  0.47592089236E+01  0.12701550639E+02  0.52176166032E+02  0.00000000000E+00 0.  1.
</event>
<event>
 7    1  0.5109948E-006  0.1042825E+03  0.7561462E-02  0.1271540E+00
         -2   -1    0    0    0  501 -0.00000000000E+00  0.00000000000E+00  0.39056897096E+03  0.39056897096E+03  0.00000000000E+00 0.  1.
          2   -1    0    0  501    0  0.00000000000E+00 -0.00000000000E+00 -0.37257625579E+02  0.37257625579E+02  0.00000000000E+00 0. -1.
         23    2    1    2    0    0  0.27737647856E+02 -0.29726934662E+02  0.26068094761E+03  0.29198614771E+03  0.12509311036E+03 0.  0.
          5    1    3    3  502    0 -0.22891350776E+02  0.34896700029E+02  0.13862129630E+03  0.14482793170E+03  0.41800000000E+01 0.  1.
         -5    1    3    3    0  502  0.50628998632E+02 -0.64623634690E+02  0.12205965130E+03  0.14715821601E+03  0.41800000000E+01 0.  1.
        -11    1    1    2    0    0  0.23508711644E+02 -0.28734783421E+01  0.64873637388E+02  0.69061604592E+02  0.00000000000E+00 0.  1.
         11    1    1    2    0    0 -0.51246359500E+02  0.32600413004E+02  0.27756760391E+02  0.66778844236E+02  0.00000000000E+00 0. -1.
</event>
<event>
 7    1  0.5109948E-006  0.1153150E+03  0.7561462E-02  0.1251032E+00
         -1   -1    0    0    0  501 -0.00000000000E+00  0.00000000000E+00  0.16645853612E+02  0.16645853612E+02  0.00000000000E+00 0.  1.
          1   -1    0    0  501    0  0.00000000000E+00 -0.00000000000E+00 -0.12911422059E+04  0.12911422059E+04  0.00000000000E+00 0. -1.
         23    2    1    2    0    0 -0.86925608506E+02 -0.32471571690E+02 -0.54708607166E+03  0.56882511896E+03  0.12509349215E+03 0.  0.
          5    1    3    3  502    0 -0.16378912602E+02  0.85381943495E+01 -0.36568826629E+01  0.19287683417E+02  0.41800000000E+01 0. -1.
         -5    1    3    3    0  502 -0.70546695904E+02 -0.41009766039E+02 -0.54342918900E+03  0.54953743555E+03  0.41800000000E+01 0. -1.
        -11    1    1    2    0    0  0.95106355454E+02 -0.14228068257E+01 -0.54862969085E+03  0.55681395538E+03  0.00000000000E+00 0. -1.
         11    1    1    2    0    0 -0.81807469476E+01  0.33894378516E+02 -0.17878058978E+03  0.18214898517E+03  0.00000000000E+00 0.  1.
</event>
<event>
 7    1  0.5109948E-006  0.1590775E+03  0.7561462E-02  0.1189742E+00
         -1   -1    0    0    0  501 -0.00000000000E+00  0.00000000000E+00  0.25519604284E+02  0.25519604284E+02  0.00000000000E+00 0.  1.
          1   -1    0    0  501    0  0.00000000000E+00 -0.00000000000E+00 -0.11216093572E+04  0.11216093572E+04  0.00000000000E+00 0. -1.
         23    2    1    2    0    0  0.55505939527E+02  0.11600058800E+03 -0.52586945884E+03  0.55562841299E+03  0.12508876783E+03 0.  0.
          5    1    3    3  502    0  0.87520270922E+02  0.10087062992E+03 -0.32128354515E+03  0.34795871966E+03  0.41800000000E+01 0. -1.
         -5    1    3    3    0  502 -0.32014331394E+02  0.15129958078E+02 -0.20458591369E+03  0.20766969333E+03  0.41800000000E+01 0. -1.
        -11    1    1    2    0    0 -0.34178838043E+02 -0.34707681175E+01 -0.65662278581E+02  0.74106504639E+02  0.00000000000E+00 0.  1.
         11    1    1    2    0    0 -0.21327101484E+02 -0.11252981988E+03 -0.50455801546E+03  0.51739404383E+03  0.00000000000E+00 0. -1.
</event>
<event>
 7    1  0.5109948E-006  0.2224068E+03  0.7561462E-02  0.1132101E+00
          2   -1    0    0  501    0  0.00000000000E+00  0.00000000000E+00  0.84460715991E+03  0.84460715991E+03  0.00000000000E+00 0. -1.
         -2   -1    0    0    0  501 -0.00000000000E+00 -0.00000000000E+00 -0.67297564147E+02  0.67297564147E+02  0.00000000000E+00 0.  1.
         23    2    1    2    0    0  0.18633254768E+03  0.77970344938E+02  0.27728066039E+03  0.36514754354E+03  0.12509584689E+03 0.  0.
          5    1    3    3  502    0  0.10830494719E+03 -0.78830431827E+01  0.75395286671E+02  0.13226498255E+03  0.41800000000E+01 0. -1.
         -5    1    3    3    0  502  0.78027600484E+02  0.85853388121E+02  0.20188537372E+03  0.23288256099E+03  0.41800000000E+01 0. -1.
        -11    1    1    2    0    0 -0.86678272600E+02  0.98351973754E+01  0.22554834598E+03  0.24183033396E+03  0.00000000000E+00 0.  1.
         11    1    1    2    0    0 -0.99654275079E+02 -0.87805542314E+02  0.27448058939E+03  0.30492684656E+03  0.00000000000E+00 0. -1.
</event>
<event>
 7    1  0.5109948E-006  0.1345291E+03  0.7561462E-02  0.1220886E+00
         -1   -1    0    0    0  501 -0.00000000000E+00  0.00000000000E+00  0.14248778351E+03  0.14248778351E+03  0.00000000000E+00 0.  1.
          1   -1    0    0  501    0  0.00000000000E+00 -0.00000000000E+00 -0.23108533522E+03  0.23108533522E+03  0.00000000000E+00 0. -1.
         23    2    1    2    0    0  0.57794520972E+02  0.12065817913E+03  0.11212619422E+02  0.18350061542E+03  0.12509256645E+03 0.  0.
          5    1    3    3  502    0  0.17121831024E+02  0.33100650658E+02  0.63411269441E+02  0.73670018757E+02  0.41800000000E+01 0. -1.
         -5    1    3    3    0  502  0.40672689948E+02  0.87557528470E+02 -0.52198650019E+02  0.10983059666E+03  0.41800000000E+01 0. -1.
        -11    1    1    2    0    0 -0.15169743937E+02 -0.51479060706E+02 -0.94458576954E+02  0.10863994469E+03  0.00000000000E+00 0. -1.
         11    1    1    2    0    0 -0.42624777036E+02 -0.69179118423E+02 -0.53515941741E+01  0.81432558619E+02  0.00000000000E+00 0.  1.
</event>
<event>
 7    1  0.5109948E-006  0.8989279E+02  0.7561462E-02  0.1303112E+00
         -1   -1    0    0    0  501 -0.00000000000E+00  0.00000000000E+00  0.34085219513E+02  0.34085219513E+02  0.00000000000E+00 0.  1.
          1   -1    0    0  501    0  0.00000000000E+00 -0.00000000000E+00 -0.37693220920E+03  0.37693220920E+03  0.00000000000E+00 0. -1.
         23    2    1    2    0    0  0.28089096758E+02  0.16972966689E+01 -0.14868502864E+03  0.19633555884E+03  0.12509410757E+03 0.  0.
          5    1    3    3  502    0  0.25889089089E+02  0.41519109342E+02 -0.76370911885E+01  0.49697876577E+02  0.41800000000E+01 0.  1.
         -5    1    3    3    0  502  0.22000076696E+01 -0.39821812674E+02 -0.14104793746E+03  0.14663768226E+03  0.41800000000E+01 0.  1.
        -11    1    1    2    0    0  0.29017055833E+02  0.12714492167E+02 -0.53324744998E+02  0.62025609786E+02  0.00000000000E+00 0.  1.
         11    1    1    2    0    0 -0.57106152591E+02 -0.14411788836E+02 -0.14083721605E+03  0.15265626009E+03  0.00000000000E+00 0. -1.
</event>
<event>
 7    1  0.5109948E-006  0.9178152E+02  0.7561462E-02  0.1298594E+00
          1   -1    0    0  501    0  0.00000000000E+00  0.00000000000E+00  0.53494648047E+03  0.53494648047E+03  0.00000000000E+00 0. -1.
         -1   -1    0    0    0  501 -0.00000000000E+00 -0.00000000000E+00 -0.22370352139E+02  0.22370352139E+02  0.00000000000E+00 0.  1.
         23    2    1    2    0    0  0.16783171045E+02 -0.10902849418E+00  0.23692156989E+03  0.26844913887E+03  0.12510564800E+03 0.  0.
          5    1    3    3  502    0  0.30194909248E+02 -0.45228200486E+02  0.20320746472E+03  0.21039978323E+03  0.41800000000E+01 0. -1.
         -5    1    3    3    0  502 -0.13411738203E+02  0.45119171992E+02  0.33714105171E+02  0.58049355641E+02  0.41800000000E+01 0. -1.
        -11    1    1    2    0    0 -0.82015495682E+01 -0.39957517911E+02  0.91038478127E+02  0.99759075540E+02  0.00000000000E+00 0.  1.
         11    1    1    2    0    0 -0.85816214767E+01  0.40066546405E+02  0.18461608031E+03  0.18910861820E+03  0.00000000000E+00 0. -1.
</event>
<event>
 7    1  0.5109948E-006  0.1171027E+03  0.7561462E-02  0.1247955E+00
          2   -1    0    0  501    0  0.00000000000E+00  0.00000000000E+00  0.27355452147E+03  0.27355452147E+03  0.00000000000E+00 0. -1.
         -2   -1    0    0    0  501 -0.00000000000E+00 -0.00000000000E+00 -0.67027413325E+02  0.67027413325E+02  0.00000000000E+00 0.  1.
         23    2    1    2    0    0 -0.65452279564E+02 -0.24007981386E+01  0.55689110676E+02  0.15178360656E+03  0.12508885419E+03 0.  0.
          5    1    3    3  502    0 -0.82562859405E+02 -0.31467021715E+02  0.72029928671E+02  0.11407270591E+03  0.41800000000E+01 0. -1.
         -5    1    3    3    0  502  0.17110579841E+02  0.29066223576E+02 -0.16340817995E+02  0.37710900655E+02  0.41800000000E+01 0. -1.
        -11    1    1    2    0    0  0.60306596038E+02 -0.37840224195E+02  0.79400708846E+02  0.10664539680E+03  0.00000000000E+00 0. -1.
         11    1    1    2    0    0  0.51456835264E+01  0.40241022334E+02  0.71437288623E+02  0.82152931434E+02  0.00000000000E+00 0.  1.
</event>
<event>
 7    1  0.5109948E-006  0.1135937E+03  0.7561462E-02  0.1254056E+00
          1   -1    0    0  501    0  0.00000000000E+00  0.00000000000E+00  0.12679072266E+03  0.12679072266E+03  0.00000000000E+00 0. -1.
         -1   -1    0    0    0  501 -0.00000000000E+00 -0.00000000000E+00 -0.11912991054E+03  0.11912991054E+03  0.00000000000E+00 0.  1.
         23    2    1    2    0    0  0.13328052050E+02 -0.50242076610E+02 -0.76841219500E+01  0.13567969726E+03  0.12509209122E+03 0.  0.
          5    1    3    3  502    0  0.42906210316E+02 -0.81428243642E+02 -0.23373051370E+01  0.92165270800E+02  0.41800000000E+01 0.  1.
         -5    1    3    3    0  502 -0.29578158266E+02  0.31186167032E+02 -0.53468168130E+01  0.43514426465E+02  0.41800000000E+01 0.  1.
        -11    1    1    2    0    0 -0.44374148662E+02  0.38253552972E+02  0.38135378790E+02  0.69904981939E+02  0.00000000000E+00 0. -1.
         11    1    1    2    0    0  0.31046096611E+02  0.11988523638E+02 -0.22790444721E+02  0.40335953992E+02  0.00000000000E+00 0.  1.
</event>
<event>
 7    1  0.5109948E-006  0.1043175E+03  0.7561462E-02  0.1271470E+00
          2   -1    0    0  501    0  0.00000000000E+00  0.00000000000E+00  0.13980413316E+03  0.13980413316E+03  0.00000000000E+00 0. -1.
         -2   -1    0    0    0  501 -0.00000000000E+00 -0.00000000000E+00 -0.10001766557E+03  0.10001766557E+03  0.00000000000E+00 0.  1.
         23    2    1    2    0    0  0.16519977266E+00  0.45134887963E+02  0.20270244728E+02  0.13452154021E+03  0.12509187246E+03 0.  0.
          5    1    3    3  502    0  0.59478510297E+02  0.29971791303E+02 -0.75236983229E+01  0.67157128419E+02  0.41800000000E+01 0.  1.
         -5    1    3    3    0  502 -0.59313310524E+02  0.15163096660E+02  0.27793943051E+02  0.67364411791E+02  0.41800000000E+01 0.  1.
        -11    1    1    2    0    0  0.20729146611E+02  0.89334682581E+01  0.38223801485E+02  0.44391028083E+02  0.00000000000E+00 0. -1.
         11    1    1    2    0    0 -0.20894346383E+02 -0.54068356221E+02 -0.18707578619E+02  0.60909230442E+02  0.00000000000E+00 0.  1.
</event>
<event>
 6    1  0.5109948E-006  0.1343371E+03  0.7561462E-02  0.1221159E+00
         -3   -1    0    0    0  501 -0.00000000000E+00  0.00000000000E+00  0.25195607604E+03  0.25195607604E+03  0.00000000000E+00 0.  1.
          3   -1    0    0  501    0  0.00000000000E+00 -0.00000000000E+00 -0.96180365605E+02  0.96180365605E+02  0.00000000000E+00 0. -1.
          5    1    1    2  502    0  0.43122400354E+02 -0.33389621955E+02  0.28495411424E+02  0.61675514905E+02  0.41800000000E+01 0. -1.
         -5    1    1    2    0  502 -0.66519680611E+02  0.60324907045E+02  0.13493048931E+03  0.16213473305E+03  0.41800000000E+01 0.  1.
        -11    1    1    2    0    0 -0.39166626060E+02  0.21753513436E+02 -0.19539133778E+01  0.44844818221E+02  0.00000000000E+00 0.  1.
         11    1    1    2    0    0  0.62563906318E+02 -0.48688798526E+02 -0.56962769131E+01  0.79481375468E+02  0.00000000000E+00 0. -1.
</event>
<event>
 7    1  0.5109948E-006  0.1238282E+03  0.7561462E-02  0.1236912E+00
          2   -1    0    0  501    0  0.00000000000E+00  0.00000000000E+00  0.22389956332E+02  0.22389956332E+02  0.00000000000E+00 0.  1.
         -2   -1    0    0    0  501 -0.00000000000E+00 -0.00000000000E+00 -0.84923105177E+03  0.84923105177E+03  0.00000000000E+00 0. -1.
         23    2    1    2    0    0 -0.69957076252E+01 -0.81817451377E+02 -0.52930080343E+03  0.55004557333E+03  0.12509099470E+03 0.  0.
          5    1    3    3  502    0  0.36653236903E+02 -0.74782127257E+02 -0.18539837828E+03  0.20328762235E+03  0.41800000000E+01 0.  1.
         -5    1    3    3    0  502 -0.43648944528E+02 -0.70353241202E+01 -0.34390242515E+03  0.34675795098E+03  0.41800000000E+01 0.  1.
        -11    1    1    2    0    0  0.37354839945E+02  0.81328959326E+02 -0.19349484106E+03  0.21319014332E+03  0.00000000000E+00 0.  1.
         11    1    1    2    0    0 -0.30359132320E+02  0.48849205141E+00 -0.10404545095E+03  0.10838529145E+03  0.00000000000E+00 0. -1.
</event>
<event>
 7    1  0.5109948E-006  0.2566715E+03  0.7561462E-02  0.1109160E+00
         -2   -1    0    0    0  501 -0.00000000000E+00  0.00000000000E+00  0.14698889947E+03  0.14698889947E+03  0.00000000000E+00 0.  1.
          2   -1    0    0  501    0  0.00000000000E+00 -0.00000000000E+00 -0.52768494216E+03  0.52768494216E+03  0.00000000000E+00 0. -1.
         23    2    1    2    0    0  0.17405888994E+03 -0.16297642385E+03 -0.80478408691E+02  0.28103666123E+03  0.12508804417E+03 0.  0.
          5    1    3    3  502    0  0.16332683018E+03 -0.17870351380E+03 -0.91261073538E+02  0.25875984086E+03  0.41800000000E+01 0.  1.
         -5    1    3    3    0  502  0.10732059762E+02  0.15727089944E+02  0.10782664846E+02  0.22276820375E+02  0.41800000000E+01 0.  1.
        -11    1    1    2    0    0 -0.16871318322E+03  0.11671982033E+03 -0.21946137425E+03  0.30041795792E+03  0.00000000000E+00 0.  1.
         11    1    1    2    0    0 -0.53457067123E+01  0.46256603524E+02 -0.80756259755E+02  0.93219222478E+02  0.00000000000E+00 0. -1.
</event>
<event>
 7    1  0.5109948E-006  0.1592817E+03  0.7561462E-02  0.1189510E+00
         -4   -1    0    0    0  501 -0.00000000000E+00  0.00000000000E+00  0.11966053775E+03  0.11966053775E+03  0.00000000000E+00 0.  1.
          4   -1    0    0  501    0  0.00000000000E+00 -0.00000000000E+00 -0.32788981727E+03  0.32788981727E+03  0.00000000000E+00 0. -1.
         23    2    1    2    0    0 -0.79779606709E+02 -0.12888626359E+03 -0.33776366644E+02  0.19940859548E+03  0.12508593213E+03 0.  0.
          5    1    3    3  502    0 -0.66678869233E+02 -0.71433001210E+02  0.39328208385E+02  0.10541786205E+03  0.41800000000E+01 0. -1.
         -5    1    3    3    0  502 -0.13100737476E+02 -0.57453262382E+02 -0.73104575028E+02  0.93990733430E+02  0.41800000000E+01 0. -1.
        -11    1    1    2    0    0 -0.84754498839E+01  0.59933490735E+01 -0.53332034044E+02  0.54332856901E+02  0.00000000000E+00 0. -1.
         11    1    1    2    0    0  0.88255056593E+02  0.12289291452E+03 -0.12112087883E+03  0.19380890264E+03  0.00000000000E+00 0.  1.
</event>
<event>
 7    1  0.5109948E-006  0.1415771E+03  0.7561462E-02  0.1211222E+00
         -1   -1    0    0    0  501 -0.00000000000E+00  0.00000000000E+00  0.22582238107E+03  0.22582238107E+03  0.00000000000E+00 0.  1.
          1   -1    0    0  501    0  0.00000000000E+00 -0.00000000000E+00 -0.93769962586E+02  0.93769962586E+02  0.00000000000E+00 0. -1.
         23    2    1    2    0    0  0.25372812516E+02 -0.58921157371E+02  0.75548276821E+02  0.15959955408E+03  0.12509593571E+03 0.  0.
          5    1    3    3  502    0  0.74236782143E+02 -0.34801666808E+02  0.26784691417E+02  0.86354779427E+02  0.41800000000E+01 0. -1.
         -5    1    3    3    0  502 -0.48863969628E+02 -0.24119490563E+02  0.48763585404E+02  0.73244774655E+02  0.41800000000E+01 0. -1.
        -11    1    1    2    0    0 -0.47902885684E+02  0.93545031007E+02  0.55088814902E+02  0.11865975228E+03  0.00000000000E+00 0. -1.
         11    1    1    2    0    0  0.22530073169E+02 -0.34623873636E+02  0.14153267632E+01  0.41333037300E+02  0.00000000000E+00 0.  1.
</event>
<event>
 7    1  0.5109948E-006  0.2339287E+03  0.7561462E-02  0.1123905E+00
          2   -1    0    0  501    0  0.00000000000E+00  0.00000000000E+00  0.85151387727E+03  0.85151387727E+03  0.00000000000E+00 0. -1.
         -2   -1    0    0    0  501 -0.00000000000E+00 -0.00000000000E+00 -0.70602353887E+02  0.70602353887E+02  0.00000000000E+00 0.  1.
         23    2    1    2    0    0 -0.15095687926E+03 -0.15931670619E+03  0.40007727656E+03  0.47315912612E+03  0.12509172291E+03 0.  0.
          5    1    3    3  502    0 -0.92914573544E+01 -0.89650219046E+02  0.19007100610E+03  0.21039950740E+03  0.41800000000E+01 0. -1.
         -5    1    3    3    0  502 -0.14166542191E+03 -0.69666487146E+02  0.21000627046E+03  0.26275961871E+03  0.41800000000E+01 0. -1.
        -11    1    1    2    0    0  0.55420239663E+02  0.51546109122E+02  0.22201727973E+03  0.23456358803E+03  0.00000000000E+00 0. -1.
         11    1    1    2    0    0  0.95536639601E+02  0.10777059707E+03  0.15881696709E+03  0.21439351701E+03  0.00000000000E+00 0.  1.
</event>
<event>
 7    1  0.5109948E-006  0.7782303E+02  0.7561462E-02  0.1335345E+00
         -2   -1    0    0    0  501 -0.00000000000E+00  0.00000000000E+00  0.29235130476E+02  0.29235130476E+02  0.00000000000E+00 0.  1.
          2   -1    0    0  501    0  0.00000000000E+00 -0.00000000000E+00 -0.28674335780E+03  0.28674335780E+03  0.00000000000E+00 0. -1.
         23    2    1    2    0    0  0.98941437531E+01  0.24012485539E+02 -0.17779398302E+03  0.21893431543E+03  0.12508813106E+03 0.  0.
          5    1    3    3  502    0  0.14148527273E+02 -0.44877307844E+02 -0.30537137260E+02  0.56250713199E+02  0.41800000000E+01 0.  1.
         -5    1    3    3    0  502 -0.42543835198E+01  0.68889793383E+02 -0.14725684576E+03  0.16268360223E+03  0.41800000000E+01 0.  1.
        -11    1    1    2    0    0  0.92130706523E+01 -0.16157633636E+02 -0.46266779450E+01  0.19166531881E+02  0.00000000000E+00 0.  1.
         11    1    1    2    0    0 -0.19107214405E+02 -0.78548519030E+01 -0.75087566357E+02  0.77877640964E+02  0.00000000000E+00 0. -1.
</event>
<event>
 7    1  0.5109948E-006  0.1434442E+03  0.7561462E-02  0.1208768E+00
         -1   -1    0    0    0  501 -0.00000000000E+00  0.00000000000E+00  0.43130439494E+02  0.43130439494E+02  0.00000000000E+00 0.  1.
          1   -1    0    0  501    0  0.00000000000E+00 -0.00000000000E+00 -0.80428914207E+03  0.80428914207E+03  0.00000000000E+00 0. -1.
         23    2    1    2    0    0 -0.10886958094E+03  0.71717009897E+02 -0.22307845647E+03  0.28706754986E+03  0.12509142768E+03 0.  0.
          5    1    3    3  502    0 -0.13607436285E+02  0.16775586814E+02 -0.15735595641E+03  0.15888660124E+03  0.41800000000E+01 0. -1.
         -5    1    3    3    0  502 -0.95262144655E+02  0.54941423083E+02 -0.65722500054E+02  0.12818094862E+03  0.41800000000E+01 0. -1.
        -11    1    1    2    0    0  0.28159782708E+02 -0.68501578971E+02 -0.29720428695E+03  0.30629369544E+03  0.00000000000E+00 0. -1.
         11    1    1    2    0    0  0.80709798232E+02 -0.32154309261E+01 -0.24087595916E+03  0.25405833627E+03  0.00000000000E+00 0.  1.
</event>
<event>
 7    1  0.5109948E-006  0.1021391E+03  0.7561462E-02  0.1275861E+00
         -2   -1    0    0    0  501 -0.00000000000E+00  0.00000000000E+00  0.26595254352E+02  0.26595254352E+02  0.00000000000E+00 0.  1.
          2   -1    0    0  501    0  0.00000000000E+00 -0.00000000000E+00 -0.86733800121E+03  0.86733800121E+03  0.00000000000E+00 0. -1.
         23    2    1    2    0    0  0.72520281788E+02 -0.30249759291E+02 -0.25646452706E+03  0.29596820887E+03  0.12509551477E+03 0.  0.
          5    1    3    3  502    0  0.42428256572E+02 -0.42797944753E+01 -0.71136347007E+01  0.43434430987E+02  0.41800000000E+01 0. -1.
         -5    1    3    3    0  502  0.30092025216E+02 -0.25969964815E+02 -0.24935089236E+03  0.25253377789E+03  0.41800000000E+01 0. -1.
        -11    1    1    2    0    0  0.21028156637E+02 -0.47899049820E+01 -0.50386058486E+02  0.54807676936E+02  0.00000000000E+00 0.  1.
         11    1    1    2    0    0 -0.93548438426E+02  0.35039664273E+02 -0.53389216131E+03  0.54315736975E+03  0.00000000000E+00 0. -1.
</event>
<event>
 7    1  0.5109948E-006  0.1085431E+03  0.7561462E-02  0.1263292E+00
         -1   -1    0    0    0  501 -0.00000000000E+00  0.00000000000E+00  0.17976698926E+03  0.17976698926E+03  0.00000000000E+00 0.  1.
          1   -1    0    0  501    0  0.00000000000E+00 -0.00000000000E+00 -0.77917369416E+02  0.77917369416E+02  0.00000000000E+00 0. -1.
         23    2    1    2    0    0 -0.43915956705E+02  0.26914691286E+02  0.55955424425E+02  0.14639285552E+03  0.12508735654E+03 0.  0.
          5    1    3    3  502    0  0.44171861951E+02  0.87912755030E+01  0.19750508187E+02  0.49355798918E+02  0.41800000000E+01 0. -1.
         -5    1    3    3    0  502 -0.88087818655E+02  0.18123415783E+02  0.36204916238E+02  0.97037056607E+02  0.41800000000E+01 0. -1.
        -11    1    1    2    0    0  0.13947395547E+02 -0.44802527940E+02  0.57769642656E+02  0.74425318037E+02  0.00000000000E+00 0.  1.
         11    1    1    2    0    0  0.29968561158E+02  0.17887836654E+02 -0.11875447235E+02  0.36866185116E+02  0.00000000000E+00 0. -1.
</event>
<event>
 7    1  0.5109948E-006  0.1122888E+03  0.7561462E-02  0.1256389E+00
          2   -1    0    0  501    0  0.00000000000E+00  0.00000000000E+00  0.36299932619E+03  0.36299932619E+03  0.00000000000E+00 0. -1.
         -2   -1    0    0    0  501 -0.00000000000E+00 -0.00000000000E+00 -0.39969580122E+02  0.39969580122E+02  0.00000000000E+00 0.  1.
         23    2    1    2    0    0 -0.32201467921E+02 -0.58980381225E+00  0.11237293539E+03  0.17121928527E+03  0.12510429503E+03 0.  0.
          5    1    3    3  502    0  0.97470301180E+01  0.56823002555E+02  0.54478283562E+02  0.79430560840E+02  0.41800000000E+01 0.  1.
         -5    1    3    3    0  502 -0.41948498039E+02 -0.57412806367E+02  0.57894651832E+02  0.91788724435E+02  0.41800000000E+01 0.  1.
        -11    1    1    2    0    0  0.48939029914E+02  0.33029748553E+02  0.14623896183E+03  0.15770804322E+03  0.00000000000E+00 0.  1.
         11    1    1    2    0    0 -0.16737561993E+02 -0.32439944741E+02  0.64417848843E+02  0.74041577819E+02  0.00000000000E+00 0. -1.
</event>
<event>
 7    1  0.5109948E-006  0.1254994E+03  0.7561462E-02  0.1234291E+00
         -1   -1    0    0    0  501 -0.00000000000E+00  0.00000000000E+00  0.53124607735E+02  0.53124607735E+02  0.00000000000E+00 0.  1.
          1   -1    0    0  501    0  0.00000000000E+00 -0.00000000000E+00 -0.33078931457E+03  0.33078931457E+03  0.00000000000E+00 0. -1.
         23    2    1    2    0    0 -0.52601835632E+02  0.42323584378E+02 -0.10253674769E+03  0.17526952495E+03  0.12508949932E+03 0.  0.
          5    1    3    3  502    0  0.77371782865E+01  0.72722098442E+02 -0.41894410105E+02  0.84385908348E+02  0.41800000000E+01 0. -1.
         -5    1    3    3    0  502 -0.60339013919E+02 -0.30398514063E+02 -0.60642337586E+02  0.90883616598E+02  0.41800000000E+01 0. -1.
        -11    1    1    2    0    0  0.52999598639E+01 -0.59495912074E+02 -0.11973042827E+03  0.13380294684E+03  0.00000000000E+00 0.  1.
         11    1    1    2    0    0  0.47301875768E+02  0.17172327696E+02 -0.55397530871E+02  0.74841450522E+02  0.00000000000E+00 0. -1.
</event>
<event>
 7    1  0.5109948E-006  0.1281146E+03  0.7561462E-02  0.1230280E+00
         -1   -1    0    0    0  501 -0.00000000000E+00  0.00000000000E+00  0.39254560420E+03  0.39254560420E+03  0.00000000000E+00 0.  1.
          1   -1    0    0  501    0  0.00000000000E+00 -0.00000000000E+00 -0.45445008089E+02  0.45445008089E+02  0.00000000000E+00 0. -1.
         23    2    1    2    0    0 -0.47950449541E+02  0.77583435004E+02  0.26203871331E+03  0.30435092034E+03  0.12508701148E+03 0.  0.
          5    1    3    3  502    0 -0.51127991408E+02 -0.20273234068E+02  0.73855202379E+02  0.92179926467E+02  0.41800000000E+01 0.  1.
         -5    1    3    3    0  502  0.31775418674E+01  0.97856669072E+02  0.18818351093E+03  0.21217099387E+03  0.41800000000E+01 0.  1.
        -11    1    1    2    0    0  0.29188824657E+02 -0.69704834174E+01  0.24573995702E+02  0.38787322525E+02  0.00000000000E+00 0. -1.
         11    1    1    2    0    0  0.18761624884E+02 -0.70612951586E+02  0.60487887102E+02  0.94852369428E+02  0.00000000000E+00 0.  1.
</event>
<event>
 7    1  0.5109948E-006  0.7596286E+02  0.7561462E-02  0.1340915E+00
         -2   -1    0    0    0  501 -0.00000000000E+00  0.00000000000E+00  0.49205806906E+03  0.49205806906E+03  0.00000000000E+00 0.  1.
          2   -1    0    0  501    0  0.00000000000E+00 -0.00000000000E+00 -0.29456174097E+02  0.29456174097E+02  0.00000000000E+00 0. -1.
         23    2    1    2    0    0 -0.60699852680E+01  0.23611316998E+01  0.37205894960E+03  0.39257327053E+03  0.12507394250E+03 0.  0.
          5    1    3    3  502    0 -0.42537107244E+02  0.22719265521E+02  0.32863035144E+03  0.33217608404E+03  0.41800000000E+01 0.  1.
         -5    1    3    3    0  502  0.36467121976E+02 -0.20358133822E+02  0.43428598155E+02  0.60397186488E+02  0.41800000000E+01 0.  1.
        -11    1    1    2    0    0  0.14369054308E+02 -0.29690913547E+02  0.94513676518E+02  0.10010422128E+03  0.00000000000E+00 0.  1.
         11    1    1    2    0    0 -0.82990690399E+01  0.27329781847E+02 -0.39707311499E+01  0.28836751353E+02  0.00000000000E+00 0. -1.
</event>
<event>
 7    1  0.5109948E-006  0.1535556E+03  0.7561462E-02  0.1196171E+00
          2   -1    0    0  501    0  0.00000000000E+00  0.00000000000E+00  0.51611721227E+02  0.51611721227E+02  0.00000000000E+00 0. -1.
         -2   -1    0    0    0  501 -0.00000000000E+00 -0.00000000000E+00 -0.90246544556E+03  0.90246544556E+03  0.00000000000E+00 0.  1.
         23    2    1    2    0    0 -0.11834557420E+03  0.74904877763E+02 -0.71928498677E+03  0.74339353388E+03  0.12508652353E+03 0.  0.
          5    1    3    3  502    0 -0.12233434472E+03  0.37801758343E+02 -0.66598336662E+03  0.67819317443E+03  0.41800000000E+01 0. -1.
         -5    1    3    3    0  502  0.39887705223E+01  0.37103119420E+02 -0.53301620157E+02  0.65200359449E+02  0.41800000000E+01 0. -1.
        -11    1    1    2    0    0  0.45997990036E+02 -0.40725429889E+02 -0.11287908660E+03  0.12851483929E+03  0.00000000000E+00 0.  1.
         11    1    1    2    0    0  0.72347584163E+02 -0.34179447874E+02 -0.18689650960E+02  0.82168793616E+02  0.00000000000E+00 0. -1.
</event>
<event>
 7    1  0.5109948E-006  0.8481566E+02  0.7561462E-02  0.1315915E+00
          2   -1    0    0  501    0  0.00000000000E+00  0.00000000000E+00  0.15883371200E+03  0.15883371200E+03  0.00000000000E+00 0. -1.
         -2   -1    0    0    0  501 -0.00000000000E+00 -0.00000000000E+00 -0.86415031896E+02  0.86415031896E+02  0.00000000000E+00 0.  1.
         23    2    1    2    0    0  0.50940666032E+01  0.28194645803E+02  0.25037192427E+02  0.13074881763E+03  0.12508998657E+03 0.  0.
          5    1    3    3  502    0  0.26848576070E+02 -0.41692103066E+02 -0.78791111822E+01  0.50384822002E+02  0.41800000000E+01 0. -1.
         -5    1    3    3    0  502 -0.21754509467E+02  0.69886748870E+02  0.32916303609E+02  0.80363995626E+02  0.41800000000E+01 0. -1.
        -11    1    1    2    0    0 -0.16602708485E+02 -0.55406868021E+00 -0.28464954946E+02  0.32957708980E+02  0.00000000000E+00 0.  1.
         11    1    1    2    0    0  0.11508641882E+02 -0.27640577123E+02  0.75846442622E+02  0.81542217287E+02  0.00000000000E+00 0. -1.
</event>
<event>
 7    1  0.5109948E-006  0.5537214E+02  0.7561462E-02  0.1418347E+00
         -4   -1    0    0    0  501 -0.00000000000E+00  0.00000000000E+00  0.12523232500E+04  0.12523232500E+04  0.00000000000E+00 0. -1.
          4   -1    0    0  501    0  0.00000000000E+00 -0.00000000000E+00 -0.15663322981E+02  0.15663322981E+02  0.00000000000E+00 0.  1.
         23    2    1    2    0    0  0.24387017049E+02  0.30622780516E+02  0.10311058539E+04  0.10394035003E+04  0.12509145931E+03 0.  0.
          5    1    3    3  502    0  0.25002430846E+02  0.28726973923E+02  0.10334865842E+04  0.10341964768E+04  0.41800000000E+01 0. -1.
         -5    1    3    3    0  502 -0.61541379695E+00  0.18958065933E+01 -0.23807302847E+01  0.52070234750E+01  0.41800000000E+01 0. -1.
        -11    1    1    2    0    0 -0.42396317739E+02 -0.23128588427E+02  0.20328757027E+03  0.20894548473E+03  0.00000000000E+00 0. -1.
         11    1    1    2    0    0  0.18009300690E+02 -0.74941920897E+01  0.22665028694E+01  0.19637587980E+02  0.00000000000E+00 0.  1.
</event>
<event>
 7    1  0.5109948E-006  0.5792295E+02  0.7561462E-02  0.1406761E+00
          3   -1    0    0  501    0  0.00000000000E+00  0.00000000000E+00  0.63347371175E+02  0.63347371175E+02  0.00000000000E+00 0. -1.
         -3   -1    0    0    0  501 -0.00000000000E+00 -0.00000000000E+00 -0.34854849144E+03  0.34854849144E+03  0.00000000000E+00 0.  1.
         23    2    1    2    0    0 -0.23666570617E+02 -0.21694453263E+02 -0.29094647619E+03  0.31832154589E+03  0.12509196098E+03 0.  0.
          5    1    3    3  502    0 -0.85890713876E-02 -0.46585015691E+01 -0.28871792782E+03  0.28878576135E+03  0.41800000000E+01 0. -1.
         -5    1    3    3    0  502 -0.23657981545E+02 -0.17035951694E+02 -0.22285483712E+01  0.29535784546E+02  0.41800000000E+01 0. -1.
        -11    1    1    2    0    0  0.49016973459E+02  0.39178171162E+01  0.26924119476E+02  0.56061762259E+02  0.00000000000E+00 0. -1.
         11    1    1    2    0    0 -0.25350402842E+02  0.17776636147E+02 -0.21178763550E+02  0.37512554465E+02  0.00000000000E+00 0.  1.
</event>
<event>
 7    1  0.5109948E-006  0.1486397E+03  0.7561462E-02  0.1202154E+00
          3   -1    0    0  501    0  0.00000000000E+00  0.00000000000E+00  0.37478328384E+03  0.37478328384E+03  0.00000000000E+00 0. -1.
         -3   -1    0    0    0  501 -0.00000000000E+00 -0.00000000000E+00 -0.91063246997E+02  0.91063246997E+02  0.00000000000E+00 0.  1.
         23    2    1    2    0    0 -0.75360676289E+02 -0.11573839360E+03  0.79474556560E+02  0.20257228186E+03  0.12507884295E+03 0.  0.
          5    1    3    3  502    0 -0.11338000379E+02 -0.48936011319E+02 -0.30402313423E+02  0.58864730678E+02  0.41800000000E+01 0. -1.
         -5    1    3    3    0  502 -0.64022675910E+02 -0.66802382284E+02  0.10987686998E+03  0.14370755118E+03  0.41800000000E+01 0. -1.
        -11    1    1    2    0    0  0.88080374652E+02  0.92296205211E+02  0.19854392706E+03  0.23600091709E+03  0.00000000000E+00 0. -1.
         11    1    1    2    0    0 -0.12719698363E+02  0.23442188391E+02  0.57015532212E+01  0.27273331886E+02  0.00000000000E+00 0.  1.
</event>
<event>
 6    1  0.5109948E-006  0.1400525E+03  0.7561462E-02  0.1213258E+00
         -1   -1    0    0    0  501 -0.00000000000E+00  0.00000000000E+00  0.47532207660E+02  0.47532207660E+02  0.00000000000E+00 0.  1.
          1   -1    0    0  501    0  0.00000000000E+00 -0.00000000000E+00 -0.58772567550E+03  0.58772567550E+03  0.00000000000E+00 0. -1.
          5    1    1    2  502    0  0.84247572768E+02 -0.11789417079E+01 -0.46173122937E+02  0.96168982019E+02  0.41800000000E+01 0. -1.
         -5    1    1    2    0  502 -0.82676518209E+02  0.44701731698E+02 -0.12582132506E+03  0.15710547323E+03  0.41800000000E+01 0.  1.
        -11    1    1    2    0    0  0.99365775469E+01 -0.71095926540E+02 -0.25611508021E+03  0.26598552716E+03  0.00000000000E+00 0. -1.
         11    1    1    2    0    0 -0.11507632107E+02  0.27573136550E+02 -0.11208393963E+03  0.11599790076E+03  0.00000000000E+00 0.  1.
</event>
<event>
 7    1  0.5109948E-006  0.1615011E+03  0.7561462E-02  0.1187012E+00
          1   -1    0    0  501    0  0.00000000000E+00  0.00000000000E+00  0.77578289604E+02  0.77578289604E+02  0.00000000000E+00 0.  1.
         -1   -1    0    0    0  501 -0.00000000000E+00 -0.00000000000E+00 -0.38164303726E+03  0.38164303726E+03  0.00000000000E+00 0. -1.
         23    2    1    2    0    0  0.11655836956E+03 -0.64670801272E+02 -0.16285504277E+03  0.24482226916E+03  0.12509201601E+03 0.  0.
          5    1    3    3  502    0  0.69397429025E+02 -0.90294000769E+02 -0.60138654007E+02  0.12885317162E+03  0.41800000000E+01 0. -1.
         -5    1    3    3    0  502  0.47160940532E+02  0.25623199497E+02 -0.10271638877E+03  0.11596909755E+03  0.41800000000E+01 0. -1.
        -11    1    1    2    0    0  0.84953672738E+01 -0.70577804258E+01 -0.31075177919E+02  0.32979542331E+02  0.00000000000E+00 0.  1.
         11    1    1    2    0    0 -0.12505373683E+03  0.71728581698E+02 -0.11013452696E+03  0.18141951537E+03  0.00000000000E+00 0. -1.
</event>
<event>
 7    1  0.5109948E-006  0.1420534E+03  0.7561462E-02  0.1210592E+00
          3   -1    0    0  501    0  0.00000000000E+00  0.00000000000E+00  0.52263831257E+02  0.52263831257E+02  0.00000000000E+00 0. -1.
         -3   -1    0    0    0  501 -0.00000000000E+00 -0.00000000000E+00 -0.51784217898E+03  0.51784217898E+03  0.00000000000E+00 0.  1.
         23    2    1    2    0    0  0.80703803348E+02  0.89974429540E+02 -0.29537330538E+03  0.34278318423E+03  0.12508565071E+03 0.  0.
          5    1    3    3  502    0 -0.52389845639E+01 -0.45757850129E+01  0.93194851893E+01  0.12357587626E+02  0.41800000000E+01 0.  1.
         -5    1    3    3    0  502  0.85942787912E+02  0.94550214553E+02 -0.30469279057E+03  0.33042559661E+03  0.41800000000E+01 0.  1.
        -11    1    1    2    0    0 -0.98015030970E+02 -0.64439569887E+02 -0.11610333560E+03  0.16504359728E+03  0.00000000000E+00 0. -1.
         11    1    1    2    0    0  0.17311227622E+02 -0.25534859653E+02 -0.54101706730E+02  0.62279228723E+02  0.00000000000E+00 0.  1.
</event>
<event>
 7    1  0.5109948E-006  0.3026988E+03  0.7561462E-02  0.1083899E+00
          1   -1    0    0  501    0  0.00000000000E+00  0.00000000000E+00  0.11386486089E+04  0.11386486089E+04  0.00000000000E+00 0. -1.
         -1   -1    0    0    0  501 -0.00000000000E+00 -0.00000000000E+00 -0.96351609781E+02  0.96351609781E+02  0.00000000000E+00 0.  1.
         23    2    1    2    0    0  0.28626545296E+03 -0.59217917618E+02  0.73877784204E+03  0.80429755026E+03  0.12508868108E+03 0.  0.
          5    1    3    3  502    0  0.15744927256E+03  0.82871769398E+01  0.50391254924E+03  0.52801920459E+03  0.41800000000E+01 0.  1.
         -5    1    3    3    0  502  0.12881618040E+03 -0.67505094557E+02  0.23486529280E+03  0.27627834567E+03  0.41800000000E+01 0.  1.
        -11    1    1    2    0    0 -0.23202734274E+03  0.15545687869E+02  0.20466112602E+03  0.30978142729E+03  0.00000000000E+00 0.  1.
         11    1    1    2    0    0 -0.54238110221E+02  0.43672229749E+02  0.98858031040E+02  0.12092124111E+03  0.00000000000E+00 0. -1.
</event>
<event>
 7    1  0.5109948E-006  0.1184088E+03  0.7561462E-02  0.1245745E+00
          1   -1    0    0  501    0  0.00000000000E+00  0.00000000000E+00  0.76766795960E+03  0.76766795960E+03  0.00000000000E+00 0. -1.
         -1   -1    0    0    0  501 -0.00000000000E+00 -0.00000000000E+00 -0.19831488130E+02  0.19831488130E+02  0.00000000000E+00 0.  1.
         23    2    1    2    0    0  0.50750520209E+02  0.27673481864E+02  0.45205737271E+03  0.47259067038E+03  0.12507852176E+03 0.  0.
          5    1    3    3  502    0  0.69773656165E+02 -0.29756990769E+02  0.28158832636E+03  0.29165613235E+03  0.41800000000E+01 0.  1.
         -5    1    3    3    0  502 -0.19023135956E+02  0.57430472633E+02  0.17046904635E+03  0.18093453803E+03  0.41800000000E+01 0.  1.
        -11    1    1    2    0    0 -0.38624576111E+02 -0.56781069789E+02  0.13958063868E+03  0.15555932136E+03  0.00000000000E+00 0.  1.
         11    1    1    2    0    0 -0.12125944098E+02  0.29107587925E+02  0.15619846008E+03  0.15934945600E+03  0.00000000000E+00 0. -1.
</event>
<event>
 7    1  0.5109948E-006  0.1062551E+03  0.7561462E-02  0.1267666E+00
         -1   -1    0    0    0  501 -0.00000000000E+00  0.00000000000E+00  0.22126321651E+03  0.22126321651E+03  0.00000000000E+00 0.  1.
          1   -1    0    0  501    0  0.00000000000E+00 -0.00000000000E+00 -0.10134335291E+03  0.10134335291E+03  0.00000000000E+00 0. -1.
         23    2    1    2    0    0  0.82415945927E+02  0.29566189261E+01  0.12725759216E+03  0.19657522624E+03  0.12508475155E+03 0.  0.
          5    1    3    3  502    0 -0.13071906142E+02 -0.17987788996E+02 -0.12592718306E+02  0.25893710385E+02  0.41800000000E+01 0. -1.
         -5    1    3    3    0  502  0.95487852069E+02  0.20944407922E+02  0.13985031047E+03  0.17068151585E+03  0.41800000000E+01 0. -1.
        -11    1    1    2    0    0 -0.21862272053E+02  0.17624866950E+02  0.38278386661E+02  0.47474516951E+02  0.00000000000E+00 0.  1.
         11    1    1    2    0    0 -0.60553673874E+02 -0.20581485876E+02 -0.45616115225E+02  0.78556826239E+02  0.00000000000E+00 0. -1.
</event>
<event>
 7    1  0.5109948E-006  0.1257963E+03  0.7561462E-02  0.1233830E+00
          2   -1    0    0  501    0  0.00000000000E+00  0.00000000000E+00  0.56726064558E+03  0.56726064558E+03  0.00000000000E+00 0. -1.
         -2   -1    0    0    0  501 -0.00000000000E+00 -0.00000000000E+00 -0.35143093412E+02  0.35143093412E+02  0.00000000000E+00 0.  1.
         23    2    1    2    0    0 -0.27321682779E+02  0.82035944005E+02  0.23757099846E+03  0.28207280601E+03  0.12509483651E+03 0.  0.
          5    1    3    3  502    0  0.32992084853E+02  0.99495103253E+01  0.10473481611E+02  0.36257918249E+02  0.41800000000E+01 0. -1.
         -5    1    3    3    0  502 -0.60313767632E+02  0.72086433680E+02  0.22709751685E+03  0.24581488776E+03  0.41800000000E+01 0. -1.
        -11    1    1    2    0    0  0.58284602453E+02 -0.65563650914E+02  0.17516425816E+03  0.19590355928E+03  0.00000000000E+00 0.  1.
         11    1    1    2    0    0 -0.30962919673E+02 -0.16472293091E+02  0.11938229556E+03  0.12442737370E+03  0.00000000000E+00 0. -1.
</event>
<event>
 6    1  0.5109948E-006  0.2103932E+03  0.7561462E-02  0.1141255E+00
          1   -1    0    0  501    0  0.00000000000E+00  0.00000000000E+00  0.36950764010E+03  0.36950764010E+03  0.00000000000E+00 0. -1.
         -1   -1    0    0    0  501 -0.00000000000E+00 -0.00000000000E+00 -0.15767963308E+03  0.15767963308E+03  0.00000000000E+00 0.  1.
          5    1    1    2  502    0 -0.24257481333E+02  0.42908488313E+02  0.67732894500E+02  0.83873602326E+02  0.41800000000E+01 0. -1.
         -5    1    1    2    0  502 -0.98390834950E+02 -0.15666877473E+03 -0.26589787982E+02  0.18695012865E+03  0.41800000000E+01 0.  1.
        -11    1    1    2    0    0  0.89672902882E+02  0.27303533703E+02  0.11501898336E+03  0.14837816213E+03  0.00000000000E+00 0.  1.
         11    1    1    2    0    0  0.32975413401E+02  0.86456752712E+02  0.55665917153E+02  0.10798538008E+03  0.00000000000E+00 0. -1.
</event>
<event>
 7    1  0.5109948E-006  0.1310448E+03  0.7561462E-02  0.1225914E+00
          1   -1    0    0  501    0  0.00000000000E+00  0.00000000000E+00  0.59684750169E+02  0.59684750169E+02  0.00000000000E+00 0. -1.
         -1   -1    0    0    0  501 -0.00000000000E+00 -0.00000000000E+00 -0.34880082201E+03  0.34880082201E+03  0.00000000000E+00 0.  1.
         23    2    1    2    0    0 -0.55808186134E+02  0.75135972153E+02 -0.17088863940E+03  0.23153894921E+03  0.12508952782E+03 0.  0.
          5    1    3    3  502    0 -0.54876295074E+02 -0.21546333677E+02 -0.57382248054E+02  0.82376252935E+02  0.41800000000E+01 0.  1.
         -5    1    3    3    0  502 -0.93189105970E+00  0.96682305830E+02 -0.11350639135E+03  0.14916269627E+03  0.41800000000E+01 0.  1.
        -11    1    1    2    0    0 -0.77076858532E+01 -0.22288011765E+02  0.90007394354E+01  0.25242369145E+02  0.00000000000E+00 0. -1.
         11    1    1    2    0    0  0.63515871987E+02 -0.52847960388E+02 -0.12722817187E+03  0.15170425383E+03  0.00000000000E+00 0.  1.
</event>
<event>
 7    1  0.5109948E-006  0.1706367E+03  0.7561462E-02  0.1177186E+00
         -3   -1    0    0    0  501 -0.00000000000E+00  0.00000000000E+00  0.48654994630E+03  0.48654994630E+03  0.00000000000E+00 0.  1.
          3   -1    0    0  501    0  0.00000000000E+00 -0.00000000000E+00 -0.69761707674E+02  0.69761707674E+02  0.00000000000E+00 0. -1.
         23    2    1    2    0    0 -0.14325202839E+03 -0.12955401657E+02  0.27392167404E+03  0.33372033184E+03  0.12508872973E+03 0.  0.
          5    1    3    3  502    0 -0.79183346515E+01  0.37332970694E+02  0.10312519225E+03  0.11003966740E+03  0.41800000000E+01 0.  1.
         -5    1    3    3    0  502 -0.13533369374E+03 -0.50288372351E+02  0.17079648179E+03  0.22368066445E+03  0.41800000000E+01 0.  1.
        -11    1    1    2    0    0  0.63378410281E+02  0.39020403601E+02  0.10903813962E+03  0.13201791802E+03  0.00000000000E+00 0.  1.
         11    1    1    2    0    0  0.79873618108E+02 -0.26065001944E+02  0.33828424960E+02  0.90573404105E+02  0.00000000000E+00 0. -1.
</event>
<event>
 7    1  0.5109948E-006  0.1035694E+03  0.7561462E-02  0.1272964E+00
         -4   -1    0    0    0  501 -0.00000000000E+00  0.00000000000E+00  0.52246616962E+02  0.52246616962E+02  0.00000000000E+00 0.  1.
          4   -1    0    0  501    0  0.00000000000E+00 -0.00000000000E+00 -0.31942568770E+03  0.31942568770E+03  0.00000000000E+00 0. -1.
         23    2    1    2    0    0 -0.67547042291E+02  0.11335741272E+02 -0.14421127338E+03  0.20281677478E+03  0.12508657326E+03 0.  0.
          5    1    3    3  502    0 -0.79571185331E+02  0.10108367912E+02 -0.26743443058E+02  0.84654809570E+02  0.41800000000E+01 0. -1.
         -5    1    3    3    0  502  0.12024143040E+02  0.12273733599E+01 -0.11746783033E+03  0.11816196521E+03  0.41800000000E+01 0. -1.
        -11    1    1    2    0    0  0.32011529674E+02 -0.51352421718E+02 -0.50797580387E+02  0.79007616225E+02  0.00000000000E+00 0. -1.
         11    1    1    2    0    0  0.35535512617E+02  0.40016680446E+02 -0.72170216965E+02  0.89847913652E+02  0.00000000000E+00 0.  1.
</event>
<event>
 7    1  0.5109948E-006  0.1168337E+03  0.7561462E-02  0.1248414E+00
         -1   -1    0    0    0  501 -0.00000000000E+00  0.00000000000E+00  0.25315760921E+03  0.25315760921E+03  0.00000000000E+00 0.  1.
          1   -1    0    0  501    0  0.00000000000E+00 -0.00000000000E+00 -0.56686887587E+02  0.56686887587E+02  0.00000000000E+00 0. -1.
         23    2    1    2    0    0  0.46124989609E+02  0.10725096509E+02  0.95410853372E+02  0.16429647125E+03  0.12509019610E+03 0.  0.
          5    1    3    3  502    0 -0.37690112845E+02 -0.16414849995E+02  0.50719247408E+02  0.65420993300E+02  0.41800000000E+01 0.  1.
         -5    1    3    3    0  502  0.83815102454E+02  0.27139946504E+02  0.44691605963E+02  0.98875477947E+02  0.41800000000E+01 0.  1.
        -11    1    1    2    0    0 -0.74027004985E+02 -0.16036466923E+02  0.66322563140E+02  0.10067694930E+03  0.00000000000E+00 0. -1.
         11    1    1    2    0    0  0.27902015376E+02  0.53113704139E+01  0.34737305116E+02  0.44871076257E+02  0.00000000000E+00 0.  1.
</event>
<event>
 7    1  0.5109948E-006  0.8894325E+02  0.7561462E-02  0.1305431E+00
         -1   -1    0    0    0  501 -0.00000000000E+00  0.00000000000E+00  0.19397789823E+02  0.19397789823E+02  0.00000000000E+00 0.  1.
          1   -1    0    0  501    0  0.00000000000E+00 -0.00000000000E+00 -0.56953952648E+03  0.56953952648E+03  0.00000000000E+00 0. -1.
         23    2    1    2    0    0  0.21290925763E+01  0.19342061228E+02 -0.26934985328E+03  0.29761670586E+03  0.12509081411E+03 0.  0.
          5    1    3    3  502    0  0.44448663200E+02 -0.14992290466E+02 -0.39831538260E+02  0.61680436719E+02  0.41800000000E+01 0.  1.
         -5    1    3    3    0  502 -0.42319570624E+02  0.34334351694E+02 -0.22951831502E+03  0.23593626914E+03  0.41800000000E+01 0.  1.
        -11    1    1    2    0    0 -0.27783758873E+02  0.16306553047E+02 -0.91674721094E+02  0.97170445182E+02  0.00000000000E+00 0.  1.
         11    1    1    2    0    0  0.25654666297E+02 -0.35648614275E+02 -0.18911716228E+03  0.19415016526E+03  0.00000000000E+00 0. -1.
</event>
<event>
 7    1  0.5109948E-006  0.1203477E+03  0.7561462E-02  0.1242525E+00
         -4   -1    0    0    0  501 -0.00000000000E+00  0.00000000000E+00  0.28262709082E+02  0.28262709082E+02  0.00000000000E+00 0.  1.
          4   -1    0    0  501    0  0.00000000000E+00 -0.00000000000E+00 -0.80179597868E+03  0.80179597868E+03  0.00000000000E+00 0. -1.
         23    2    1    2    0    0  0.10879914230E+02 -0.50917258730E+02 -0.17008458792E+03  0.21745678978E+03  0.12509096130E+03 0.  0.
          5    1    3    3  502    0  0.10353861159E+02 -0.92615403208E+02 -0.12388332199E+03  0.15507857756E+03  0.41800000000E+01 0. -1.
         -5    1    3    3    0  502  0.52605307109E+00  0.41698144478E+02 -0.46201265938E+02  0.62378212214E+02  0.41800000000E+01 0. -1.
        -11    1    1    2    0    0 -0.46005139995E+02  0.53159499032E+02 -0.40447833188E+03  0.41054247796E+03  0.00000000000E+00 0.  1.
         11    1    1    2    0    0  0.35125225765E+02 -0.22422403023E+01 -0.19897034979E+03  0.20205942003E+03  0.00000000000E+00 0. -1.
</event>
<event>
 7    1  0.5109948E-006  0.1160135E+03  0.7561462E-02  0.1249822E+00
         -1   -1    0    0    0  501 -0.00000000000E+00  0.00000000000E+00  0.63100213535E+03  0.63100213535E+03  0.00000000000E+00 0.  1.
          1   -1    0    0  501    0  0.00000000000E+00 -0.00000000000E+00 -0.25902347499E+02  0.25902347499E+02  0.00000000000E+00 0. -1.
         23    2    1    2    0    0 -0.36111675443E+02  0.57880926089E+02  0.31690764379E+03  0.34746759376E+03  0.12509604037E+03 0.  0.
          5    1    3    3  502    0 -0.69114452344E+02  0.49305778673E+02  0.11693384947E+03  0.14456439702E+03  0.41800000000E+01 0.  1.
         -5    1    3    3    0  502  0.33002776900E+02  0.85751474157E+01  0.19997379432E+03  0.20290319675E+03  0.41800000000E+01 0.  1.
        -11    1    1    2    0    0 -0.14306402515E+02 -0.60516228809E+02  0.16082225433E+03  0.17242588144E+03  0.00000000000E+00 0.  1.
         11    1    1    2    0    0  0.50418077958E+02  0.26353027204E+01  0.12736988973E+03  0.13701100764E+03  0.00000000000E+00 0. -1.
</event>
<event>
 7    1  0.5109948E-006  0.1056481E+03  0.7561462E-02  0.1268848E+00
         -4   -1    0    0    0  501 -0.00000000000E+00  0.00000000000E+00  0.20996408105E+03  0.20996408105E+03  0.00000000000E+00 0.  1.
          4   -1    0    0  501    0  0.00000000000E+00 -0.00000000000E+00 -0.65052886520E+02  0.65052886520E+02  0.00000000000E+00 0. -1.
         23    2    1    2    0    0 -0.30285823027E+01 -0.36197293259E+01  0.13638381316E+03  0.18512290868E+03  0.12509065544E+03 0.  0.
          5    1    3    3  502    0  0.49994248729E+02 -0.36548335066E+02  0.59228050741E+02  0.85794172860E+02  0.41800000000E+01 0. -1.
         -5    1    3    3    0  502 -0.53022831031E+02  0.32928605740E+02  0.77155762415E+02  0.99328735824E+02  0.41800000000E+01 0. -1.
        -11    1    1    2    0    0 -0.40994702010E+02  0.99757329637E+01 -0.70288057251E+01  0.42772478897E+02  0.00000000000E+00 0.  1.
         11    1    1    2    0    0  0.44023284313E+02 -0.63560036378E+01  0.15556187103E+02  0.47121579994E+02  0.00000000000E+00 0. -1.
</event>
<event>
 6    1  0.5109948E-006  0.1108252E+03  0.7561462E-02  0.1259049E+00
          2   -1    0    0  501    0  0.00000000000E+00  0.00000000000E+00  0.49986891534E+03  0.49986891534E+03  0.00000000000E+00 0. -1.
         -2   -1    0    0    0  501 -0.00000000000E+00 -0.00000000000E+00 -0.94873194408E+02  0.94873194408E+02  0.00000000000E+00 0.  1.
          5    1    1    2  502    0  0.19790746042E+02 -0.51583567982E+02  0.30340649407E+02  0.63170923067E+02  0.41800000000E+01 0. -1.
         -5    1    1    2    0  502 -0.43114810385E+02  0.55973489335E+02 -0.56073057558E+02  0.90297168100E+02  0.41800000000E+01 0.  1.
        -11    1    1    2    0    0 -0.15474656081E+02 -0.39946156432E+02  0.21425062450E+03  0.21849139684E+03  0.00000000000E+00 0. -1.
         11    1    1    2    0    0  0.38798720424E+02  0.35556235079E+02  0.21647750458E+03  0.22278262174E+03  0.00000000000E+00 0.  1.
</event>
<event>
 7    1  0.5109948E-006  0.9376374E+02  0.7561462E-02  0.1293985E+00
         -1   -1    0    0    0  501 -0.00000000000E+00  0.00000000000E+00  0.80149361579E+02  0.80149361579E+02  0.00000000000E+00 0.  1.
          1   -1    0    0  501    0  0.00000000000E+00 -0.00000000000E+00 -0.14827149750E+03  0.14827149750E+03  0.00000000000E+00 0. -1.
         23    2    1    2    0    0 -0.18366254946E+01  0.14785821278E+02 -0.35941291899E+02  0.12947569473E+03  0.12349164084E+03 0.  0.
          5    1    3    3  502    0  0.22388772332E+02  0.59217867005E+02 -0.45145129985E+02  0.77868915881E+02  0.41800000000E+01 0. -1.
         -5    1    3    3    0  502 -0.24225397826E+02 -0.44432045727E+02  0.92038380861E+01  0.51606778846E+02  0.41800000000E+01 0.  1.
        -11    1    1    2    0    0  0.21971290246E+02  0.22172236429E+02  0.15912826646E+02  0.35036605361E+02  0.00000000000E+00 0. -1.
         11    1    1    2    0    0 -0.20134664751E+02 -0.36958057707E+02 -0.48093670669E+02  0.63908558992E+02  0.00000000000E+00 0.  1.
</event>
<event>
 7    1  0.5109948E-006  0.1448268E+03  0.7561462E-02  0.1206978E+00
          1   -1    0    0  501    0  0.00000000000E+00  0.00000000000E+00  0.29370392300E+03  0.29370392300E+03  0.00000000000E+00 0. -1.
         -1   -1    0    0    0  501 -0.00000000000E+00 -0.00000000000E+00 -0.89050560652E+02  0.89050560652E+02  0.00000000000E+00 0.  1.
         23    2    1    2    0    0  0.23508113002E+02  0.10155147388E+03  0.38923437949E+02  0.16741218342E+03  0.12508585817E+03 0.  0.
          5    1    3    3  502    0  0.13201949631E+02 -0.24709835568E+02 -0.12068468391E+02  0.30789410146E+02  0.41800000000E+01 0. -1.
         -5    1    3    3    0  502  0.10306163371E+02  0.12626130944E+03  0.50991906340E+02  0.13662277328E+03  0.41800000000E+01 0. -1.
        -11    1    1    2    0    0  0.30450637280E+02 -0.56917558907E+02  0.57577423902E+02  0.86498610197E+02  0.00000000000E+00 0.  1.
         11    1    1    2    0    0 -0.53958750282E+02 -0.44633914969E+02  0.10815250050E+03  0.12884369003E+03  0.00000000000E+00 0. -1.
</event>
<event>
 7    1  0.5109948E-006  0.1409661E+03  0.7561462E-02  0.1212035E+00
          1   -1    0    0  501    0  0.00000000000E+00  0.00000000000E+00  0.27506066608E+02  0.27506066608E+02  0.00000000000E+00 0. -1.
         -1   -1    0    0    0  501 -0.00000000000E+00 -0.00000000000E+00 -0.12563128997E+04  0.12563128997E+04  0.00000000000E+00 0.  1.
         23    2    1    2    0    0 -0.80933077262E+02 -0.48961054599E+02 -0.10519007958E+04  0.10635271226E+04  0.12508920177E+03 0.  0.
          5    1    3    3  502    0  0.51251760187E+01 -0.68158582940E+02 -0.47597727487E+03  0.48087804946E+03  0.41800000000E+01 0.  1.
         -5    1    3    3    0  502 -0.86058253281E+02  0.19197528342E+02 -0.57592352091E+03  0.58264907310E+03  0.41800000000E+01 0.  1.
        -11    1    1    2    0    0 -0.15848193108E+02 -0.17049138606E+01 -0.51834631536E+02  0.54230074521E+02  0.00000000000E+00 0.  1.
         11    1    1    2    0    0  0.96781270370E+02  0.50665968459E+02 -0.12507140576E+03  0.16606176921E+03  0.00000000000E+00 0. -1.
</event>
<event>
 7    1  0.5109948E-006  0.1181360E+03  0.7561462E-02  0.1246204E+00
          2   -1    0    0  501    0  0.00000000000E+00  0.00000000000E+00  0.73775330168E+02  0.73775330168E+02  0.00000000000E+00 0. -1.
         -2   -1    0    0    0  501 -0.00000000000E+00 -0.00000000000E+00 -0.36613574493E+03  0.36613574493E+03  0.00000000000E+00 0.  1.
         23    2    1    2    0    0  0.48975959360E+02 -0.45148865598E+02 -0.29409185054E+03  0.32645738009E+03  0.12508932731E+03 0.  0.
          5    1    3    3  502    0 -0.27073555491E+02  0.14788969665E+02 -0.23422124874E+02  0.38958431235E+02  0.41800000000E+01 0.  1.
         -5    1    3    3    0  502  0.76049514850E+02 -0.59937835263E+02 -0.27066972566E+03  0.28749894886E+03  0.41800000000E+01 0.  1.
        -11    1    1    2    0    0  0.11830742722E+02 -0.17364323551E+02 -0.13429940224E+02  0.24936910397E+02  0.00000000000E+00 0.  1.
         11    1    1    2    0    0 -0.60806702082E+02  0.62513189149E+02  0.15161375995E+02  0.88516784610E+02  0.00000000000E+00 0. -1.
</event>
<event>
 7    1  0.5109948E-006  0.1214629E+03  0.7561462E-02  0.1240703E+00
          2   -1    0    0  501    0  0.00000000000E+00  0.00000000000E+00  0.20297809389E+03  0.20297809389E+03  0.00000000000E+00 0. -1.
         -2   -1    0    0    0  501 -0.00000000000E+00 -0.00000000000E+00 -0.17889358473E+03  0.17889358473E+03  0.00000000000E+00 0.  1.
         23    2    1    2    0    0 -0.67674266891E+00 -0.83847928716E+02 -0.11963774575E+03  0.19233136443E+03  0.12508889001E+03 0.  0.
          5    1    3    3  502    0  0.47043182484E+02 -0.19070017538E+02 -0.95490121453E+02  0.10822459186E+03  0.41800000000E+01 0.  1.
         -5    1    3    3    0  502 -0.47719925153E+02 -0.64777911178E+02 -0.24147624301E+02  0.84106772573E+02  0.41800000000E+01 0.  1.
        -11    1    1    2    0    0  0.23763236539E+02  0.85051624803E+02  0.14085046755E+03  0.16624477286E+03  0.00000000000E+00 0. -1.
         11    1    1    2    0    0 -0.23086493871E+02 -0.12036960866E+01  0.28717873565E+01  0.23295541336E+02  0.00000000000E+00 0.  1.
</event>
<event>
 7    1  0.5109948E-006  0.1715042E+03  0.7561462E-02  0.1176288E+00
          2   -1    0    0  501    0  0.00000000000E+00  0.00000000000E+00  0.61956813329E+03  0.61956813329E+03  0.00000000000E+00 0. -1.
         -2   -1    0    0    0  501 -0.00000000000E+00 -0.00000000000E+00 -0.14199140387E+03  0.14199140387E+03  0.00000000000E+00 0.  1.
         23    2    1    2    0    0 -0.12933687268E+03  0.11027750541E+03 -0.35096683744E+02  0.21393729494E+03  0.12509290196E+03 0.  0.
          5    1    3    3  502    0 -0.69369172419E+02  0.58320824882E+02 -0.81473597525E+02  0.12193777180E+03  0.41800000000E+01 0. -1.
         -5    1    3    3    0  502 -0.59967700258E+02  0.51956680530E+02  0.46376913782E+02  0.91999523139E+02  0.41800000000E+01 0. -1.
        -11    1    1    2    0    0  0.29541993975E+02 -0.95753064360E+01  0.25328777628E+02  0.40074466653E+02  0.00000000000E+00 0.  1.
         11    1    1    2    0    0  0.99794878703E+02 -0.10070219898E+03  0.48734463554E+03  0.50754777557E+03  0.00000000000E+00 0. -1.
</event>
<event>
 7    1  0.5109948E-006  0.1401687E+03  0.7561462E-02  0.1213102E+00
          1   -1    0    0  501    0  0.00000000000E+00  0.00000000000E+00  0.45931345585E+03  0.45931345585E+03  0.00000000000E+00 0.  1.
         -1   -1    0    0    0  501 -0.00000000000E+00 -0.00000000000E+00 -0.57046831113E+02  0.57046831113E+02  0.00000000000E+00 0. -1.
         23    2    1    2    0    0 -0.97363999754E+02  0.51771537158E+02  0.14624658090E+03  0.22180198674E+03  0.12509203966E+03 0.  0.
          5    1    3    3  502    0 -0.58491695278E+02  0.88831086430E+02  0.66304106784E+02  0.12540313915E+03  0.41800000000E+01 0.  1.
         -5    1    3    3    0  502 -0.38872304476E+02 -0.37059549272E+02  0.79942474116E+02  0.96398847583E+02  0.41800000000E+01 0.  1.
        -11    1    1    2    0    0  0.35538853552E+02  0.52453757274E+01  0.17187499922E+03  0.17558912106E+03  0.00000000000E+00 0.  1.
         11    1    1    2    0    0  0.61825146203E+02 -0.57016912886E+02  0.84145044621E+02  0.11896917917E+03  0.00000000000E+00 0. -1.
</event>
<event>
 7    1  0.5109948E-006  0.1202934E+03  0.7561462E-02  0.1242614E+00
         -1   -1    0    0    0  501 -0.00000000000E+00  0.00000000000E+00  0.38772675224E+03  0.38772675224E+03  0.00000000000E+00 0.  1.
          1   -1    0    0  501    0  0.00000000000E+00 -0.00000000000E+00 -0.62813962042E+02  0.62813962042E+02  0.00000000000E+00 0. -1.
         23    2    1    2    0    0  0.72110075841E+02  0.71051607294E+02  0.24289645367E+03  0.29136490035E+03  0.12508646616E+03 0.  0.
          5    1    3    3  502    0  0.95404843021E+02  0.50728256487E+02  0.23574246595E+03  0.25935963975E+03  0.41800000000E+01 0. -1.
         -5    1    3    3    0  502 -0.23294767180E+02  0.20323350807E+02  0.71539877130E+01  0.32005260602E+02  0.41800000000E+01 0. -1.
        -11    1    1    2    0    0 -0.20028280664E+02 -0.21139488036E+02  0.82022933777E+02  0.87038908806E+02  0.00000000000E+00 0.  1.
         11    1    1    2    0    0 -0.52081795177E+02 -0.49912119258E+02 -0.65972416707E-02  0.72136905126E+02  0.00000000000E+00 0. -1.
</event>
<event>
 7    1  0.5109948E-006  0.1705748E+03  0.7561462E-02  0.1177250E+00
         -1   -1    0    0    0  501 -0.00000000000E+00  0.00000000000E+00  0.25175425668E+03  0.25175425668E+03  0.00000000000E+00 0.  1.
          1   -1    0    0  501    0  0.00000000000E+00 -0.00000000000E+00 -0.13381388845E+03  0.13381388845E+03  0.00000000000E+00 0. -1.
         23    2    1    2    0    0 -0.27978287579E+02 -0.14227290781E+03  0.11332945568E+03  0.21625612932E+03  0.11357280956E+03 0.  0.
          5    1    3    3  502    0  0.43816885737E+02 -0.58901715874E+02  0.37278135774E+02  0.82440666029E+02  0.41800000000E+01 0. -1.
         -5    1    3    3    0  502 -0.71795173316E+02 -0.83371191935E+02  0.76051319905E+02  0.13381546329E+03  0.41800000000E+01 0.  1.
        -11    1    1    2    0    0 -0.10706040896E+02  0.67418794194E+00 -0.17840363754E+02  0.20817118435E+02  0.00000000000E+00 0.  1.
         11    1    1    2    0    0  0.38684328476E+02  0.14159871987E+03  0.22451276301E+02  0.14849489737E+03  0.00000000000E+00 0. -1.
</event>
<event>
 7    1  0.5109948E-006  0.1280721E+03  0.7561462E-02  0.1230345E+00
          2   -1    0    0  501    0  0.00000000000E+00  0.00000000000E+00  0.22093867625E+03  0.22093867625E+03  0.00000000000E+00 0. -1.
         -2   -1    0    0    0  501 -0.00000000000E+00 -0.00000000000E+00 -0.11580506040E+03  0.11580506040E+03  0.00000000000E+00 0.  1.
         23    2    1    2    0    0 -0.51345807188E+02  0.96444455207E+02  0.10435216786E+03  0.19614990973E+03  0.12508991683E+03 0.  0.
          5    1    3    3  502    0 -0.26302850090E+02  0.83000918179E+02 -0.77018267795E+00  0.87172575520E+02  0.41800000000E+01 0.  1.
         -5    1    3    3    0  502 -0.25042957099E+02  0.13443537028E+02  0.10512235054E+03  0.10897733421E+03  0.41800000000E+01 0.  1.
        -11    1    1    2    0    0  0.48515218111E+02 -0.50159297931E+01  0.49649563560E+01  0.49025878184E+02  0.00000000000E+00 0. -1.
         11    1    1    2    0    0  0.28305890769E+01 -0.91428525414E+02 -0.41835083717E+01  0.91567948738E+02  0.00000000000E+00 0.  1.
</event>
<event>
 7    1  0.7081454E-006  0.2011886E+03  0.7561462E-02  0.1148740E+00
          1   -1    0    0  501    0  0.00000000000E+00  0.00000000000E+00  0.20779637533E+04  0.20779637533E+04  0.00000000000E+00 0.  1.
         -1   -1    0    0    0  501 -0.00000000000E+00 -0.00000000000E+00 -0.20351786665E+02  0.20351786665E+02  0.00000000000E+00 0. -1.
         23    2    1    2    0    0  0.42487283390E+02  0.16925091111E+03  0.11232479328E+04  0.11435839033E+04  0.12508870910E+03 0.  0.
          5    1    3    3  502    0  0.75673437632E+02  0.74525480720E+02  0.73047097564E+03  0.73816382673E+03  0.41800000000E+01 0.  1.
         -5    1    3    3    0  502 -0.33186154243E+02  0.94725430387E+02  0.39277695716E+03  0.40542007655E+03  0.41800000000E+01 0.  1.
        -11    1    1    2    0    0  0.17152271433E+01 -0.14538242593E+03  0.66265514034E+03  0.67841788508E+03  0.00000000000E+00 0. -1.
         11    1    1    2    0    0 -0.44202510533E+02 -0.23868485180E+02  0.27170889346E+03  0.27631375157E+03  0.00000000000E+00 0.  1.
</event>
<event>
 7    1  0.5109948E-006  0.1126249E+03  0.7561462E-02  0.1255785E+00
          1   -1    0    0  501    0  0.00000000000E+00  0.00000000000E+00  0.23898290576E+03  0.23898290576E+03  0.00000000000E+00 0. -1.
         -1   -1    0    0    0  501 -0.00000000000E+00 -0.00000000000E+00 -0.10044510503E+03  0.10044510503E+03  0.00000000000E+00 0.  1.
         23    2    1    2    0    0  0.94183069529E+02  0.32695238872E+02  0.39001457148E+02  0.16463763639E+03  0.12508000809E+03 0.  0.
          5    1    3    3  502    0  0.45771994931E+02  0.44988160728E+02  0.78024886765E+02  0.10111560453E+03  0.41800000000E+01 0. -1.
         -5    1    3    3    0  502  0.48411074598E+02 -0.12292921857E+02 -0.39023429616E+02  0.63522031851E+02  0.41800000000E+01 0. -1.
        -11    1    1    2    0    0 -0.65345104049E+02  0.23994526609E+01  0.10650110883E-01  0.65389143669E+02  0.00000000000E+00 0.  1.
         11    1    1    2    0    0 -0.28837965479E+02 -0.35094691533E+02  0.99525693472E+02  0.10940123074E+03  0.00000000000E+00 0. -1.
</event>
<event>
 7    1  0.5109948E-006  0.8884515E+02  0.7561462E-02  0.1305673E+00
         -2   -1    0    0    0  501 -0.00000000000E+00  0.00000000000E+00  0.30782919441E+02  0.30782919441E+02  0.00000000000E+00 0.  1.
          2   -1    0    0  501    0  0.00000000000E+00 -0.00000000000E+00 -0.46471956368E+03  0.46471956368E+03  0.00000000000E+00 0. -1.
         23    2    1    2    0    0 -0.39993400285E+02 -0.30185677163E+02 -0.23781349166E+03  0.27333688646E+03  0.12508856667E+03 0.  0.
          5    1    3    3  502    0 -0.55157650803E+02  0.94334126611E+01 -0.35095457578E+02  0.66185491304E+02  0.41800000000E+01 0.  1.
         -5    1    3    3    0  502  0.15164250518E+02 -0.39619089824E+02 -0.20271803409E+03  0.20715139516E+03  0.41800000000E+01 0.  1.
        -11    1    1    2    0    0 -0.81306264034E+01  0.29730525851E+02 -0.14111879751E+02  0.33899209478E+02  0.00000000000E+00 0.  1.
         11    1    1    2    0    0  0.48124026689E+02  0.45515131140E+00 -0.18201127283E+03  0.18826638718E+03  0.00000000000E+00 0. -1.
</event>
<event>
 7    1  0.5109948E-006  0.9517303E+02  0.7561462E-02  0.1290787E+00
         -1   -1    0    0    0  501 -0.00000000000E+00  0.00000000000E+00  0.74569687988E+02  0.74569687988E+02  0.00000000000E+00 0.  1.
          1   -1    0    0  501    0  0.00000000000E+00 -0.00000000000E+00 -0.23606592401E+03  0.23606592401E+03  0.00000000000E+00 0. -1.
         23    2    1    2    0    0 -0.28766404535E+02 -0.37765835784E+02 -0.19407439812E+02  0.13518965709E+03  0.12508329338E+03 0.  0.
          5    1    3    3  502    0  0.32287775685E+02 -0.54448629140E+02  0.11751916973E+02  0.64519250046E+02  0.41800000000E+01 0.  1.
         -5    1    3    3    0  502 -0.61054180220E+02  0.16682793357E+02 -0.31159356786E+02  0.70670407045E+02  0.41800000000E+01 0.  1.
        -11    1    1    2    0    0  0.39864173501E+02  0.30755569732E+02 -0.15126871976E+03  0.15942798680E+03  0.00000000000E+00 0. -1.
         11    1    1    2    0    0 -0.11097768966E+02  0.70102660512E+01  0.91799235424E+01  0.16017968110E+02  0.00000000000E+00 0.  1.
</event>
<event>
 7    1  0.5109948E-006  0.8651827E+02  0.7561462E-02  0.1311509E+00
         -1   -1    0    0    0  501 -0.00000000000E+00  0.00000000000E+00  0.23627907631E+03  0.23627907631E+03  0.00000000000E+00 0.  1.
          1   -1    0    0  501    0  0.00000000000E+00 -0.00000000000E+00 -0.44821750314E+02  0.44821750314E+02  0.00000000000E+00 0. -1.
         23    2    1    2    0    0  0.11059625099E+00 -0.15719611185E+02  0.12107820715E+03  0.17479623532E+03  0.12508666287E+03 0.  0.
          5    1    3    3  502    0  0.18725884390E+02 -0.59738637274E+02  0.10827545981E+03  0.12514156434E+03  0.41800000000E+01 0.  1.
         -5    1    3    3    0  502 -0.18615288139E+02  0.44019026089E+02  0.12802747338E+02  0.49654670976E+02  0.41800000000E+01 0.  1.
        -11    1    1    2    0    0 -0.30137707542E+02  0.57791927920E+01  0.67978508728E+02  0.74583899966E+02  0.00000000000E+00 0.  1.
         11    1    1    2    0    0  0.30027111291E+02  0.99404183933E+01  0.24006101247E+01  0.31720691343E+02  0.00000000000E+00 0. -1.
</event>
<event>
 7    1  0.5109948E-006  0.1287667E+03  0.7561462E-02  0.1229297E+00
          2   -1    0    0  501    0  0.00000000000E+00  0.00000000000E+00  0.73657342924E+03  0.73657342924E+03  0.00000000000E+00 0. -1.
         -2   -1    0    0    0  501 -0.00000000000E+00 -0.00000000000E+00 -0.31463558836E+02  0.31463558836E+02  0.00000000000E+00 0.  1.
         23    2    1    2    0    0 -0.10188054120E+03 -0.20576031299E+02  0.32010008763E+03  0.35905067975E+03  0.12510118621E+03 0.  0.
          5    1    3    3  502    0 -0.10091951915E+02 -0.49641671314E+02  0.46188937955E+02  0.68680662590E+02  0.41800000000E+01 0.  1.
         -5    1    3    3    0  502 -0.91788589290E+02  0.29065640015E+02  0.27391114967E+03  0.29037001716E+03  0.41800000000E+01 0.  1.
        -11    1    1    2    0    0  0.61639449280E+02 -0.62716648287E+01  0.32985263462E+03  0.33562109000E+03  0.00000000000E+00 0. -1.
         11    1    1    2    0    0  0.40241091924E+02  0.26847696128E+02  0.55157148156E+02  0.73365218321E+02  0.00000000000E+00 0.  1.
</event>
<event>
 7    1  0.5109948E-006  0.1073220E+03  0.7561462E-02  0.1265611E+00
          1   -1    0    0  501    0  0.00000000000E+00  0.00000000000E+00  0.45714709718E+02  0.45714709718E+02  0.00000000000E+00 0. -1.
         -1   -1    0    0    0  501 -0.00000000000E+00 -0.00000000000E+00 -0.36307215166E+03  0.36307215166E+03  0.00000000000E+00 0.  1.
         23    2    1    2    0    0 -0.62545582985E+02  0.29510205884E+01 -0.20004569400E+03  0.24410264269E+03  0.12508861662E+03 0.  0.
          5    1    3    3  502    0  0.16323914678E+02 -0.33206008911E+02 -0.15883140264E+02  0.40482783536E+02  0.41800000000E+01 0.  1.
         -5    1    3    3    0  502 -0.78869497663E+02  0.36157029499E+02 -0.18416255374E+03  0.20361985916E+03  0.41800000000E+01 0.  1.
        -11    1    1    2    0    0  0.63545457421E+02  0.20730442306E+02 -0.12328644189E+03  0.14024023371E+03  0.00000000000E+00 0.  1.
         11    1    1    2    0    0 -0.99987443645E+00 -0.23681462894E+02  0.59746939486E+01  0.24443984975E+02  0.00000000000E+00 0. -1.
</event>
<event>
 7    1  0.5109948E-006  0.1076153E+03  0.7561462E-02  0.1265051E+00
          1   -1    0    0  501    0  0.00000000000E+00  0.00000000000E+00  0.13494689836E+03  0.13494689836E+03  0.00000000000E+00 0. -1.
         -1   -1    0    0    0  501 -0.00000000000E+00 -0.00000000000E+00 -0.98983568136E+02  0.98983568136E+02  0.00000000000E+00 0.  1.
         23    2    1    2    0    0  0.20405108432E+02 -0.29993270182E+01 -0.14771492915E+02  0.12763456171E+03  0.12508804870E+03 0.  0.
          5    1    3    3  502    0  0.28307840047E+02 -0.58984250855E+02  0.89708149348E+01  0.66169657530E+02  0.41800000000E+01 0.  1.
         -5    1    3    3    0  502 -0.79027316146E+01  0.55984923837E+02 -0.23742307850E+02  0.61464904181E+02  0.41800000000E+01 0.  1.
        -11    1    1    2    0    0 -0.56513786468E+02 -0.18546051033E+01  0.35772336173E+02  0.66909697775E+02  0.00000000000E+00 0. -1.
         11    1    1    2    0    0  0.36108678036E+02  0.48539321215E+01  0.14962486969E+02  0.39386207013E+02  0.00000000000E+00 0.  1.
</event>
<event>
 7    1  0.5109948E-006  0.9616710E+02  0.7561462E-02  0.1288569E+00
          1   -1    0    0  501    0  0.00000000000E+00  0.00000000000E+00  0.49627962223E+03  0.49627962223E+03  0.00000000000E+00 0. -1.
         -1   -1    0    0    0  501 -0.00000000000E+00 -0.00000000000E+00 -0.28401289202E+02  0.28401289202E+02  0.00000000000E+00 0.  1.
         23    2    1    2    0    0 -0.41416648973E+02  0.18148841820E+02  0.23884083135E+03  0.27338735716E+03  0.12510389708E+03 0.  0.
          5    1    3    3  502    0 -0.75986951639E+02  0.15243263673E+02  0.22083736180E+03  0.23407901801E+03  0.41800000000E+01 0.  1.
         -5    1    3    3    0  502  0.34570302666E+02  0.29055781465E+01  0.18003469549E+02  0.39308339148E+02  0.41800000000E+01 0.  1.
        -11    1    1    2    0    0 -0.79394875900E+01 -0.28296408757E+02  0.18311911466E+02  0.34627277012E+02  0.00000000000E+00 0.  1.
         11    1    1    2    0    0  0.49356136563E+02  0.10147566937E+02  0.21072559021E+03  0.21666627725E+03  0.00000000000E+00 0. -1.
</event>
<event>
 7    1  0.5109948E-006  0.1568805E+03  0.7561462E-02  0.1192264E+00
         -2   -1    0    0    0  501 -0.00000000000E+00  0.00000000000E+00  0.49542807895E+02  0.49542807895E+02  0.00000000000E+00 0.  1.
          2   -1    0    0  501    0  0.00000000000E+00 -0.00000000000E+00 -0.66390377857E+03  0.66390377857E+03  0.00000000000E+00 0. -1.
         23    2    1    2    0    0  0.10762712632E+03  0.75702944077E+02 -0.19782100161E+03  0.26850439838E+03  0.12508768609E+03 0.  0.
          5    1    3    3  502    0  0.77719623131E+02 -0.68262058583E+01 -0.14832312784E+03  0.16764295261E+03  0.41800000000E+01 0. -1.
         -5    1    3    3    0  502  0.29907503189E+02  0.82529149935E+02 -0.49497873766E+02  0.10086144577E+03  0.41800000000E+01 0. -1.
        -11    1    1    2    0    0 -0.10227238975E+03 -0.37125276709E+02 -0.36148178092E+03  0.37750100107E+03  0.00000000000E+00 0. -1.
         11    1    1    2    0    0 -0.53547365737E+01 -0.38577667368E+02 -0.55058188148E+02  0.67441187011E+02  0.00000000000E+00 0.  1.
</event>
<event>
 6    1  0.5109948E-006  0.1117013E+03  0.7561462E-02  0.1257451E+00
          2   -1    0    0  501    0  0.00000000000E+00  0.00000000000E+00  0.51755168956E+03  0.51755168956E+03  0.00000000000E+00 0. -1.
         -2   -1    0    0    0  501 -0.00000000000E+00 -0.00000000000E+00 -0.33711908599E+02  0.33711908599E+02  0.00000000000E+00 0.  1.
          5    1    1    2  502    0 -0.68981770632E+02  0.53968351782E+02  0.25615939409E+03  0.27075113159E+03  0.41800000000E+01 0. -1.
         -5    1    1    2    0  502  0.14857994025E+02 -0.28231822395E+02  0.57348537762E+01  0.32682667119E+02  0.41800000000E+01 0.  1.
        -11    1    1    2    0    0  0.62947737781E+02  0.12606322652E+02  0.92930821677E+02  0.11294899150E+03  0.00000000000E+00 0.  1.
         11    1    1    2    0    0 -0.88239611737E+01 -0.38342852039E+02  0.12901471141E+03  0.13488080795E+03  0.00000000000E+00 0. -1.
</event>
<event>
 7    1  0.5109948E-006  0.1156888E+03  0.7561462E-02  0.1250383E+00
          2   -1    0    0  501    0  0.00000000000E+00  0.00000000000E+00  0.33344076258E+03  0.33344076258E+03  0.00000000000E+00 0. -1.
         -2   -1    0    0    0  501 -0.00000000000E+00 -0.00000000000E+00 -0.53845256821E+02  0.53845256821E+02  0.00000000000E+00 0.  1.
         23    2    1    2    0    0 -0.32471930761E+02 -0.53970115254E+02  0.84607282810E+02  0.16362448445E+03  0.12508948789E+03 0.  0.
          5    1    3    3  502    0  0.23552514085E+02  0.20438546839E+02 -0.77346662759E+01  0.32399885479E+02  0.41800000000E+01 0. -1.
         -5    1    3    3    0  502 -0.56024444847E+02 -0.74408662093E+02  0.92341949086E+02  0.13122459897E+03  0.41800000000E+01 0. -1.
        -11    1    1    2    0    0 -0.29707909573E+02  0.20148908127E+02  0.91430979263E+02  0.98225059729E+02  0.00000000000E+00 0.  1.
         11    1    1    2    0    0  0.62179840334E+02  0.33821207127E+02  0.10355724368E+03  0.12543647522E+03  0.00000000000E+00 0. -1.
</event>
<event>
 7    1  0.5109948E-006  0.1585069E+03  0.7561462E-02  0.1190393E+00
          1   -1    0    0  501    0  0.00000000000E+00  0.00000000000E+00  0.29680234592E+03  0.29680234592E+03  0.00000000000E+00 0. -1.
         -1   -1    0    0    0  501 -0.00000000000E+00 -0.00000000000E+00 -0.10171426309E+03  0.10171426309E+03  0.00000000000E+00 0.  1.
         23    2    1    2    0    0  0.65073277521E+02  0.10894332794E+03  0.51861853060E+02  0.18558173668E+03  0.12509096305E+03 0.  0.
          5    1    3    3  502    0  0.22593307191E+02 -0.24286334911E+02  0.28108782582E+02  0.43679052777E+02  0.41800000000E+01 0.  1.
         -5    1    3    3    0  502  0.42479970330E+02  0.13322966285E+03  0.23753070478E+02  0.14190268390E+03  0.41800000000E+01 0.  1.
        -11    1    1    2    0    0 -0.69479802602E+01 -0.77083789762E+02  0.32623551488E+02  0.83990958951E+02  0.00000000000E+00 0.  1.
         11    1    1    2    0    0 -0.58125297261E+02 -0.31859538174E+02  0.11060267829E+03  0.12894391338E+03  0.00000000000E+00 0. -1.
</event>
<event>
 7    1  0.5109948E-006  0.9744232E+02  0.7561462E-02  0.1285768E+00
          1   -1    0    0  501    0  0.00000000000E+00  0.00000000000E+00  0.76345385979E+02  0.76345385979E+02  0.00000000000E+00 0. -1.
         -1   -1    0    0    0  501 -0.00000000000E+00 -0.00000000000E+00 -0.22040193800E+03  0.22040193800E+03  0.00000000000E+00 0.  1.
         23    2    1    2    0    0  0.50700357121E+02  0.27456621041E+02 -0.12780747651E+03  0.18789686501E+03  0.12508432587E+03 0.  0.
          5    1    3    3  502    0  0.68553551678E+02 -0.31357355660E+02 -0.79228032197E+02  0.10944143040E+03  0.41800000000E+01 0. -1.
         -5    1    3    3    0  502 -0.17853194557E+02  0.58813976701E+02 -0.48579444311E+02  0.78455434616E+02  0.41800000000E+01 0. -1.
        -11    1    1    2    0    0 -0.37234768783E+02 -0.22003371236E+02  0.34964866903E+02  0.55615809530E+02  0.00000000000E+00 0. -1.
         11    1    1    2    0    0 -0.13465588338E+02 -0.54532498050E+01 -0.51213942413E+02  0.53234649433E+02  0.00000000000E+00 0.  1.
</event>
<event>
 7    1  0.5109948E-006  0.1479145E+03  0.7561462E-02  0.1203059E+00
         -2   -1    0    0    0  501 -0.00000000000E+00  0.00000000000E+00  0.94205526943E+03  0.94205526943E+03  0.00000000000E+00 0. -1.
          2   -1    0    0  501    0  0.00000000000E+00 -0.00000000000E+00 -0.38171510136E+02  0.38171510136E+02  0.00000000000E+00 0.  1.
         23    2    1    2    0    0  0.11383000031E+03 -0.18153128295E+02  0.74361206706E+03  0.76281960633E+03  0.12509212798E+03 0.  0.
          5    1    3    3  502    0  0.70849603688E+02  0.36071142530E+02  0.20756972402E+03  0.22231386910E+03  0.41800000000E+01 0. -1.
         -5    1    3    3    0  502  0.42980396624E+02 -0.54224270825E+02  0.53604234304E+03  0.54050573722E+03  0.41800000000E+01 0. -1.
        -11    1    1    2    0    0  0.14561496717E+02 -0.68525553595E+01  0.17434615602E+02  0.23726789138E+02  0.00000000000E+00 0. -1.
         11    1    1    2    0    0 -0.12839149703E+03  0.25005683655E+02  0.14283707663E+03  0.19368038410E+03  0.00000000000E+00 0.  1.
</event>
<event>
 7    1  0.5109948E-006  0.2016544E+03  0.7561462E-02  0.1148351E+00
          3   -1    0    0  501    0  0.00000000000E+00  0.00000000000E+00  0.19146677887E+03  0.19146677887E+03  0.00000000000E+00 0. -1.
         -3   -1    0    0    0  501 -0.00000000000E+00 -0.00000000000E+00 -0.24571349621E+03  0.24571349621E+03  0.00000000000E+00 0.  1.
         23    2    1    2    0    0 -0.18116929049E+03 -0.92527852338E+01  0.17919596300E+02  0.22107737927E+03  0.12508465071E+03 0.  0.
          5    1    3    3  502    0 -0.51910622909E+01 -0.40652005095E+02  0.82290798307E+01  0.42008603891E+02  0.41800000000E+01 0. -1.
         -5    1    3    3    0  502 -0.17597822820E+03  0.31399219862E+02  0.96905164693E+01  0.17906877538E+03  0.41800000000E+01 0. -1.
        -11    1    1    2    0    0  0.15087318342E+03  0.17564317668E+02 -0.17293467985E+02  0.15287343381E+03  0.00000000000E+00 0.  1.
         11    1    1    2    0    0  0.30296107069E+02 -0.83115324340E+01 -0.54872845653E+02  0.63229462001E+02  0.00000000000E+00 0. -1.
</event>
<event>
 6    1  0.5109948E-006  0.1368861E+03  0.7561462E-02  0.1217581E+00
         -1   -1    0    0    0  501 -0.00000000000E+00  0.00000000000E+00  0.14966724120E+03  0.14966724120E+03  0.00000000000E+00 0.  1.
          1   -1    0    0  501    0  0.00000000000E+00 -0.00000000000E+00 -0.24024465810E+03  0.24024465810E+03  0.00000000000E+00 0. -1.
          5    1    1    2  502    0  0.64496352985E+02 -0.48647426299E+02  0.84081138221E+01  0.81329701904E+02  0.41800000000E+01 0. -1.
         -5    1    1    2    0  502 -0.66492287084E+02  0.76441334672E+02  0.64715814507E+02  0.12029177418E+03  0.41800000000E+01 0.  1.
        -11    1    1    2    0    0  0.12184977718E+01  0.31827968203E+02 -0.41463534536E+02  0.52285074284E+02  0.00000000000E+00 0.  1.
         11    1    1    2    0    0  0.77743632741E+00 -0.59621876576E+02 -0.12223781069E+03  0.13600534893E+03  0.00000000000E+00 0. -1.
</event>
<event>
 7    1  0.5109948E-006  0.1466132E+03  0.7561462E-02  0.1204698E+00
         -2   -1    0    0    0  501 -0.00000000000E+00  0.00000000000E+00  0.74977699992E+02  0.74977699992E+02  0.00000000000E+00 0. -1.
          2   -1    0    0  501    0  0.00000000000E+00 -0.00000000000E+00 -0.31194085613E+03  0.31194085613E+03  0.00000000000E+00 0.  1.
         23    2    1    2    0    0 -0.10139456259E+03  0.28846615081E+02 -0.10114751679E+03  0.19233331722E+03  0.12509316622E+03 0.  0.
          5    1    3    3  502    0  0.44178318626E+01  0.46387666644E+02 -0.29882466616E+01  0.46880005047E+02  0.41800000000E+01 0.  1.
         -5    1    3    3    0  502 -0.10581239445E+03 -0.17541051564E+02 -0.98159270132E+02  0.14545331218E+03  0.41800000000E+01 0.  1.
        -11    1    1    2    0    0 -0.38640430842E+01 -0.33519548224E+02 -0.37992128378E+02  0.50812328827E+02  0.00000000000E+00 0. -1.
         11    1    1    2    0    0  0.10525860568E+03  0.46729331436E+01 -0.97823510970E+02  0.14377291008E+03  0.00000000000E+00 0.  1.
</event>
<event>
 7    1  0.5109948E-006  0.9532560E+02  0.7561462E-02  0.1290444E+00
         -2   -1    0    0    0  501 -0.00000000000E+00  0.00000000000E+00  0.11265638178E+03  0.11265638178E+03  0.00000000000E+00 0.  1.
          2   -1    0    0  501    0  0.00000000000E+00 -0.00000000000E+00 -0.11224728253E+03  0.11224728253E+03  0.00000000000E+00 0. -1.
         23    2    1    2    0    0 -0.21946398331E+02 -0.22355789119E+02  0.15993974387E+02  0.12994299159E+03  0.12509175888E+03 0.  0.
          5    1    3    3  502    0  0.51938386722E+02 -0.14948743809E+02  0.18663273034E+01  0.54240358907E+02  0.41800000000E+01 0. -1.
         -5    1    3    3    0  502 -0.73884785053E+02 -0.74070453096E+01  0.14127647083E+02  0.75702632680E+02  0.41800000000E+01 0. -1.
        -11    1    1    2    0    0  0.17552260564E+02  0.40108949802E+02 -0.43415867803E+02  0.61658310731E+02  0.00000000000E+00 0. -1.
         11    1    1    2    0    0  0.43941377674E+01 -0.17753160683E+02  0.27830992666E+02  0.33302361984E+02  0.00000000000E+00 0.  1.
</event>
<event>
 7    1  0.5109948E-006  0.1373104E+03  0.7561462E-02  0.1216995E+00
          1   -1    0    0  501    0  0.00000000000E+00  0.00000000000E+00  0.60361173924E+03  0.60361173924E+03  0.00000000000E+00 0. -1.
         -1   -1    0    0    0  501 -0.00000000000E+00 -0.00000000000E+00 -0.57245401751E+02  0.57245401751E+02  0.00000000000E+00 0.  1.
         23    2    1    2    0    0  0.17467302815E+02 -0.11392239057E+03  0.12063854140E+03  0.20853269360E+03  0.12509519932E+03 0.  0.
          5    1    3    3  502    0 -0.29120707101E+02 -0.35770677513E+02  0.10679642725E+03  0.11640664167E+03  0.41800000000E+01 0.  1.
         -5    1    3    3    0  502  0.46588009916E+02 -0.78151713053E+02  0.13842114148E+02  0.92126051935E+02  0.41800000000E+01 0.  1.
        -11    1    1    2    0    0  0.29244087943E+02  0.36071546533E+02  0.25262631477E+03  0.25685877065E+03  0.00000000000E+00 0. -1.
         11    1    1    2    0    0 -0.46711390759E+02  0.77850844033E+02  0.17310148132E+03  0.19546567673E+03  0.00000000000E+00 0.  1.
</event>
<event>
 7    1  0.5109948E-006  0.1446009E+03  0.7561462E-02  0.1207269E+00
          1   -1    0    0  501    0  0.00000000000E+00  0.00000000000E+00  0.33749966464E+02  0.33749966464E+02  0.00000000000E+00 0. -1.
         -1   -1    0    0    0  501 -0.00000000000E+00 -0.00000000000E+00 -0.96265251634E+03  0.96265251634E+03  0.00000000000E+00 0.  1.
         23    2    1    2    0    0  0.34442481732E+02 -0.10229455651E+03 -0.75049823710E+03  0.76846983463E+03  0.12509125473E+03 0.  0.
          5    1    3    3  502    0  0.42380664206E+02 -0.12882304643E+03 -0.57785308201E+03  0.59356815512E+03  0.41800000000E+01 0.  1.
         -5    1    3    3    0  502 -0.79381824737E+01  0.26528489922E+02 -0.17264515509E+03  0.17490167950E+03  0.41800000000E+01 0.  1.
        -11    1    1    2    0    0  0.18987110536E+02  0.21860697030E+02 -0.48988876580E+01  0.29366639941E+02  0.00000000000E+00 0. -1.
         11    1    1    2    0    0 -0.53429592268E+02  0.80433859475E+02 -0.17350542512E+03  0.19856600824E+03  0.00000000000E+00 0.  1.
</event>
<event>
 7    1  0.5109948E-006  0.1260146E+03  0.7561462E-02  0.1233492E+00
         -1   -1    0    0    0  501 -0.00000000000E+00  0.00000000000E+00  0.47965972986E+02  0.47965972986E+02  0.00000000000E+00 0.  1.
          1   -1    0    0  501    0  0.00000000000E+00 -0.00000000000E+00 -0.40618999888E+03  0.40618999888E+03  0.00000000000E+00 0. -1.
         23    2    1    2    0    0  0.73849343007E+02  0.25969760734E+02 -0.26730217435E+03  0.30347001438E+03  0.12048005346E+03 0.  0.
          5    1    3    3  502    0 -0.29902301483E+02  0.12044977666E+02 -0.30706958151E+02  0.44717097399E+02  0.41800000000E+01 0. -1.
         -5    1    3    3    0  502  0.10375164449E+03  0.13924783068E+02 -0.23659521620E+03  0.25875291698E+03  0.41800000000E+01 0.  1.
        -11    1    1    2    0    0 -0.92791933424E+02 -0.22786909079E+02 -0.55784864838E+02  0.11064148082E+03  0.00000000000E+00 0. -1.
         11    1    1    2    0    0  0.18942590416E+02 -0.31828516549E+01 -0.35136986704E+02  0.40044476660E+02  0.00000000000E+00 0.  1.
</event>
<event>
 7    1  0.5109948E-006  0.1279182E+03  0.7561462E-02  0.1230578E+00
         -2   -1    0    0    0  501 -0.00000000000E+00  0.00000000000E+00  0.60917443090E+03  0.60917443090E+03  0.00000000000E+00 0.  1.
          2   -1    0    0  501    0  0.00000000000E+00 -0.00000000000E+00 -0.35259503428E+02  0.35259503428E+02  0.00000000000E+00 0. -1.
         23    2    1    2    0    0  0.38626542685E+02 -0.86212367286E+02  0.37715239592E+03  0.40842634703E+03  0.12507425445E+03 0.  0.
          5    1    3    3  502    0  0.11290850262E+02  0.26895170786E+02  0.15324677180E+03  0.15605408991E+03  0.41800000000E+01 0. -1.
         -5    1    3    3    0  502  0.27335692423E+02 -0.11310753807E+03  0.22390562412E+03  0.25237225712E+03  0.41800000000E+01 0. -1.
        -11    1    1    2    0    0 -0.53375025838E+02  0.65252973226E+02  0.79151129599E+02  0.11563626254E+03  0.00000000000E+00 0. -1.
         11    1    1    2    0    0  0.14748483153E+02  0.20959394060E+02  0.11761140195E+03  0.12037132476E+03  0.00000000000E+00 0.  1.
</event>
<event>
 7    1  0.5109948E-006  0.1560989E+03  0.7561462E-02  0.1193173E+00
         -1   -1    0    0    0  501 -0.00000000000E+00  0.00000000000E+00  0.55115680172E+03  0.55115680172E+03  0.00000000000E+00 0.  1.
          1   -1    0    0  501    0  0.00000000000E+00 -0.00000000000E+00 -0.51322642935E+02  0.51322642935E+02  0.00000000000E+00 0. -1.
         23    2    1    2    0    0  0.91439487618E+02  0.85125686632E+02  0.32041372104E+03  0.36595199956E+03  0.12509336887E+03 0.  0.
          5    1    3    3  502    0  0.16304432711E+02 -0.22262541355E+02  0.11181560290E+02  0.30065843812E+02  0.41800000000E+01 0. -1.
         -5    1    3    3    0  502  0.75135054907E+02  0.10738822799E+03  0.30923216075E+03  0.33588615575E+03  0.41800000000E+01 0. -1.
        -11    1    1    2    0    0 -0.10859461431E+03 -0.81104849382E+02  0.14941964863E+03  0.20173501988E+03  0.00000000000E+00 0. -1.
         11    1    1    2    0    0  0.17155126695E+02 -0.40208372499E+01  0.30000789124E+02  0.34792425213E+02  0.00000000000E+00 0.  1.
</event>
<event>
 7    1  0.5109948E-006  0.9808023E+02  0.7561462E-02  0.1284386E+00
          2   -1    0    0  501    0  0.00000000000E+00  0.00000000000E+00  0.88269316046E+02  0.88269316046E+02  0.00000000000E+00 0. -1.
         -2   -1    0    0    0  501 -0.00000000000E+00 -0.00000000000E+00 -0.20913344629E+03  0.20913344629E+03  0.00000000000E+00 0.  1.
         23    2    1    2    0    0  0.45304695494E+02 -0.53605361056E+02 -0.11268547667E+03  0.18240084429E+03  0.12508397649E+03 0.  0.
          5    1    3    3  502    0 -0.14852137481E+02  0.31471645205E+01 -0.96813108402E+02  0.98085376029E+02  0.41800000000E+01 0. -1.
         -5    1    3    3    0  502  0.60156832976E+02 -0.56752525576E+02 -0.15872368270E+02  0.84315468257E+02  0.41800000000E+01 0. -1.
        -11    1    1    2    0    0 -0.63192487268E+02  0.37169658326E+02  0.21734589585E+02  0.76467420066E+02  0.00000000000E+00 0.  1.
         11    1    1    2    0    0  0.17887791773E+02  0.16435702730E+02 -0.29913243157E+02  0.38534497984E+02  0.00000000000E+00 0. -1.
</event>
<event>
 7    1  0.5109948E-006  0.1230225E+03  0.7561462E-02  0.1238192E+00
         -2   -1    0    0    0  501 -0.00000000000E+00  0.00000000000E+00  0.82463361454E+02  0.82463361454E+02  0.00000000000E+00 0. -1.
          2   -1    0    0  501    0  0.00000000000E+00 -0.00000000000E+00 -0.26189364577E+03  0.26189364577E+03  0.00000000000E+00 0.  1.
         23    2    1    2    0    0  0.65875369200E+02 -0.44379001560E+02 -0.28291165994E+02  0.15084209968E+03  0.12507553284E+03 0.  0.
          5    1    3    3  502    0  0.42558999233E+02  0.34315067882E+02  0.16484625312E+02  0.57253886953E+02  0.41800000000E+01 0.  1.
         -5    1    3    3    0  502  0.23316369967E+02 -0.78694069442E+02 -0.44775791306E+02  0.93588212724E+02  0.41800000000E+01 0.  1.
        -11    1    1    2    0    0 -0.60239548603E+02 -0.39577630731E+01 -0.12370728036E+03  0.13765158306E+03  0.00000000000E+00 0.  1.
         11    1    1    2    0    0 -0.56358205965E+01  0.48336764633E+02 -0.27431837964E+02  0.55863324490E+02  0.00000000000E+00 0. -1.
</event>
<event>
 7    1  0.5109948E-006  0.1174327E+03  0.7561462E-02  0.1247393E+00
         -1   -1    0    0    0  501 -0.00000000000E+00  0.00000000000E+00  0.34938207190E+02  0.34938207190E+02  0.00000000000E+00 0.  1.
          1   -1    0    0  501    0  0.00000000000E+00 -0.00000000000E+00 -0.62226062174E+03  0.62226062174E+03  0.00000000000E+00 0. -1.
         23    2    1    2    0    0 -0.98371030587E+02 -0.14279078727E+02 -0.31333771375E+03  0.35172072094E+03  0.12508473502E+03 0.  0.
          5    1    3    3  502    0 -0.72202171307E+02  0.23876313141E+01 -0.53470384045E+02  0.89974489133E+02  0.41800000000E+01 0.  1.
         -5    1    3    3    0  502 -0.26168859280E+02 -0.16666710041E+02 -0.25986732970E+03  0.26174623181E+03  0.41800000000E+01 0.  1.
        -11    1    1    2    0    0  0.68837387391E+02  0.49829162323E+02 -0.14029555695E+03  0.16402553039E+03  0.00000000000E+00 0.  1.
         11    1    1    2    0    0  0.29533643196E+02 -0.35550083597E+02 -0.13368914385E+03  0.14145257759E+03  0.00000000000E+00 0. -1.
</event>
<event>
 7    1  0.5109948E-006  0.1187207E+03  0.7561462E-02  0.1245223E+00
         -2   -1    0    0    0  501 -0.00000000000E+00  0.00000000000E+00  0.45088294258E+02  0.45088294258E+02  0.00000000000E+00 0.  1.
          2   -1    0    0  501    0  0.00000000000E+00 -0.00000000000E+00 -0.43689763151E+03  0.43689763151E+03  0.00000000000E+00 0. -1.
         23    2    1    2    0    0  0.75380758982E+02  0.47423328692E+02 -0.22450489425E+03  0.27198998299E+03  0.12507946424E+03 0.  0.
          5    1    3    3  502    0  0.50648548058E+01 -0.32154914893E+02 -0.13026122904E+02  0.35309256348E+02  0.41800000000E+01 0.  1.
         -5    1    3    3    0  502  0.70315904176E+02  0.79578243584E+02 -0.21147877135E+03  0.23668072664E+03  0.41800000000E+01 0.  1.
        -11    1    1    2    0    0 -0.55680899305E+02 -0.54013158480E+02 -0.53314591163E+02  0.94128791914E+02  0.00000000000E+00 0.  1.
         11    1    1    2    0    0 -0.19699859677E+02  0.65898297880E+01 -0.11398985184E+03  0.11586715086E+03  0.00000000000E+00 0. -1.
</event>
<event>
 7    1  0.5109948E-006  0.1053585E+03  0.7561462E-02  0.1269415E+00
         -2   -1    0    0    0  501 -0.00000000000E+00  0.00000000000E+00  0.20185760062E+03  0.20185760062E+03  0.00000000000E+00 0.  1.
          2   -1    0    0  501    0  0.00000000000E+00 -0.00000000000E+00 -0.61490108023E+02  0.61490108023E+02  0.00000000000E+00 0. -1.
         23    2    1    2    0    0  0.10245724413E+02 -0.11401413519E+02  0.92718478259E+02  0.15645627890E+03  0.12508750496E+03 0.  0.
          5    1    3    3  502    0  0.52419671628E+02  0.29934704702E+02  0.71263361488E+02  0.93487152110E+02  0.41800000000E+01 0.  1.
         -5    1    3    3    0  502 -0.42173947215E+02 -0.41336118221E+02  0.21455116771E+02  0.62969126792E+02  0.41800000000E+01 0.  1.
        -11    1    1    2    0    0 -0.37518545765E+02 -0.25321462529E+02  0.40216492654E+02  0.60549021646E+02  0.00000000000E+00 0.  1.
         11    1    1    2    0    0  0.27272821352E+02  0.36722876047E+02  0.74325216875E+01  0.46342408098E+02  0.00000000000E+00 0. -1.
</event>
<event>
 7    1  0.5109948E-006  0.1274377E+03  0.7561462E-02  0.1231308E+00
          2   -1    0    0  501    0  0.00000000000E+00  0.00000000000E+00  0.62425210510E+02  0.62425210510E+02  0.00000000000E+00 0. -1.
         -2   -1    0    0    0  501 -0.00000000000E+00 -0.00000000000E+00 -0.30381637042E+03  0.30381637042E+03  0.00000000000E+00 0.  1.
         23    2    1    2    0    0  0.30243360265E+02  0.77174484916E+02 -0.15452993476E+03  0.21540902888E+03  0.12510390492E+03 0.  0.
          5    1    3    3  502    0  0.75418668716E+02  0.62981658198E+02 -0.12647029888E+03  0.16020884420E+03  0.41800000000E+01 0. -1.
         -5    1    3    3    0  502 -0.45175308451E+02  0.14192826718E+02 -0.28059635870E+02  0.55200184683E+02  0.41800000000E+01 0. -1.
        -11    1    1    2    0    0  0.19399085652E+02 -0.47128420678E+02 -0.60165351288E+01  0.51318722262E+02  0.00000000000E+00 0. -1.
         11    1    1    2    0    0 -0.49642445917E+02 -0.30046064239E+02 -0.80844690031E+02  0.99513829788E+02  0.00000000000E+00 0.  1.
</event>
<event>
 7    1  0.5109948E-006  0.1101885E+03  0.7561462E-02  0.1260221E+00
         -2   -1    0    0    0  501 -0.00000000000E+00  0.00000000000E+00  0.76569909179E+02  0.76569909179E+02  0.00000000000E+00 0.  1.
          2   -1    0    0  501    0  0.00000000000E+00 -0.00000000000E+00 -0.19835937680E+03  0.19835937680E+03  0.00000000000E+00 0. -1.
         23    2    1    2    0    0  0.86396182801E+01 -0.54231554531E+02 -0.49076895336E+02  0.14516179377E+03  0.12509076786E+03 0.  0.
          5    1    3    3  502    0 -0.31675855473E+02  0.23041782540E+02  0.89174584086E+01  0.40389070639E+02  0.41800000000E+01 0. -1.
         -5    1    3    3    0  502  0.40315473753E+02 -0.77273337071E+02 -0.57994353744E+02  0.10477272313E+03  0.41800000000E+01 0. -1.
        -11    1    1    2    0    0  0.19669671483E+02 -0.11057122178E+02 -0.50349245548E+02  0.55174291607E+02  0.00000000000E+00 0. -1.
         11    1    1    2    0    0 -0.28309289763E+02  0.65288676709E+02 -0.22363326735E+02  0.74593200601E+02  0.00000000000E+00 0.  1.
</event>
<event>
 7    1  0.5109948E-006  0.9341325E+02  0.7561462E-02  0.1294790E+00
          4   -1    0    0  501    0  0.00000000000E+00  0.00000000000E+00  0.42866777182E+02  0.42866777182E+02  0.00000000000E+00 0. -1.
         -4   -1    0    0    0  501 -0.00000000000E+00 -0.00000000000E+00 -0.29841282207E+03  0.29841282207E+03  0.00000000000E+00 0.  1.
         23    2    1    2    0    0 -0.17265234621E+02 -0.17520380198E+02 -0.17271436779E+03  0.21466851705E+03  0.12508903757E+03 0.  0.
          5    1    3    3  502    0 -0.18161844545E+02  0.47568196728E+02 -0.33958144501E+02  0.61345039858E+02  0.41800000000E+01 0. -1.
         -5    1    3    3    0  502  0.89660992364E+00 -0.65088576926E+02 -0.13875622329E+03  0.15332347719E+03  0.41800000000E+01 0. -1.
        -11    1    1    2    0    0 -0.20292945823E+01  0.40473049341E+02 -0.87345456891E+02  0.96288185147E+02  0.00000000000E+00 0.  1.
         11    1    1    2    0    0  0.19294529203E+02 -0.22952669142E+02  0.45137797939E+01  0.30322897058E+02  0.00000000000E+00 0. -1.
</event>
<event>
 7    1  0.5109948E-006  0.9180749E+02  0.7561462E-02  0.1298533E+00
         -3   -1    0    0    0  501 -0.00000000000E+00  0.00000000000E+00  0.32666954915E+03  0.32666954915E+03  0.00000000000E+00 0.  1.
          3   -1    0    0  501    0  0.00000000000E+00 -0.00000000000E+00 -0.39589103809E+02  0.39589103809E+02  0.00000000000E+00 0. -1.
         23    2    1    2    0    0 -0.19550389785E+02  0.26067078387E+02  0.14472199194E+03  0.19404660924E+03  0.12509165156E+03 0.  0.
          5    1    3    3  502    0 -0.56753116311E+02  0.48035592507E+02  0.12687169560E+03  0.14711299705E+03  0.41800000000E+01 0.  1.
         -5    1    3    3    0  502  0.37202726526E+02 -0.21968514120E+02  0.17850296348E+02  0.46933612191E+02  0.41800000000E+01 0.  1.
        -11    1    1    2    0    0  0.78244036666E+01  0.18270948085E+02 -0.27163681485E+01  0.20060595519E+02  0.00000000000E+00 0. -1.
         11    1    1    2    0    0  0.11725986119E+02 -0.44338026471E+02  0.14507482155E+03  0.15215144820E+03  0.00000000000E+00 0.  1.
</event>
<event>
 7    1  0.5109948E-006  0.1197508E+03  0.7561462E-02  0.1243509E+00
         -2   -1    0    0    0  501 -0.00000000000E+00  0.00000000000E+00  0.10036740386E+03  0.10036740386E+03  0.00000000000E+00 0.  1.
          2   -1    0    0  501    0  0.00000000000E+00 -0.00000000000E+00 -0.21817538806E+03  0.21817538806E+03  0.00000000000E+00 0. -1.
         23    2    1    2    0    0  0.34076167274E+02 -0.81890030785E+02 -0.19803792437E+02  0.15461658890E+03  0.12508771743E+03 0.  0.
          5    1    3    3  502    0  0.55477214982E+02 -0.35662866907E+01 -0.42619337657E+02  0.70173500164E+02  0.41800000000E+01 0.  1.
         -5    1    3    3    0  502 -0.21401047708E+02 -0.78323744095E+02  0.22815545220E+02  0.84443088739E+02  0.41800000000E+01 0.  1.
        -11    1    1    2    0    0  0.13719374671E+02  0.16596484947E+02  0.14048873808E+02  0.25710608885E+02  0.00000000000E+00 0.  1.
         11    1    1    2    0    0 -0.47795541945E+02  0.65293545839E+02 -0.11205306557E+03  0.13821559413E+03  0.00000000000E+00 0. -1.
</event>
<event>
 7    1  0.5109948E-006  0.6504449E+02  0.7561462E-02  0.1377804E+00
          2   -1    0    0  501    0  0.00000000000E+00  0.00000000000E+00  0.53945323647E+03  0.53945323647E+03  0.00000000000E+00 0. -1.
         -2   -1    0    0    0  501 -0.00000000000E+00 -0.00000000000E+00 -0.29218441460E+02  0.29218441460E+02  0.00000000000E+00 0.  1.
         23    2    1    2    0    0 -0.24276187025E+02  0.25306484768E+02  0.16322361293E+03  0.20861227061E+03  0.12508948878E+03 0.  0.
          5    1    3    3  502    0 -0.11883778076E+02  0.17536339516E+02  0.18265925700E+03  0.18393103042E+03  0.41800000000E+01 0.  1.
         -5    1    3    3    0  502 -0.12392408949E+02  0.77701452521E+01 -0.19435644071E+02  0.24681240189E+02  0.41800000000E+01 0.  1.
        -11    1    1    2    0    0  0.53111323342E+02  0.25754106668E+01  0.15391492931E+03  0.16284118297E+03  0.00000000000E+00 0.  1.
         11    1    1    2    0    0 -0.28835136317E+02 -0.27881895435E+02  0.19309625277E+03  0.19721822434E+03  0.00000000000E+00 0. -1.
</event>
<event>
 7    1  0.5109948E-006  0.8104069E+02  0.7561462E-02  0.1326124E+00
         -1   -1    0    0    0  501 -0.00000000000E+00  0.00000000000E+00  0.89202883122E+02  0.89202883122E+02  0.00000000000E+00 0.  1.
          1   -1    0    0  501    0  0.00000000000E+00 -0.00000000000E+00 -0.11249210024E+03  0.11249210024E+03  0.00000000000E+00 0. -1.
         23    2    1    2    0    0 -0.44604264930E+02 -0.71482136775E+01 -0.54231928128E+00  0.13299679541E+03  0.12508883271E+03 0.  0.
          5    1    3    3  502    0 -0.11508437336E+02  0.47863510997E+02 -0.34491038202E+02  0.60253331287E+02  0.41800000000E+01 0. -1.
         -5    1    3    3    0  502 -0.33095827593E+02 -0.55011724675E+02  0.33948718921E+02  0.72743464120E+02  0.41800000000E+01 0. -1.
        -11    1    1    2    0    0  0.23134376119E+02 -0.50053492568E+01 -0.34124494865E+02  0.41529917282E+02  0.00000000000E+00 0. -1.
         11    1    1    2    0    0  0.21469888810E+02  0.12153562934E+02  0.11377597025E+02  0.27168270677E+02  0.00000000000E+00 0.  1.
</event>
<event>
 7    1  0.5109948E-006  0.9095161E+02  0.7561462E-02  0.1300563E+00
          3   -1    0    0  501    0  0.00000000000E+00  0.00000000000E+00  0.66038396464E+02  0.66038396464E+02  0.00000000000E+00 0. -1.
         -3   -1    0    0    0  501 -0.00000000000E+00 -0.00000000000E+00 -0.26571681583E+03  0.26571681583E+03  0.00000000000E+00 0.  1.
         23    2    1    2    0    0 -0.35865528065E+02  0.12058722743E+02 -0.18898576738E+03  0.22976338954E+03  0.12507536130E+03 0.  0.
          5    1    3    3  502    0  0.21535987326E+02  0.37387745523E+02 -0.14916118242E+03  0.15533245960E+03  0.41800000000E+01 0.  1.
         -5    1    3    3    0  502 -0.57401515391E+02 -0.25329022781E+02 -0.39824584960E+02  0.74430929938E+02  0.41800000000E+01 0.  1.
        -11    1    1    2    0    0  0.38022154081E+02 -0.35568526051E+02 -0.39058030940E+02  0.65087126433E+02  0.00000000000E+00 0. -1.
         11    1    1    2    0    0 -0.21566260157E+01  0.23509803308E+02  0.28365378953E+02  0.36904696320E+02  0.00000000000E+00 0.  1.
</event>
<event>
 7    1  0.5109948E-006  0.1088917E+03  0.7561462E-02  0.1262636E+00
          2   -1    0    0  501    0  0.00000000000E+00  0.00000000000E+00  0.61879863745E+02  0.61879863745E+02  0.00000000000E+00 0. -1.
         -2   -1    0    0    0  501 -0.00000000000E+00 -0.00000000000E+00 -0.21930968375E+03  0.21930968375E+03  0.00000000000E+00 0.  1.
         23    2    1    2    0    0  0.40028491790E+02  0.51683073050E+01 -0.96962879540E+02  0.16334123298E+03  0.12509822872E+03 0.  0.
          5    1    3    3  502    0  0.37064873234E+02  0.55734731212E+02 -0.18004944293E+02  0.69439293704E+02  0.41800000000E+01 0.  1.
         -5    1    3    3    0  502  0.29636185558E+01 -0.50566423907E+02 -0.78957935247E+02  0.93901939278E+02  0.41800000000E+01 0.  1.
        -11    1    1    2    0    0 -0.60304373465E+02  0.23549447379E+02 -0.47830452253E+02  0.80491900795E+02  0.00000000000E+00 0.  1.
         11    1    1    2    0    0  0.20275881675E+02 -0.28717754684E+02 -0.12636488216E+02  0.37356413723E+02  0.00000000000E+00 0. -1.
</event>
<event>
 7    1  0.5109948E-006  0.1306999E+03  0.7561462E-02  0.1226421E+00
         -2   -1    0    0    0  501 -0.00000000000E+00  0.00000000000E+00  0.70602740564E+02  0.70602740564E+02  0.00000000000E+00 0.  1.
          2   -1    0    0  501    0  0.00000000000E+00 -0.00000000000E+00 -0.28461153664E+03  0.28461153664E+03  0.00000000000E+00 0. -1.
         23    2    1    2    0    0 -0.37768775160E+02 -0.75818675097E+02 -0.80840700765E+02  0.17133873836E+03  0.12508713959E+03 0.  0.
          5    1    3    3  502    0 -0.47635216895E+02  0.16231147946E+02 -0.55979274855E+02  0.75390421577E+02  0.41800000000E+01 0.  1.
         -5    1    3    3    0  502  0.98664417350E+01 -0.92049823043E+02 -0.24861425910E+02  0.95948316781E+02  0.41800000000E+01 0.  1.
        -11    1    1    2    0    0  0.60197598901E+02  0.30093399391E+02 -0.41665582891E+02  0.79154181178E+02  0.00000000000E+00 0.  1.
         11    1    1    2    0    0 -0.22428823741E+02  0.45725275706E+02 -0.91502512418E+02  0.10472135767E+03  0.00000000000E+00 0. -1.
</event>
<event>
 7    1  0.5109948E-006  0.1621063E+03  0.7561462E-02  0.1186339E+00
          1   -1    0    0  501    0  0.00000000000E+00  0.00000000000E+00  0.47498475107E+03  0.47498475107E+03  0.00000000000E+00 0. -1.
         -1   -1    0    0    0  501 -0.00000000000E+00 -0.00000000000E+00 -0.71472559788E+02  0.71472559788E+02  0.00000000000E+00 0.  1.
         23    2    1    2    0    0 -0.11400471935E+03  0.78655237693E+02  0.12974127038E+03  0.22729685807E+03  0.12508933605E+03 0.  0.
          5    1    3    3  502    0 -0.91996280199E+01 -0.16782681260E+02  0.71256852484E+02  0.73900629036E+02  0.41800000000E+01 0.  1.
         -5    1    3    3    0  502 -0.10480509133E+03  0.95437918953E+02  0.58484417900E+02  0.15339622903E+03  0.41800000000E+01 0.  1.
        -11    1    1    2    0    0  0.98065668173E+02 -0.17500139114E+02  0.14795942150E+03  0.17836793589E+03  0.00000000000E+00 0.  1.
         11    1    1    2    0    0  0.15939051179E+02 -0.61155098579E+02  0.12581149939E+03  0.14079251690E+03  0.00000000000E+00 0. -1.
</event>
<event>
 7    1  0.5109948E-006  0.1106033E+03  0.7561462E-02  0.1259457E+00
         -2   -1    0    0    0  501 -0.00000000000E+00  0.00000000000E+00  0.28935388712E+02  0.28935388712E+02  0.00000000000E+00 0.  1.
          2   -1    0    0  501    0  0.00000000000E+00 -0.00000000000E+00 -0.76177762781E+03  0.76177762781E+03  0.00000000000E+00 0. -1.
         23    2    1    2    0    0 -0.71967086981E+02 -0.47319032528E+02 -0.25318109829E+03  0.29524166144E+03  0.12509443502E+03 0.  0.
          5    1    3    3  502    0 -0.27950052434E+02  0.12359317882E+02  0.56337011345E+00  0.30850412565E+02  0.41800000000E+01 0. -1.
         -5    1    3    3    0  502 -0.44017034547E+02 -0.59678350410E+02 -0.25374446840E+03  0.26439124888E+03  0.41800000000E+01 0. -1.
        -11    1    1    2    0    0 -0.87913860261E+01 -0.12716355434E+02 -0.22067874350E+02  0.26944113311E+02  0.00000000000E+00 0.  1.
         11    1    1    2    0    0  0.80758473007E+02  0.60035387962E+02 -0.45759326646E+03  0.46852724177E+03  0.00000000000E+00 0. -1.
</event>
<event>
 7    1  0.5109948E-006  0.1018226E+03  0.7561462E-02  0.1276509E+00
         -1   -1    0    0    0  501 -0.00000000000E+00  0.00000000000E+00  0.68221292557E+02  0.68221292557E+02  0.00000000000E+00 0.  1.
          1   -1    0    0  501    0  0.00000000000E+00 -0.00000000000E+00 -0.21415559810E+03  0.21415559810E+03  0.00000000000E+00 0. -1.
         23    2    1    2    0    0 -0.28265547634E+02 -0.70768944666E+01 -0.31544661978E+02  0.13225694237E+03  0.12509120467E+03 0.  0.
          5    1    3    3  502    0 -0.69727900206E+02  0.18118076983E+02  0.35184139738E+01  0.72250234723E+02  0.41800000000E+01 0. -1.
         -5    1    3    3    0  502  0.41462352571E+02 -0.25194971449E+02 -0.35063075952E+02  0.60006707644E+02  0.41800000000E+01 0. -1.
        -11    1    1    2    0    0  0.55346431378E+02  0.33510192204E+01 -0.10895006722E+03  0.12224800180E+03  0.00000000000E+00 0. -1.
         11    1    1    2    0    0 -0.27080883744E+02  0.37258752462E+01 -0.54395763503E+01  0.27871946498E+02  0.00000000000E+00 0.  1.
</event>
<event>
 7    1  0.5109948E-006  0.5011885E+02  0.7561462E-02  0.1444702E+00
         -1   -1    0    0    0  501 -0.00000000000E+00  0.00000000000E+00  0.27536789571E+03  0.27536789571E+03  0.00000000000E+00 0.  1.
          1   -1    0    0  501    0  0.00000000000E+00 -0.00000000000E+00 -0.62248155687E+02  0.62248155687E+02  0.00000000000E+00 0. -1.
         23    2    1    2    0    0 -0.35315522229E+02 -0.86116100346E+01  0.19948515514E+03  0.23823933297E+03  0.12506920770E+03 0.  0.
          5    1    3    3  502    0  0.33276815813E+01 -0.13789820191E+02  0.19846376866E+03  0.19901400070E+03  0.41800000000E+01 0. -1.
         -5    1    3    3    0  502 -0.38643203810E+02  0.51782101559E+01  0.10213864819E+01  0.39225332267E+02  0.41800000000E+01 0. -1.
        -11    1    1    2    0    0  0.85473133606E+01  0.16284026634E+02 -0.37153329099E+02  0.41455951952E+02  0.00000000000E+00 0. -1.
         11    1    1    2    0    0  0.26768208868E+02 -0.76724165993E+01  0.50787913979E+02  0.57920766473E+02  0.00000000000E+00 0.  1.
</event>
<event>
 7    1  0.5109948E-006  0.1291756E+03  0.7561462E-02  0.1228684E+00
         -2   -1    0    0    0  501 -0.00000000000E+00  0.00000000000E+00  0.32655621663E+02  0.32655621663E+02  0.00000000000E+00 0. -1.
          2   -1    0    0  501    0  0.00000000000E+00 -0.00000000000E+00 -0.63971385961E+03  0.63971385961E+03  0.00000000000E+00 0.  1.
         23    2    1    2    0    0 -0.87570747603E+02  0.32745105228E+02 -0.34558886556E+03  0.37923669903E+03  0.12509169493E+03 0.  0.
          5    1    3    3  502    0 -0.18315080221E+02 -0.41429068401E+02 -0.54796763777E+02  0.71217747735E+02  0.41800000000E+01 0. -1.
         -5    1    3    3    0  502 -0.69255667382E+02  0.74174173628E+02 -0.29079210178E+03  0.30801895129E+03  0.41800000000E+01 0. -1.
        -11    1    1    2    0    0  0.55612786387E+02 -0.50167868319E+02 -0.86509371722E+02  0.11442669451E+03  0.00000000000E+00 0. -1.
         11    1    1    2    0    0  0.31957961216E+02  0.17422763092E+02 -0.17496000067E+03  0.17870608774E+03  0.00000000000E+00 0.  1.
</event>
<event>
 7    1  0.5109948E-006  0.1169255E+03  0.7561462E-02  0.1248257E+00
          1   -1    0    0  501    0  0.00000000000E+00  0.00000000000E+00  0.14003542498E+03  0.14003542498E+03  0.00000000000E+00 0. -1.
         -1   -1    0    0    0  501 -0.00000000000E+00 -0.00000000000E+00 -0.15740983575E+03  0.15740983575E+03  0.00000000000E+00 0.  1.
         23    2    1    2    0    0  0.50884644589E+02  0.64357482045E+02 -0.67041386954E+02  0.16393048795E+03  0.12509006661E+03 0.  0.
          5    1    3    3  502    0  0.90530760821E+02  0.31327681523E+02 -0.55833959359E+02  0.11096010861E+03  0.41800000000E+01 0.  1.
         -5    1    3    3    0  502 -0.39646116232E+02  0.33029800521E+02 -0.11207427595E+02  0.52970379346E+02  0.41800000000E+01 0.  1.
        -11    1    1    2    0    0 -0.32069631079E+02 -0.19464356362E+02  0.71052364686E+02  0.80347750022E+02  0.00000000000E+00 0. -1.
         11    1    1    2    0    0 -0.18815013510E+02 -0.44893125683E+02 -0.21385388510E+02  0.53167022756E+02  0.00000000000E+00 0.  1.
</event>
<event>
 7    1  0.5109948E-006  0.1247809E+03  0.7561462E-02  0.1235412E+00
          2   -1    0    0  501    0  0.00000000000E+00  0.00000000000E+00  0.46924565844E+02  0.46924565844E+02  0.00000000000E+00 0. -1.
         -2   -1    0    0    0  501 -0.00000000000E+00 -0.00000000000E+00 -0.39036452516E+03  0.39036452516E+03  0.00000000000E+00 0.  1.
         23    2    1    2    0    0 -0.67163308896E+02 -0.90532559677E+01 -0.25672836203E+03  0.29351212170E+03  0.12508813778E+03 0.  0.
          5    1    3    3  502    0  0.42518873128E+01 -0.56245751680E+02 -0.10090162301E+03  0.11567313021E+03  0.41800000000E+01 0. -1.
         -5    1    3    3    0  502 -0.71415196209E+02  0.47192495712E+02 -0.15582673902E+03  0.17783899149E+03  0.41800000000E+01 0. -1.
        -11    1    1    2    0    0  0.78909052640E+02 -0.15192623013E+02 -0.84710176749E+02  0.11676158798E+03  0.00000000000E+00 0.  1.
         11    1    1    2    0    0 -0.11745743743E+02  0.24245878981E+02 -0.20014205387E+01  0.27015381319E+02  0.00000000000E+00 0. -1.
</event>
<event>
 7    1  0.5109948E-006  0.1051427E+03  0.7561462E-02  0.1269839E+00
         -1   -1    0    0    0  501 -0.00000000000E+00  0.00000000000E+00  0.40949175398E+02  0.40949175398E+02  0.00000000000E+00 0.  1.
          1   -1    0    0  501    0  0.00000000000E+00 -0.00000000000E+00 -0.32884619689E+03  0.32884619689E+03  0.00000000000E+00 0. -1.
         23    2    1    2    0    0 -0.42044725069E+02 -0.14043126586E+02 -0.17523551791E+03  0.21981811449E+03  0.12509016113E+03 0.  0.
          5    1    3    3  502    0 -0.58085905822E+02  0.29788162519E+02 -0.15600660933E+03  0.16916513126E+03  0.41800000000E+01 0.  1.
         -5    1    3    3    0  502  0.16041180754E+02 -0.43831289105E+02 -0.19228908582E+02  0.50652983228E+02  0.41800000000E+01 0.  1.
        -11    1    1    2    0    0 -0.16114965280E+02 -0.23713666810E+02 -0.43045535394E+02  0.51719901556E+02  0.00000000000E+00 0.  1.
         11    1    1    2    0    0  0.58159690349E+02  0.37756793396E+02 -0.69615968193E+02  0.98257356246E+02  0.00000000000E+00 0. -1.
</event>
<event>
 7    1  0.5109948E-006  0.1220797E+03  0.7561462E-02  0.1239705E+00
         -1   -1    0    0    0  501 -0.00000000000E+00  0.00000000000E+00  0.11726015787E+02  0.11726015787E+02  0.00000000000E+00 0.  1.
          1   -1    0    0  501    0  0.00000000000E+00 -0.00000000000E+00 -0.14796552004E+04  0.14796552004E+04  0.00000000000E+00 0. -1.
         23    2    1    2    0    0  0.10890303571E+02  0.70143329153E+02 -0.93418072908E+03  0.94518788304E+03  0.12509122400E+03 0.  0.
          5    1    3    3  502    0  0.48388269055E+02 -0.23362662374E+00 -0.16866987308E+03  0.17552343903E+03  0.41800000000E+01 0.  1.
         -5    1    3    3    0  502 -0.37497965485E+02  0.70376955777E+02 -0.76551085600E+03  0.76966444401E+03  0.41800000000E+01 0.  1.
        -11    1    1    2    0    0  0.37948274402E+02 -0.11991684600E+02 -0.16886819356E+03  0.17349449220E+03  0.00000000000E+00 0.  1.
         11    1    1    2    0    0 -0.48838577973E+02 -0.58151644553E+02 -0.36488026200E+03  0.37269884097E+03  0.00000000000E+00 0. -1.
</event>
<event>
 7    1  0.5109948E-006  0.1081256E+03  0.7561462E-02  0.1264081E+00
          2   -1    0    0  501    0  0.00000000000E+00  0.00000000000E+00  0.34081227849E+03  0.34081227849E+03  0.00000000000E+00 0.  1.
         -2   -1    0    0    0  501 -0.00000000000E+00 -0.00000000000E+00 -0.63677584783E+02  0.63677584783E+02  0.00000000000E+00 0. -1.
         23    2    1    2    0    0  0.23424563733E+02 -0.98441239226E+02  0.13626002399E+03  0.21083764938E+03  0.12508530087E+03 0.  0.
          5    1    3    3  502    0  0.19021708385E+01 -0.48718395782E+02 -0.14127701920E+02  0.50932943200E+02  0.41800000000E+01 0.  1.
         -5    1    3    3    0  502  0.21522392894E+02 -0.49722843444E+02  0.15038772591E+03  0.15990470618E+03  0.41800000000E+01 0.  1.
        -11    1    1    2    0    0  0.95455218818E+01  0.66117153033E+02  0.13008648737E+03  0.14623641513E+03  0.00000000000E+00 0.  1.
         11    1    1    2    0    0 -0.32970085614E+02  0.32324086193E+02  0.10788182348E+02  0.47415798760E+02  0.00000000000E+00 0. -1.
</event>
<event>
 7    1  0.5109948E-006  0.1366938E+03  0.7561462E-02  0.1217848E+00
         -2   -1    0    0    0  501 -0.00000000000E+00  0.00000000000E+00  0.43742694202E+02  0.43742694202E+02  0.00000000000E+00 0.  1.
          2   -1    0    0  501    0  0.00000000000E+00 -0.00000000000E+00 -0.62020836448E+03  0.62020836448E+03  0.00000000000E+00 0. -1.
         23    2    1    2    0    0 -0.11324934005E+03  0.22035610611E+02 -0.21786392519E+03  0.27644766679E+03  0.12509053287E+03 0.  0.
          5    1    3    3  502    0 -0.11618206251E+03 -0.17884415910E+02 -0.10892676574E+03  0.16031418114E+03  0.41800000000E+01 0.  1.
         -5    1    3    3    0  502  0.29327224579E+01  0.39920026521E+02 -0.10893715945E+03  0.11613348564E+03  0.41800000000E+01 0.  1.
        -11    1    1    2    0    0  0.83926059343E+02 -0.13739991462E+02 -0.34276974536E+03  0.35316210037E+03  0.00000000000E+00 0. -1.
         11    1    1    2    0    0  0.29323280706E+02 -0.82956191492E+01 -0.15831999723E+02  0.34341291525E+02  0.00000000000E+00 0.  1.
</event>
<event>
 7    1  0.5109948E-006  0.1305662E+03  0.7561462E-02  0.1226618E+00
          2   -1    0    0  501    0  0.00000000000E+00  0.00000000000E+00  0.57314155721E+03  0.57314155721E+03  0.00000000000E+00 0. -1.
         -2   -1    0    0    0  501 -0.00000000000E+00 -0.00000000000E+00 -0.43167950654E+02  0.43167950654E+02  0.00000000000E+00 0.  1.
         23    2    1    2    0    0  0.96993101503E+01 -0.10246435073E+03  0.25057621951E+03  0.29837641595E+03  0.12508806507E+03 0.  0.
          5    1    3    3  502    0  0.22907033840E+02 -0.89139969047E+02  0.26080731571E+03  0.27660187022E+03  0.41800000000E+01 0. -1.
         -5    1    3    3    0  502 -0.13207723689E+02 -0.13324381685E+02 -0.10231096201E+02  0.21774545732E+02  0.41800000000E+01 0. -1.
        -11    1    1    2    0    0 -0.27204455749E+02 -0.14967848288E+02  0.80670262957E+02  0.86439633389E+02  0.00000000000E+00 0.  1.
         11    1    1    2    0    0  0.17505145598E+02  0.11743219902E+03  0.19872712409E+03  0.23149345852E+03  0.00000000000E+00 0. -1.
</event>
<event>
 7    1  0.5109948E-006  0.1185223E+03  0.7561462E-02  0.1245555E+00
          2   -1    0    0  501    0  0.00000000000E+00  0.00000000000E+00  0.38082850276E+03  0.38082850276E+03  0.00000000000E+00 0. -1.
         -2   -1    0    0    0  501 -0.00000000000E+00 -0.00000000000E+00 -0.50595148809E+02  0.50595148809E+02  0.00000000000E+00 0.  1.
         23    2    1    2    0    0 -0.78263710023E+02  0.28429006599E+02  0.15614350310E+03  0.21670930018E+03  0.12509480605E+03 0.  0.
          5    1    3    3  502    0  0.24955957780E+02  0.36338877270E+02  0.30069278219E+02  0.53525206423E+02  0.41800000000E+01 0. -1.
         -5    1    3    3    0  502 -0.10321966780E+03 -0.79098706717E+01  0.12607422488E+03  0.16318409375E+03  0.41800000000E+01 0. -1.
        -11    1    1    2    0    0  0.40831403187E+02 -0.31542196802E+02  0.18748710104E+02  0.54896518978E+02  0.00000000000E+00 0.  1.
         11    1    1    2    0    0  0.37432306836E+02  0.31131902034E+01  0.15534114076E+03  0.15981783242E+03  0.00000000000E+00 0. -1.
</event>
<event>
 7    1  0.5109948E-006  0.1304538E+03  0.7561462E-02  0.1226784E+00
         -1   -1    0    0    0  501 -0.00000000000E+00  0.00000000000E+00  0.25881299560E+03  0.25881299560E+03  0.00000000000E+00 0.  1.
          1   -1    0    0  501    0  0.00000000000E+00 -0.00000000000E+00 -0.10842743943E+03  0.10842743943E+03  0.00000000000E+00 0. -1.
         23    2    1    2    0    0 -0.10173780960E+03 -0.62785706926E+02  0.13930011524E+03  0.22213692899E+03  0.12509063201E+03 0.  0.
          5    1    3    3  502    0 -0.15021131835E+02 -0.21513521805E+02 -0.21912638013E+02  0.34439833431E+02  0.41800000000E+01 0. -1.
         -5    1    3    3    0  502 -0.86716677763E+02 -0.41272185122E+02  0.16121275326E+03  0.18769709556E+03  0.41800000000E+01 0. -1.
        -11    1    1    2    0    0  0.46110069325E+01  0.37585079228E+02  0.22606164710E+02  0.44101454039E+02  0.00000000000E+00 0.  1.
         11    1    1    2    0    0  0.97126802666E+02  0.25200627699E+02 -0.11520723782E+02  0.10100205200E+03  0.00000000000E+00 0. -1.
</event>
<event>
 7    1  0.5109948E-006  0.1325665E+03  0.7561462E-02  0.1223696E+00
          1   -1    0    0  501    0  0.00000000000E+00  0.00000000000E+00  0.15671571993E+03  0.15671571993E+03  0.00000000000E+00 0. -1.
         -1   -1    0    0    0  501 -0.00000000000E+00 -0.00000000000E+00 -0.16853975030E+03  0.16853975030E+03  0.00000000000E+00 0.  1.
         23    2    1    2    0    0 -0.48662677557E+02  0.86965800851E+02 -0.73146633505E+02  0.17819169697E+03  0.12833839710E+03 0.  0.
          5    1    3    3  502    0  0.21309112937E+02  0.57528886915E+02 -0.81071399028E+02  0.10175310936E+03  0.41800000000E+01 0.  1.
         -5    1    3    3    0  502 -0.69971790494E+02  0.29436913936E+02  0.79247655230E+01  0.76438587608E+02  0.41800000000E+01 0.  1.
        -11    1    1    2    0    0  0.46483549686E+02 -0.10217462707E+03  0.36807472407E+02  0.11813198057E+03  0.00000000000E+00 0.  1.
         11    1    1    2    0    0  0.21791278708E+01  0.15208826222E+02  0.24515130736E+02  0.28931792692E+02  0.00000000000E+00 0. -1.
</event>
<event>
 7    1  0.5109948E-006  0.9888857E+02  0.7561462E-02  0.1282651E+00
         -2   -1    0    0    0  501 -0.00000000000E+00  0.00000000000E+00  0.14731762223E+03  0.14731762223E+03  0.00000000000E+00 0.  1.
          2   -1    0    0  501    0  0.00000000000E+00 -0.00000000000E+00 -0.90962253814E+02  0.90962253814E+02  0.00000000000E+00 0. -1.
         23    2    1    2    0    0  0.10727806882E+02  0.31992486791E+02  0.54443348349E+02  0.14052100220E+03  0.12507385350E+03 0.  0.
          5    1    3    3  502    0 -0.36180142138E+02 -0.25627234706E+02  0.48534806353E+02  0.65870005856E+02  0.41800000000E+01 0. -1.
         -5    1    3    3    0  502  0.46907949019E+02  0.57619721497E+02  0.59085419962E+01  0.74650996344E+02  0.41800000000E+01 0. -1.
        -11    1    1    2    0    0 -0.21948209460E+02 -0.51690557497E+02 -0.25930244734E+02  0.61854791446E+02  0.00000000000E+00 0. -1.
         11    1    1    2    0    0  0.11220402579E+02  0.19698070705E+02  0.27842264800E+02  0.35904082397E+02  0.00000000000E+00 0.  1.
</event>
<event>
 7    1  0.5109948E-006  0.1544208E+03  0.7561462E-02  0.1195144E+00
         -2   -1    0    0    0  501 -0.00000000000E+00  0.00000000000E+00  0.24795880414E+02  0.24795880414E+02  0.00000000000E+00 0.  1.
          2   -1    0    0  501    0  0.00000000000E+00 -0.00000000000E+00 -0.10323075023E+04  0.10323075023E+04  0.00000000000E+00 0. -1.
         23    2    1    2    0    0  0.44764735054E+02 -0.10845319289E+03 -0.61262361641E+03  0.63617694705E+03  0.12508971193E+03 0.  0.
          5    1    3    3  502    0 -0.43822933048E+02 -0.38859196292E+02 -0.20245463824E+03  0.21079810137E+03  0.41800000000E+01 0. -1.
         -5    1    3    3    0  502  0.88587668102E+02 -0.69593996599E+02 -0.41016897817E+03  0.42537884569E+03  0.41800000000E+01 0. -1.
        -11    1    1    2    0    0  0.18929964401E+02  0.14337239729E+02 -0.13793825250E+03  0.13996735869E+03  0.00000000000E+00 0. -1.
         11    1    1    2    0    0 -0.63694699456E+02  0.94115953162E+02 -0.25694975300E+03  0.28095907699E+03  0.00000000000E+00 0.  1.
</event>
<event>
 7    1  0.5109948E-006  0.1368844E+03  0.7561462E-02  0.1217584E+00
          1   -1    0    0  501    0  0.00000000000E+00  0.00000000000E+00  0.96563927575E+03  0.96563927575E+03  0.00000000000E+00 0. -1.
         -1   -1    0    0    0  501 -0.00000000000E+00 -0.00000000000E+00 -0.21855991041E+02  0.21855991041E+02  0.00000000000E+00 0.  1.
         23    2    1    2    0    0  0.28880195316E+02 -0.33723619184E+02  0.43594941746E+03  0.45570969497E+03  0.12509229928E+03 0.  0.
          5    1    3    3  502    0 -0.32047620773E+02 -0.43442365207E+02  0.31755553914E+03  0.32213860670E+03  0.41800000000E+01 0.  1.
         -5    1    3    3    0  502  0.60927816090E+02  0.97187460227E+01  0.11839387832E+03  0.13357108827E+03  0.41800000000E+01 0.  1.
        -11    1    1    2    0    0 -0.79946952297E+02  0.60372573874E+02  0.31879579396E+03  0.33416630755E+03  0.00000000000E+00 0. -1.
         11    1    1    2    0    0  0.51066756980E+02 -0.26648954690E+02  0.18903807329E+03  0.19761926427E+03  0.00000000000E+00 0.  1.
</event>
<event>
 7    1  0.5575532E-006  0.1296919E+03  0.7561462E-02  0.1227914E+00
         -1   -1    0    0    0  501 -0.00000000000E+00  0.00000000000E+00  0.20073857494E+02  0.20073857494E+02  0.00000000000E+00 0.  1.
          1   -1    0    0  501    0  0.00000000000E+00 -0.00000000000E+00 -0.10114304772E+04  0.10114304772E+04  0.00000000000E+00 0. -1.
         23    2    1    2    0    0 -0.25429137825E+02  0.81368347553E+02 -0.40963153313E+03  0.43670673369E+03  0.12508928523E+03 0.  0.
          5    1    3    3  502    0  0.26437149256E+02  0.81009107075E+02 -0.15613099071E+03  0.17792064790E+03  0.41800000000E+01 0. -1.
         -5    1    3    3    0  502 -0.51866287081E+02  0.35924047803E+00 -0.25350054242E+03  0.25878608579E+03  0.41800000000E+01 0. -1.
        -11    1    1    2    0    0  0.56606799580E+02 -0.66973849411E+02 -0.46182692940E+03  0.47007865191E+03  0.00000000000E+00 0.  1.
         11    1    1    2    0    0 -0.31177661755E+02 -0.14394498142E+02 -0.11989815721E+03  0.12471894913E+03  0.00000000000E+00 0. -1.
</event>
<event>
 7    1  0.5109948E-006  0.1093871E+03  0.7561462E-02  0.1261709E+00
          2   -1    0    0  501    0  0.00000000000E+00  0.00000000000E+00  0.41711430454E+03  0.41711430454E+03  0.00000000000E+00 0. -1.
         -2   -1    0    0    0  501 -0.00000000000E+00 -0.00000000000E+00 -0.30702705797E+02  0.30702705797E+02  0.00000000000E+00 0.  1.
         23    2    1    2    0    0  0.77665153374E+01  0.18872252583E+01  0.16980349000E+03  0.21105717730E+03  0.12509207206E+03 0.  0.
          5    1    3    3  502    0  0.60843101767E+02 -0.23301843205E+02  0.74873021966E+02  0.99339321256E+02  0.41800000000E+01 0.  1.
         -5    1    3    3    0  502 -0.53076586429E+02  0.25189068463E+02  0.94930468037E+02  0.11171785604E+03  0.41800000000E+01 0.  1.
        -11    1    1    2    0    0  0.31579239488E+02 -0.32063538927E+02  0.12017823886E+03  0.12832820419E+03  0.00000000000E+00 0.  1.
         11    1    1    2    0    0 -0.39345754826E+02  0.30176313669E+02  0.96429869879E+02  0.10843162885E+03  0.00000000000E+00 0. -1.
</event>
<event>
 7    1  0.5109948E-006  0.3923746E+03  0.7561462E-02  0.1046453E+00
         -2   -1    0    0    0  501 -0.00000000000E+00  0.00000000000E+00  0.27796236709E+03  0.27796236709E+03  0.00000000000E+00 0.  1.
          2   -1    0    0  501    0  0.00000000000E+00 -0.00000000000E+00 -0.63966203410E+03  0.63966203410E+03  0.00000000000E+00 0. -1.
         23    2    1    2    0    0  0.37567116476E+03 -0.87380000247E+02 -0.47666260738E+02  0.40826660140E+03  0.12508180097E+03 0.  0.
          5    1    3    3  502    0  0.21331084699E+03  0.20690288746E+01 -0.62304543858E+02  0.22227264094E+03  0.41800000000E+01 0. -1.
         -5    1    3    3    0  502  0.16236031777E+03 -0.89449029121E+02  0.14638283120E+02  0.18599396046E+03  0.41800000000E+01 0. -1.
        -11    1    1    2    0    0 -0.83720469463E+02  0.25688290291E+02 -0.18752837273E+02  0.89558216658E+02  0.00000000000E+00 0.  1.
         11    1    1    2    0    0 -0.29195069530E+03  0.61691709956E+02 -0.29528056900E+03  0.41979958312E+03  0.00000000000E+00 0. -1.
</event>
<event>
 7    1  0.5109948E-006  0.1670260E+03  0.7561462E-02  0.1180985E+00
         -1   -1    0    0    0  501 -0.00000000000E+00  0.00000000000E+00  0.11102204290E+03  0.11102204290E+03  0.00000000000E+00 0.  1.
          1   -1    0    0  501    0  0.00000000000E+00 -0.00000000000E+00 -0.26242366451E+03  0.26242366451E+03  0.00000000000E+00 0. -1.
         23    2    1    2    0    0 -0.46734854267E+02  0.12312772569E+03 -0.69131332056E+02  0.19434630551E+03  0.12508701754E+03 0.  0.
          5    1    3    3  502    0 -0.86242354242E+02  0.54763918321E+02 -0.33251912201E+02  0.10751740548E+03  0.41800000000E+01 0.  1.
         -5    1    3    3    0  502  0.39507499975E+02  0.68363807366E+02 -0.35879419855E+02  0.86828900033E+02  0.41800000000E+01 0.  1.
        -11    1    1    2    0    0  0.41971162624E+02 -0.15101371132E+02 -0.24022570801E+01  0.44669908676E+02  0.00000000000E+00 0.  1.
         11    1    1    2    0    0  0.47636916431E+01 -0.10802635455E+03 -0.79868032476E+02  0.13442949322E+03  0.00000000000E+00 0. -1.
</event>
<event>
 7    1  0.5109948E-006  0.1306331E+03  0.7561462E-02  0.1226519E+00
          1   -1    0    0  501    0  0.00000000000E+00  0.00000000000E+00  0.22727846408E+02  0.22727846408E+02  0.00000000000E+00 0. -1.
         -1   -1    0    0    0  501 -0.00000000000E+00 -0.00000000000E+00 -0.97211947401E+03  0.97211947401E+03  0.00000000000E+00 0.  1.
         23    2    1    2    0    0 -0.97648263231E+02 -0.18716014857E+02 -0.58402493563E+03  0.60549000321E+03  0.12509015161E+03 0.  0.
          5    1    3    3  502    0 -0.85760270230E+02 -0.57018886552E+02 -0.27205569679E+03  0.29092568111E+03  0.41800000000E+01 0.  1.
         -5    1    3    3    0  502 -0.11887993001E+02  0.38302871694E+02 -0.31196923883E+03  0.31456432210E+03  0.41800000000E+01 0.  1.
        -11    1    1    2    0    0  0.26708784120E+02  0.36031758366E+02 -0.57363621569E+02  0.72816425617E+02  0.00000000000E+00 0. -1.
         11    1    1    2    0    0  0.70939479111E+02 -0.17315743509E+02 -0.30800307040E+03  0.31654089159E+03  0.00000000000E+00 0.  1.
</event>
<event>
 7    1  0.5109948E-006  0.1197659E+03  0.7561462E-02  0.1243484E+00
          1   -1    0    0  501    0  0.00000000000E+00  0.00000000000E+00  0.68517461096E+02  0.68517461096E+02  0.00000000000E+00 0. -1.
         -1   -1    0    0    0  501 -0.00000000000E+00 -0.00000000000E+00 -0.27958417101E+03  0.27958417101E+03  0.00000000000E+00 0.  1.
         23    2    1    2    0    0 -0.80211245072E+02  0.30695514247E+02 -0.12679163913E+03  0.19773679934E+03  0.12509062167E+03 0.  0.
          5    1    3    3  502    0  0.25711537634E+02  0.36190255963E+02 -0.27499153590E+02  0.52387915041E+02  0.41800000000E+01 0. -1.
         -5    1    3    3    0  502 -0.10592278271E+03 -0.54947417162E+01 -0.99292485541E+02  0.14534888430E+03  0.41800000000E+01 0. -1.
        -11    1    1    2    0    0  0.35264889325E+02 -0.16986734585E+01 -0.89897529232E+02  0.96581901372E+02  0.00000000000E+00 0. -1.
         11    1    1    2    0    0  0.44946355747E+02 -0.28996840788E+02  0.56224584453E+01  0.53782931396E+02  0.00000000000E+00 0.  1.
</event>
<event>
 7    1  0.5109948E-006  0.1060620E+03  0.7561462E-02  0.1268041E+00
         -1   -1    0    0    0  501 -0.00000000000E+00  0.00000000000E+00  0.13170763087E+03  0.13170763087E+03  0.00000000000E+00 0.  1.
          1   -1    0    0  501    0  0.00000000000E+00 -0.00000000000E+00 -0.10594652678E+03  0.10594652678E+03  0.00000000000E+00 0. -1.
         23    2    1    2    0    0 -0.25083418252E+02 -0.38515994104E+02  0.26625192984E+02  0.13590059458E+03  0.12508961201E+03 0.  0.
          5    1    3    3  502    0 -0.62929931850E+02 -0.41476673122E+02 -0.17556963049E+02  0.77499742500E+02  0.41800000000E+01 0. -1.
         -5    1    3    3    0  502  0.37846513599E+02  0.29606790188E+01  0.44182156034E+02  0.58400852080E+02  0.41800000000E+01 0. -1.
        -11    1    1    2    0    0  0.11957462795E+02  0.66485017073E+02  0.11410511300E+02  0.68508672296E+02  0.00000000000E+00 0.  1.
         11    1    1    2    0    0  0.13125955456E+02 -0.27969022969E+02 -0.12274600198E+02  0.33244890773E+02  0.00000000000E+00 0. -1.
</event>
<event>
 7    1  0.5109948E-006  0.1101293E+03  0.7561462E-02  0.1260331E+00
         -1   -1    0    0    0  501 -0.00000000000E+00  0.00000000000E+00  0.68298649504E+02  0.68298649504E+02  0.00000000000E+00 0.  1.
          1   -1    0    0  501    0  0.00000000000E+00 -0.00000000000E+00 -0.26233806466E+03  0.26233806466E+03  0.00000000000E+00 0. -1.
         23    2    1    2    0    0  0.66285795537E+02 -0.44118414920E+02 -0.94803555403E+02  0.17599879220E+03  0.12509044533E+03 0.  0.
          5    1    3    3  502    0  0.84122593945E+02 -0.61621771752E+02 -0.10559014577E+03  0.14846078556E+03  0.41800000000E+01 0.  1.
         -5    1    3    3    0  502 -0.17836798408E+02  0.17503356832E+02  0.10786590367E+02  0.27538006638E+02  0.41800000000E+01 0.  1.
        -11    1    1    2    0    0 -0.15810518936E+02 -0.82434510405E+01 -0.76333146533E+02  0.78387985391E+02  0.00000000000E+00 0. -1.
         11    1    1    2    0    0 -0.50475276601E+02  0.52361865961E+02 -0.22902713223E+02  0.76249936576E+02  0.00000000000E+00 0.  1.
</event>
<event>
 7    1  0.5109948E-006  0.1100264E+03  0.7561462E-02  0.1260521E+00
          4   -1    0    0  501    0  0.00000000000E+00  0.00000000000E+00  0.21532577009E+02  0.21532577009E+02  0.00000000000E+00 0. -1.
         -4   -1    0    0    0  501 -0.00000000000E+00 -0.00000000000E+00 -0.62226089854E+03  0.62226089854E+03  0.00000000000E+00 0.  1.
         23    2    1    2    0    0 -0.16248190545E+02 -0.28978250903E+02 -0.40002343282E+03  0.42043915778E+03  0.12508635365E+03 0.  0.
          5    1    3    3  502    0 -0.56999465923E+02  0.17912883486E+02 -0.12712692525E+03  0.14052949169E+03  0.41800000000E+01 0. -1.
         -5    1    3    3    0  502  0.40751275378E+02 -0.46891134389E+02 -0.27289650757E+03  0.27990966609E+03  0.41800000000E+01 0. -1.
        -11    1    1    2    0    0  0.59172764194E+00 -0.33489180688E+02 -0.73752327611E+02  0.81001735739E+02  0.00000000000E+00 0.  1.
         11    1    1    2    0    0  0.15656462903E+02  0.62467431591E+02 -0.12695256110E+03  0.14235258202E+03  0.00000000000E+00 0. -1.
</event>
<event>
 7    1  0.5109948E-006  0.1153310E+03  0.7561462E-02  0.1251004E+00
         -1   -1    0    0    0  501 -0.00000000000E+00  0.00000000000E+00  0.21414169380E+03  0.21414169380E+03  0.00000000000E+00 0.  1.
          1   -1    0    0  501    0  0.00000000000E+00 -0.00000000000E+00 -0.10386182737E+03  0.10386182737E+03  0.00000000000E+00 0. -1.
         23    2    1    2    0    0  0.31271500816E+00  0.95971123666E+02  0.97544480713E+02  0.18540243784E+03  0.12509429992E+03 0.  0.
          5    1    3    3  502    0  0.14149067688E+02  0.10879671932E+03  0.28116614584E+02  0.11333551370E+03  0.41800000000E+01 0.  1.
         -5    1    3    3    0  502 -0.13836352680E+02 -0.12825595652E+02  0.69427866130E+02  0.72066924137E+02  0.41800000000E+01 0.  1.
        -11    1    1    2    0    0 -0.16692211628E+02 -0.52569438598E+02  0.48953874457E+02  0.73747255053E+02  0.00000000000E+00 0.  1.
         11    1    1    2    0    0  0.16379496620E+02 -0.43401685068E+02 -0.36218488736E+02  0.58853828275E+02  0.00000000000E+00 0. -1.
</event>
<event>
 7    1  0.5109948E-006  0.7801905E+02  0.7561462E-02  0.1334769E+00
          1   -1    0    0  501    0  0.00000000000E+00  0.00000000000E+00  0.85928437302E+02  0.85928437302E+02  0.00000000000E+00 0. -1.
         -1   -1    0    0    0  501 -0.00000000000E+00 -0.00000000000E+00 -0.20754197983E+03  0.20754197983E+03  0.00000000000E+00 0.  1.
         23    2    1    2    0    0 -0.42402483709E+02 -0.52782740010E+02 -0.11068693431E+03  0.18024844652E+03  0.12511561365E+03 0.  0.
          5    1    3    3  502    0  0.60412935324E+01 -0.29504528568E+02  0.21667872503E+02  0.37336088874E+02  0.41800000000E+01 0. -1.
         -5    1    3    3    0  502 -0.48443777241E+02 -0.23278211442E+02 -0.13235480681E+03  0.14291235765E+03  0.41800000000E+01 0. -1.
        -11    1    1    2    0    0  0.30196165895E+02  0.51164992788E+02 -0.46585221790E+02  0.75497336449E+02  0.00000000000E+00 0.  1.
         11    1    1    2    0    0  0.12206317814E+02  0.16177472223E+01  0.35658613573E+02  0.37724634161E+02  0.00000000000E+00 0. -1.
</event>
<event>
 7    1  0.5109948E-006  0.1430842E+03  0.7561462E-02  0.1209238E+00
          2   -1    0    0  501    0  0.00000000000E+00  0.00000000000E+00  0.64240360297E+02  0.64240360297E+02  0.00000000000E+00 0. -1.
         -2   -1    0    0    0  501 -0.00000000000E+00 -0.00000000000E+00 -0.41574936026E+03  0.41574936026E+03  0.00000000000E+00 0.  1.
         23    2    1    2    0    0  0.11437088708E+02 -0.11660067453E+03 -0.23623314414E+03  0.29185577039E+03  0.12508864065E+03 0.  0.
          5    1    3    3  502    0  0.60590525551E+02 -0.26478729747E+02 -0.69584898027E+02  0.96082596494E+02  0.41800000000E+01 0. -1.
         -5    1    3    3    0  502 -0.49153436843E+02 -0.90121944779E+02 -0.16664824611E+03  0.19577317389E+03  0.41800000000E+01 0. -1.
        -11    1    1    2    0    0 -0.22973453562E+01  0.17171886209E+02 -0.80592534363E+02  0.82433658579E+02  0.00000000000E+00 0.  1.
         11    1    1    2    0    0 -0.91397433517E+01  0.99428788318E+02 -0.34683321462E+02  0.10570029159E+03  0.00000000000E+00 0. -1.
</event>
<event>
 7    1  0.5109948E-006  0.1271033E+03  0.7561462E-02  0.1231818E+00
         -1   -1    0    0    0  501 -0.00000000000E+00  0.00000000000E+00  0.23427646726E+02  0.23427646726E+02  0.00000000000E+00 0.  1.
          1   -1    0    0  501    0  0.00000000000E+00 -0.00000000000E+00 -0.10979133733E+04  0.10979133733E+04  0.00000000000E+00 0. -1.
         23    2    1    2    0    0 -0.11171006305E+01  0.94559552225E+02 -0.33820251436E+03  0.37278844276E+03  0.12509006957E+03 0.  0.
          5    1    3    3  502    0 -0.26891967490E+02  0.54796502366E+01 -0.22355462887E+03  0.22527172253E+03  0.41800000000E+01 0. -1.
         -5    1    3    3    0  502  0.25774866860E+02  0.89079901989E+02 -0.11464788549E+03  0.14751672023E+03  0.41800000000E+01 0. -1.
        -11    1    1    2    0    0 -0.41435598863E+01 -0.11369577104E+03 -0.65976144537E+03  0.66949911295E+03  0.00000000000E+00 0.  1.
         11    1    1    2    0    0  0.52606605167E+01  0.19136218819E+02 -0.76521766848E+02  0.79053464322E+02  0.00000000000E+00 0. -1.
</event>
<event>
 7    1  0.5109948E-006  0.9198091E+02  0.7561462E-02  0.1298124E+00
         -2   -1    0    0    0  501 -0.00000000000E+00  0.00000000000E+00  0.53814451353E+02  0.53814451353E+02  0.00000000000E+00 0. -1.
          2   -1    0    0  501    0  0.00000000000E+00 -0.00000000000E+00 -0.28462298787E+03  0.28462298787E+03  0.00000000000E+00 0.  1.
         23    2    1    2    0    0  0.42102464509E+02  0.32680916476E+02 -0.10109557065E+03  0.16943777669E+03  0.12509270940E+03 0.  0.
          5    1    3    3  502    0 -0.13134116044E+02  0.91199201300E+01 -0.10762604817E+03  0.10888763287E+03  0.41800000000E+01 0.  1.
         -5    1    3    3    0  502  0.55236580553E+02  0.23560996346E+02  0.65304775143E+01  0.60550143820E+02  0.41800000000E+01 0.  1.
        -11    1    1    2    0    0 -0.29472935013E+02  0.30731188629E+02 -0.40052426588E+02  0.58457306887E+02  0.00000000000E+00 0. -1.
         11    1    1    2    0    0 -0.12629529495E+02 -0.63412105105E+02 -0.89660539273E+02  0.11054235565E+03  0.00000000000E+00 0.  1.
</event>
<event>
 7    1  0.5109948E-006  0.1047938E+03  0.7561462E-02  0.1270526E+00
          1   -1    0    0  501    0  0.00000000000E+00  0.00000000000E+00  0.23291023372E+03  0.23291023372E+03  0.00000000000E+00 0. -1.
         -1   -1    0    0    0  501 -0.00000000000E+00 -0.00000000000E+00 -0.80252661394E+02  0.80252661394E+02  0.00000000000E+00 0.  1.
         23    2    1    2    0    0  0.65500549892E+02 -0.35479591008E+00  0.24214142240E+02  0.14326236141E+03  0.12508929449E+03 0.  0.
          5    1    3    3  502    0  0.65678577168E+02  0.54947593766E+02  0.15368281280E+02  0.87100918646E+02  0.41800000000E+01 0. -1.
         -5    1    3    3    0  502 -0.17802727608E+00 -0.55302389677E+02  0.88458609594E+01  0.56161442768E+02  0.41800000000E+01 0. -1.
        -11    1    1    2    0    0 -0.34837179956E+02 -0.96318662201E+01 -0.13415029983E+01  0.36169069444E+02  0.00000000000E+00 0.  1.
         11    1    1    2    0    0 -0.30663369935E+02  0.99866621301E+01  0.12978493309E+03  0.13373146426E+03  0.00000000000E+00 0. -1.
</event>
<event>
 7    1  0.5109948E-006  0.1276391E+03  0.7561462E-02  0.1231001E+00
         -1   -1    0    0    0  501 -0.00000000000E+00  0.00000000000E+00  0.14367329388E+04  0.14367329388E+04  0.00000000000E+00 0.  1.
          1   -1    0    0  501    0  0.00000000000E+00 -0.00000000000E+00 -0.18413693323E+02  0.18413693323E+02  0.00000000000E+00 0. -1.
         23    2    1    2    0    0 -0.99441367175E+02  0.59842486059E+02  0.91978165282E+03  0.93547615655E+03  0.12509053507E+03 0.  0.
          5    1    3    3  502    0 -0.32098249830E+02  0.23655835731E+02  0.72616412858E+03  0.72727003943E+03  0.41800000000E+01 0. -1.
         -5    1    3    3    0  502 -0.67343117346E+02  0.36186650327E+02  0.19361752424E+03  0.20820611712E+03  0.41800000000E+01 0. -1.
        -11    1    1    2    0    0  0.74958524963E+02 -0.77970889213E+02  0.44611462460E+03  0.45903866755E+03  0.00000000000E+00 0.  1.
         11    1    1    2    0    0  0.24482842212E+02  0.18128403154E+02  0.52422968068E+02  0.60631808028E+02  0.00000000000E+00 0. -1.
</event>
<event>
 7    1  0.5109948E-006  0.9183081E+02  0.7561462E-02  0.1298478E+00
          1   -1    0    0  501    0  0.00000000000E+00  0.00000000000E+00  0.93567200844E+02  0.93567200844E+02  0.00000000000E+00 0.  1.
         -1   -1    0    0    0  501 -0.00000000000E+00 -0.00000000000E+00 -0.29258205454E+03  0.29258205454E+03  0.00000000000E+00 0. -1.
         23    2    1    2    0    0  0.26023252057E+02  0.58724826707E+02 -0.23069486580E+03  0.27017317732E+03  0.12509040618E+03 0.  0.
          5    1    3    3  502    0  0.31651398067E+02  0.84364016899E+02 -0.91587017909E+02  0.12854863903E+03  0.41800000000E+01 0. -1.
         -5    1    3    3    0  502 -0.56281460095E+01 -0.25639190193E+02 -0.13910784789E+03  0.14162453829E+03  0.41800000000E+01 0. -1.
        -11    1    1    2    0    0 -0.14807860248E+02 -0.12704172935E+02  0.58413128715E+02  0.61585406886E+02  0.00000000000E+00 0.  1.
         11    1    1    2    0    0 -0.11215391809E+02 -0.46020653772E+02 -0.26733116607E+02  0.54390671172E+02  0.00000000000E+00 0. -1.
</event>
<event>
 7    1  0.5109948E-006  0.1044060E+03  0.7561462E-02  0.1271294E+00
         -1   -1    0    0    0  501 -0.00000000000E+00  0.00000000000E+00  0.12353338501E+02  0.12353338501E+02  0.00000000000E+00 0.  1.
          1   -1    0    0  501    0  0.00000000000E+00 -0.00000000000E+00 -0.11309434767E+04  0.11309434767E+04  0.00000000000E+00 0. -1.
         23    2    1    2    0    0 -0.30621814410E+02  0.46591595288E+02 -0.59394455364E+03  0.60752058885E+03  0.11490283202E+03 0.  0.
          5    1    3    3  502    0 -0.26249274376E+02 -0.23419305980E+02 -0.39395030354E+03  0.39553988719E+03  0.41800000000E+01 0. -1.
         -5    1    3    3    0  502 -0.43725400342E+01  0.70010901268E+02 -0.19999425010E+03  0.21198070166E+03  0.41800000000E+01 0.  1.
        -11    1    1    2    0    0 -0.18106505327E+02  0.15743532083E+02 -0.63293700516E+02  0.67688971499E+02  0.00000000000E+00 0.  1.
         11    1    1    2    0    0  0.48728319737E+02 -0.62335127371E+02 -0.46135188408E+03  0.46808725490E+03  0.00000000000E+00 0. -1.
</event>
<event>
 7    1  0.5109948E-006  0.9808888E+02  0.7561462E-02  0.1284367E+00
          1   -1    0    0  501    0  0.00000000000E+00  0.00000000000E+00  0.13435794030E+03  0.13435794030E+03  0.00000000000E+00 0. -1.
         -1   -1    0    0    0  501 -0.00000000000E+00 -0.00000000000E+00 -0.12841863996E+03  0.12841863996E+03  0.00000000000E+00 0.  1.
         23    2    1    2    0    0  0.49596285760E+02  0.27155658775E+02 -0.47231815089E+02  0.14364019194E+03  0.12330628134E+03 0.  0.
          5    1    3    3  502    0  0.59215158049E+02  0.69133206783E+02 -0.22722725884E+02  0.93912884603E+02  0.41800000000E+01 0.  1.
         -5    1    3    3    0  502 -0.96188722886E+01 -0.41977548008E+02 -0.24509089205E+02  0.49727307333E+02  0.41800000000E+01 0.  1.
        -11    1    1    2    0    0 -0.44290198826E+02 -0.12231651865E+02  0.77505129675E+02  0.90101499129E+02  0.00000000000E+00 0. -1.
         11    1    1    2    0    0 -0.53060869339E+01 -0.14924006910E+02 -0.24334014249E+02  0.29034889189E+02  0.00000000000E+00 0.  1.
</event>
<event>
 7    1  0.5109948E-006  0.6724345E+02  0.7561462E-02  0.1369726E+00
         -1   -1    0    0    0  501 -0.00000000000E+00  0.00000000000E+00  0.19058137676E+03  0.19058137676E+03  0.00000000000E+00 0.  1.
          1   -1    0    0  501    0  0.00000000000E+00 -0.00000000000E+00 -0.69924452362E+02  0.69924452362E+02  0.00000000000E+00 0. -1.
         23    2    1    2    0    0 -0.27739395025E+02 -0.22561259928E+02  0.75935750246E+02  0.15061429676E+03  0.12505976066E+03 0.  0.
          5    1    3    3  502    0 -0.41144416674E+02  0.61768295972E+01 -0.22238735700E+02  0.47360848946E+02  0.41800000000E+01 0.  1.
         -5    1    3    3    0  502  0.13405021649E+02 -0.28738089525E+02  0.98174485946E+02  0.10325344782E+03  0.41800000000E+01 0.  1.
        -11    1    1    2    0    0 -0.12431112244E+02  0.15551568206E+02  0.62361093940E+02  0.65462125406E+02  0.00000000000E+00 0.  1.
         11    1    1    2    0    0  0.40170507269E+02  0.70096917221E+01 -0.17639919787E+02  0.44429406955E+02  0.00000000000E+00 0. -1.
</event>
<event>
 7    1  0.5109948E-006  0.1356485E+03  0.7561462E-02  0.1219307E+00
         -1   -1    0    0    0  501 -0.00000000000E+00  0.00000000000E+00  0.32127976671E+02  0.32127976671E+02  0.00000000000E+00 0.  1.
          1   -1    0    0  501    0  0.00000000000E+00 -0.00000000000E+00 -0.71832327013E+03  0.71832327013E+03  0.00000000000E+00 0. -1.
         23    2    1    2    0    0  0.16679017617E+02 -0.10296548698E+03 -0.32364132644E+03  0.36231457745E+03  0.12509222083E+03 0.  0.
          5    1    3    3  502    0  0.42264337207E+02 -0.11546004289E+03 -0.30263697266E+03  0.32668624906E+03  0.41800000000E+01 0. -1.
         -5    1    3    3    0  502 -0.25585319591E+02  0.12494555909E+02 -0.21004353777E+02  0.35628328385E+02  0.41800000000E+01 0. -1.
        -11    1    1    2    0    0  0.16135039015E+02  0.61457434604E+01 -0.77985873056E+01  0.18945384944E+02  0.00000000000E+00 0.  1.
         11    1    1    2    0    0 -0.32814056632E+02  0.96819743521E+02 -0.35475537971E+03  0.36919128440E+03  0.00000000000E+00 0. -1.
</event>
<event>
 7    1  0.5109948E-006  0.9717700E+02  0.7561462E-02  0.1286347E+00
         -4   -1    0    0    0  501 -0.00000000000E+00  0.00000000000E+00  0.61966989471E+03  0.61966989471E+03  0.00000000000E+00 0.  1.
          4   -1    0    0  501    0  0.00000000000E+00 -0.00000000000E+00 -0.29637557587E+02  0.29637557587E+02  0.00000000000E+00 0. -1.
         23    2    1    2    0    0  0.10564194534E+02  0.87210315442E+02  0.44189001476E+03  0.46758011986E+03  0.12508853673E+03 0.  0.
          5    1    3    3  502    0  0.11085522484E+02  0.40401841785E+02  0.40668598692E+03  0.40885958713E+03  0.41800000000E+01 0.  1.
         -5    1    3    3    0  502 -0.52132794976E+00  0.46808473657E+02  0.35204027843E+02  0.58720532740E+02  0.41800000000E+01 0.  1.
        -11    1    1    2    0    0  0.22749109775E+02 -0.20217214647E+02  0.42327835263E+02  0.52133515148E+02  0.00000000000E+00 0.  1.
         11    1    1    2    0    0 -0.33313304309E+02 -0.66993100795E+02  0.10581448710E+03  0.12959381729E+03  0.00000000000E+00 0. -1.
</event>
<event>
 7    1  0.5109948E-006  0.2090755E+03  0.7561462E-02  0.1142300E+00
         -1   -1    0    0    0  501 -0.00000000000E+00  0.00000000000E+00  0.12429152611E+03  0.12429152611E+03  0.00000000000E+00 0.  1.
          1   -1    0    0  501    0  0.00000000000E+00 -0.00000000000E+00 -0.38749109357E+03  0.38749109357E+03  0.00000000000E+00 0. -1.
         23    2    1    2    0    0  0.15849060606E+03 -0.10344543305E+03 -0.11224426089E+03  0.25311063510E+03  0.12508393050E+03 0.  0.
          5    1    3    3  502    0  0.12427573255E+03 -0.12925915456E+03 -0.10909424907E+03  0.20993192782E+03  0.41800000000E+01 0. -1.
         -5    1    3    3    0  502  0.34214873513E+02  0.25813721512E+02 -0.31500118158E+01  0.43178707278E+02  0.41800000000E+01 0. -1.
        -11    1    1    2    0    0 -0.90588627961E+02  0.87568761525E+02 -0.49080058654E+02  0.13521626998E+03  0.00000000000E+00 0.  1.
         11    1    1    2    0    0 -0.67901978097E+02  0.15876671522E+02 -0.10187524792E+03  0.12345571460E+03  0.00000000000E+00 0. -1.
</event>
<event>
 7    1  0.5109948E-006  0.1373535E+03  0.7561462E-02  0.1216935E+00
         -1   -1    0    0    0  501 -0.00000000000E+00  0.00000000000E+00  0.68738362988E+02  0.68738362988E+02  0.00000000000E+00 0.  1.
          1   -1    0    0  501    0  0.00000000000E+00 -0.00000000000E+00 -0.36320271041E+03  0.36320271041E+03  0.00000000000E+00 0. -1.
         23    2    1    2    0    0  0.10757960612E+03 -0.34960346630E+02 -0.13454861696E+03  0.21577225703E+03  0.12513488358E+03 0.  0.
          5    1    3    3  502    0  0.10760584123E+03 -0.12810531821E+02 -0.15238079000E+03  0.18703075777E+03  0.41800000000E+01 0. -1.
         -5    1    3    3    0  502 -0.26235112826E-01 -0.22149814809E+02  0.17832173039E+02  0.28741499259E+02  0.41800000000E+01 0. -1.
        -11    1    1    2    0    0 -0.64501663094E+02 -0.25604377650E+02 -0.93897618646E+02  0.11675963123E+03  0.00000000000E+00 0.  1.
         11    1    1    2    0    0 -0.43077943026E+02  0.60564724280E+02 -0.66018111823E+02  0.99409185145E+02  0.00000000000E+00 0. -1.
</event>
<event>
 7    1  0.5109948E-006  0.1029185E+03  0.7561462E-02  0.1274276E+00
          1   -1    0    0  501    0  0.00000000000E+00  0.00000000000E+00  0.93602422959E+03  0.93602422959E+03  0.00000000000E+00 0. -1.
         -1   -1    0    0    0  501 -0.00000000000E+00 -0.00000000000E+00 -0.14072168807E+02  0.14072168807E+02  0.00000000000E+00 0.  1.
         23    2    1    2    0    0  0.20007805089E+02 -0.21502687845E+02  0.36014006095E+03  0.38011764947E+03  0.11800799163E+03 0.  0.
          5    1    3    3  502    0  0.22076719838E+02 -0.63550671731E+02  0.29382178767E+03  0.30145444887E+03  0.41800000000E+01 0. -1.
         -5    1    3    3    0  502 -0.20689147494E+01  0.42047983886E+02  0.66318273283E+02  0.78663200598E+02  0.41800000000E+01 0.  1.
        -11    1    1    2    0    0 -0.33190805987E+02 -0.28910860729E+02  0.25218242404E+03  0.25599500477E+03  0.00000000000E+00 0. -1.
         11    1    1    2    0    0  0.13183000898E+02  0.50413548575E+02  0.30962957579E+03  0.31398374416E+03  0.00000000000E+00 0.  1.
</event>
<event>
 6    1  0.5109948E-006  0.1619048E+03  0.7561462E-02  0.1186563E+00
          1   -1    0    0  501    0  0.00000000000E+00  0.00000000000E+00  0.30998123550E+03  0.30998123550E+03  0.00000000000E+00 0. -1.
         -1   -1    0    0    0  501 -0.00000000000E+00 -0.00000000000E+00 -0.11155353871E+03  0.11155353871E+03  0.00000000000E+00 0.  1.
          5    1    1    2  502    0  0.78040586675E+02  0.70846603632E+01  0.95538451314E+02  0.12363492088E+03  0.41800000000E+01 0. -1.
         -5    1    1    2    0  502  0.17480333466E+02  0.92375437123E+02 -0.14579470613E+02  0.95230335530E+02  0.41800000000E+01 0.  1.
        -11    1    1    2    0    0  0.91997920796E+01 -0.79764736155E+01 -0.86548503961E+01  0.14938766382E+02  0.00000000000E+00 0. -1.
         11    1    1    2    0    0 -0.10472071222E+03 -0.91483623871E+02  0.12612356649E+03  0.18773075142E+03  0.00000000000E+00 0.  1.
</event>
<event>
 7    1  0.5109948E-006  0.1485917E+03  0.7561462E-02  0.1202214E+00
          1   -1    0    0  501    0  0.00000000000E+00  0.00000000000E+00  0.14941837026E+03  0.14941837026E+03  0.00000000000E+00 0. -1.
         -1   -1    0    0    0  501 -0.00000000000E+00 -0.00000000000E+00 -0.22787589554E+03  0.22787589554E+03  0.00000000000E+00 0.  1.
         23    2    1    2    0    0  0.68711591988E+02  0.10614276741E+03 -0.12227138825E+03  0.21583303233E+03  0.12508411376E+03 0.  0.
          5    1    3    3  502    0  0.27876262826E+02 -0.20767953552E+00  0.19230814377E+02  0.34123683587E+02  0.41800000000E+01 0.  1.
         -5    1    3    3    0  502  0.40835329161E+02  0.10635044695E+03 -0.14150220263E+03  0.18170934875E+03  0.41800000000E+01 0.  1.
        -11    1    1    2    0    0 -0.44715491987E+02  0.14718985862E+01  0.74090173434E+01  0.45349037995E+02  0.00000000000E+00 0.  1.
         11    1    1    2    0    0 -0.23996100000E+02 -0.10761466600E+03  0.36404845627E+02  0.11611219547E+03  0.00000000000E+00 0. -1.
</event>
<event>
 7    1  0.5109948E-006  0.1008546E+03  0.7561462E-02  0.1278509E+00
          3   -1    0    0  501    0  0.00000000000E+00  0.00000000000E+00  0.53867716843E+02  0.53867716843E+02  0.00000000000E+00 0. -1.
         -3   -1    0    0    0  501 -0.00000000000E+00 -0.00000000000E+00 -0.26601628171E+03  0.26601628171E+03  0.00000000000E+00 0.  1.
         23    2    1    2    0    0  0.37163685165E+02 -0.26695035312E+02 -0.11369683170E+03  0.17512345573E+03  0.12508993087E+03 0.  0.
          5    1    3    3  502    0 -0.28946491270E+02  0.16303084695E+02  0.36443765576E+01  0.33681505428E+02  0.41800000000E+01 0.  1.
         -5    1    3    3    0  502  0.66110176435E+02 -0.42998120006E+02 -0.11734120825E+03  0.14144195031E+03  0.41800000000E+01 0.  1.
        -11    1    1    2    0    0 -0.11657077597E+02  0.52018799373E+02 -0.17366868131E+02  0.56066487807E+02  0.00000000000E+00 0. -1.
         11    1    1    2    0    0 -0.25506607568E+02 -0.25323764061E+02 -0.81084865039E+02  0.88694055011E+02  0.00000000000E+00 0.  1.
</event>
<event>
 7    1  0.5109948E-006  0.1018329E+03  0.7561462E-02  0.1276488E+00
          2   -1    0    0  501    0  0.00000000000E+00  0.00000000000E+00  0.48751121311E+02  0.48751121311E+02  0.00000000000E+00 0. -1.
         -2   -1    0    0    0  501 -0.00000000000E+00 -0.00000000000E+00 -0.30836190991E+03  0.30836190991E+03  0.00000000000E+00 0.  1.
         23    2    1    2    0    0  0.37583967195E+02  0.40733417023E+02 -0.16430350291E+03  0.21381258823E+03  0.12509362879E+03 0.  0.
          5    1    3    3  502    0  0.44505312059E+02 -0.10883936472E+02 -0.15378247372E+03  0.16051699130E+03  0.41800000000E+01 0. -1.
         -5    1    3    3    0  502 -0.69213448634E+01  0.51617353495E+02 -0.10521029194E+02  0.53295596928E+02  0.41800000000E+01 0. -1.
        -11    1    1    2    0    0  0.20943236047E+02  0.14070976410E+02 -0.34141677716E+02  0.42453099657E+02  0.00000000000E+00 0.  1.
         11    1    1    2    0    0 -0.58527203243E+02 -0.54804393433E+02 -0.61165607973E+02  0.10084734333E+03  0.00000000000E+00 0. -1.
</event>
<event>
 7    1  0.5109948E-006  0.1136863E+03  0.7561462E-02  0.1253892E+00
         -1   -1    0    0    0  501 -0.00000000000E+00  0.00000000000E+00  0.67934658145E+02  0.67934658145E+02  0.00000000000E+00 0.  1.
          1   -1    0    0  501    0  0.00000000000E+00 -0.00000000000E+00 -0.33605968674E+03  0.33605968674E+03  0.00000000000E+00 0. -1.
         23    2    1    2    0    0  0.89755617672E+02 -0.33987594639E+00 -0.70583280447E+02  0.16936664581E+03  0.12508746866E+03 0.  0.
          5    1    3    3  502    0  0.16301885802E+02 -0.21201470775E+02  0.31681627612E+02  0.41670754395E+02  0.41800000000E+01 0. -1.
         -5    1    3    3    0  502  0.73453731869E+02  0.20861594828E+02 -0.10226490806E+03  0.12769589142E+03  0.41800000000E+01 0. -1.
        -11    1    1    2    0    0  0.87491128783E+00  0.28817929110E+02 -0.27473711046E+02  0.39825159216E+02  0.00000000000E+00 0.  1.
         11    1    1    2    0    0 -0.90630528959E+02 -0.28478053163E+02 -0.17006803710E+03  0.19480253986E+03  0.00000000000E+00 0. -1.
</event>
<event>
 7    1  0.5109948E-006  0.1059157E+03  0.7561462E-02  0.1268326E+00
         -2   -1    0    0    0  501 -0.00000000000E+00  0.00000000000E+00  0.49039816355E+02  0.49039816355E+02  0.00000000000E+00 0.  1.
          2   -1    0    0  501    0  0.00000000000E+00 -0.00000000000E+00 -0.35291534237E+03  0.35291534237E+03  0.00000000000E+00 0. -1.
         23    2    1    2    0    0 -0.24975387466E+02 -0.43179113408E+02 -0.83363492705E+02  0.15839051441E+03  0.12509946972E+03 0.  0.
          5    1    3    3  502    0 -0.63034073099E+02 -0.37378322342E+02 -0.82270100594E+01  0.73861962112E+02  0.41800000000E+01 0. -1.
         -5    1    3    3    0  502  0.38058685633E+02 -0.58007910660E+01 -0.75136482646E+02  0.84528552298E+02  0.41800000000E+01 0. -1.
        -11    1    1    2    0    0  0.41422745218E+02  0.62091696245E+02 -0.18963357519E+03  0.20379429678E+03  0.00000000000E+00 0.  1.
         11    1    1    2    0    0 -0.16447357752E+02 -0.18912582837E+02 -0.30878458123E+02  0.39770347530E+02  0.00000000000E+00 0. -1.
</event>
<event>
 7    1  0.5109948E-006  0.1368274E+03  0.7561462E-02  0.1217663E+00
          1   -1    0    0  501    0  0.00000000000E+00  0.00000000000E+00  0.30989308353E+03  0.30989308353E+03  0.00000000000E+00 0. -1.
         -1   -1    0    0    0  501 -0.00000000000E+00 -0.00000000000E+00 -0.75700248492E+02  0.75700248492E+02  0.00000000000E+00 0.  1.
         23    2    1    2    0    0  0.54133161954E+01  0.10509363595E+03  0.13508029817E+03  0.21205494641E+03  0.12508651821E+03 0.  0.
          5    1    3    3  502    0 -0.33784385685E+02  0.73927332234E+02  0.16193612163E+02  0.82983978227E+02  0.41800000000E+01 0.  1.
         -5    1    3    3    0  502  0.39197701881E+02  0.31166303711E+02  0.11888668600E+03  0.12907096819E+03  0.41800000000E+01 0.  1.
        -11    1    1    2    0    0  0.45047091911E+02 -0.50516563102E+02  0.40468114224E+02  0.78859570797E+02  0.00000000000E+00 0.  1.
         11    1    1    2    0    0 -0.50460408107E+02 -0.54577072843E+02  0.58644422643E+02  0.94678814808E+02  0.00000000000E+00 0. -1.
</event>
<event>
 7    1  0.5109948E-006  0.1142196E+03  0.7561462E-02  0.1252950E+00
          2   -1    0    0  501    0  0.00000000000E+00  0.00000000000E+00  0.25014314768E+03  0.25014314768E+03  0.00000000000E+00 0. -1.
         -2   -1    0    0    0  501 -0.00000000000E+00 -0.00000000000E+00 -0.84624052697E+02  0.84624052697E+02  0.00000000000E+00 0.  1.
         23    2    1    2    0    0 -0.76222953705E+02 -0.59391539033E+02  0.10701308991E+03  0.19088268625E+03  0.12508838841E+03 0.  0.
          5    1    3    3  502    0 -0.65165494365E+02 -0.71104666323E+02  0.15387585753E+02  0.97758198756E+02  0.41800000000E+01 0. -1.
         -5    1    3    3    0  502 -0.11057459340E+02  0.11713127291E+02  0.91625504159E+02  0.93124487490E+02  0.41800000000E+01 0. -1.
        -11    1    1    2    0    0  0.25906678392E+02 -0.11484295276E+02 -0.13145734000E+02  0.31238683482E+02  0.00000000000E+00 0.  1.
         11    1    1    2    0    0  0.50316275312E+02  0.70875834308E+02  0.71651739067E+02  0.11264583064E+03  0.00000000000E+00 0. -1.
</event>
<event>
 7    1  0.5109948E-006  0.1019161E+03  0.7561462E-02  0.1276317E+00
          2   -1    0    0  501    0  0.00000000000E+00  0.00000000000E+00  0.23256946022E+03  0.23256946022E+03  0.00000000000E+00 0. -1.
         -2   -1    0    0    0  501 -0.00000000000E+00 -0.00000000000E+00 -0.80329877577E+02  0.80329877577E+02  0.00000000000E+00 0.  1.
         23    2    1    2    0    0  0.42632759928E+02  0.64415141391E+02  0.50605374605E+02  0.15548876291E+03  0.12509591837E+03 0.  0.
          5    1    3    3  502    0  0.57558399550E+01  0.58398072840E+02 -0.30373126674E+02  0.66207732396E+02  0.41800000000E+01 0. -1.
         -5    1    3    3    0  502  0.36876919973E+02  0.60170685509E+01  0.80978501280E+02  0.89281030517E+02  0.41800000000E+01 0. -1.
        -11    1    1    2    0    0 -0.24687875404E+02  0.13024721049E+02 -0.58653176066E+00  0.27919143430E+02  0.00000000000E+00 0.  1.
         11    1    1    2    0    0 -0.17944884525E+02 -0.77439862440E+02  0.10222073980E+03  0.12949143146E+03  0.00000000000E+00 0. -1.
</event>
<event>
 7    1  0.5109948E-006  0.1447835E+03  0.7561462E-02  0.1207033E+00
         -2   -1    0    0    0  501 -0.00000000000E+00  0.00000000000E+00  0.10884697376E+03  0.10884697376E+03  0.00000000000E+00 0. -1.
          2   -1    0    0  501    0  0.00000000000E+00 -0.00000000000E+00 -0.23831680585E+03  0.23831680585E+03  0.00000000000E+00 0.  1.
         23    2    1    2    0    0  0.95527746392E+01  0.10218375194E+03 -0.81743504625E+01  0.16202944255E+03  0.12511572876E+03 0.  0.
          5    1    3    3  502    0 -0.54841074155E+02  0.29425403948E+02  0.97674701132E+01  0.63136943895E+02  0.41800000000E+01 0.  1.
         -5    1    3    3    0  502  0.64393848794E+02  0.72758347991E+02 -0.17941820576E+02  0.98892498656E+02  0.41800000000E+01 0.  1.
        -11    1    1    2    0    0 -0.35872250016E+02 -0.96583774677E+02 -0.12004561489E+03  0.15819669246E+03  0.00000000000E+00 0. -1.
         11    1    1    2    0    0  0.26319475377E+02 -0.55999772623E+01 -0.12498667377E+01  0.26937644595E+02  0.00000000000E+00 0.  1.
</event>
<event>
 7    1  0.5109948E-006  0.7669335E+02  0.7561462E-02  0.1338706E+00
          2   -1    0    0  501    0  0.00000000000E+00  0.00000000000E+00  0.94453831225E+03  0.94453831225E+03  0.00000000000E+00 0. -1.
         -2   -1    0    0    0  501 -0.00000000000E+00 -0.00000000000E+00 -0.15446457017E+02  0.15446457017E+02  0.00000000000E+00 0.  1.
         23    2    1    2    0    0  0.37496204000E+02 -0.36168883074E+02  0.47884383332E+03  0.49764751349E+03  0.12508987793E+03 0.  0.
          5    1    3    3  502    0  0.18731054766E+02 -0.24616553039E+02  0.47358205732E+03  0.47460959167E+03  0.41800000000E+01 0. -1.
         -5    1    3    3    0  502  0.18765149234E+02 -0.11552330035E+02  0.52617760012E+01  0.23037921818E+02  0.41800000000E+01 0. -1.
        -11    1    1    2    0    0 -0.32023067429E+02 -0.23565463538E+02  0.11286647289E+03  0.11966473424E+03  0.00000000000E+00 0.  1.
         11    1    1    2    0    0 -0.54731365712E+01  0.59734346612E+02  0.33738154903E+03  0.34267252153E+03  0.00000000000E+00 0. -1.
</event>
<event>
 7    1  0.5109948E-006  0.3745907E+03  0.7561462E-02  0.1052951E+00
          1   -1    0    0  501    0  0.00000000000E+00  0.00000000000E+00  0.64253112115E+03  0.64253112115E+03  0.00000000000E+00 0. -1.
         -1   -1    0    0    0  501 -0.00000000000E+00 -0.00000000000E+00 -0.23346382514E+03  0.23346382514E+03  0.00000000000E+00 0.  1.
         23    2    1    2    0    0  0.86554240797E+02  0.35596139791E+03  0.13705585224E+03  0.41064686058E+03  0.12508550702E+03 0.  0.
          5    1    3    3  502    0  0.20113732150E+02  0.25109077806E+03  0.13628108677E+03  0.28642825988E+03  0.41800000000E+01 0. -1.
         -5    1    3    3    0  502  0.66440508647E+02  0.10487061986E+03  0.77476546941E+00  0.12421860070E+03  0.41800000000E+01 0. -1.
        -11    1    1    2    0    0  0.10342609341E+02 -0.77708612294E+02  0.88515240032E+02  0.11823935771E+03  0.00000000000E+00 0.  1.
         11    1    1    2    0    0 -0.96896850138E+02 -0.27825278562E+03  0.18349620374E+03  0.34710872801E+03  0.00000000000E+00 0. -1.
</event>
<event>
 7    1  0.5109948E-006  0.9513300E+02  0.7561462E-02  0.1290877E+00
          1   -1    0    0  501    0  0.00000000000E+00  0.00000000000E+00  0.33169270192E+02  0.33169270192E+02  0.00000000000E+00 0. -1.
         -1   -1    0    0    0  501 -0.00000000000E+00 -0.00000000000E+00 -0.40607269956E+03  0.40607269956E+03  0.00000000000E+00 0.  1.
         23    2    1    2    0    0  0.18182691488E+02  0.26812982532E+02 -0.28428482906E+03  0.30827309339E+03  0.11473835355E+03 0.  0.
          5    1    3    3  502    0 -0.42208458268E+02 -0.83800512785E+01 -0.64882571780E+02  0.77967940396E+02  0.41800000000E+01 0. -1.
         -5    1    3    3    0  502  0.60391149756E+02  0.35193033810E+02 -0.21940225728E+03  0.23030515299E+03  0.41800000000E+01 0.  1.
        -11    1    1    2    0    0  0.25131852146E+02  0.16394642363E+01 -0.72417302632E+02  0.76671791134E+02  0.00000000000E+00 0.  1.
         11    1    1    2    0    0 -0.43314543634E+02 -0.28452446768E+02 -0.16201297676E+02  0.54297085223E+02  0.00000000000E+00 0. -1.
</event>
<event>
 7    1  0.5109948E-006  0.1309007E+03  0.7561462E-02  0.1226125E+00
          1   -1    0    0  501    0  0.00000000000E+00  0.00000000000E+00  0.31894810707E+03  0.31894810707E+03  0.00000000000E+00 0. -1.
         -1   -1    0    0    0  501 -0.00000000000E+00 -0.00000000000E+00 -0.87096242884E+02  0.87096242884E+02  0.00000000000E+00 0.  1.
         23    2    1    2    0    0 -0.74802165432E+01 -0.93660812610E+02  0.21889889234E+02  0.15797354689E+03  0.12509265689E+03 0.  0.
          5    1    3    3  502    0  0.46418119021E+02 -0.26353504892E+02 -0.25706881810E+02  0.59392467249E+02  0.41800000000E+01 0.  1.
         -5    1    3    3    0  502 -0.53898335564E+02 -0.67307307718E+02  0.47596771045E+02  0.98581079639E+02  0.41800000000E+01 0.  1.
        -11    1    1    2    0    0  0.41130754647E+02  0.68555059781E+02  0.87075429598E+02  0.11821026030E+03  0.00000000000E+00 0. -1.
         11    1    1    2    0    0 -0.33650538104E+02  0.25105752829E+02  0.12288654535E+03  0.12986054277E+03  0.00000000000E+00 0.  1.
</event>
<event>
 7    1  0.5109948E-006  0.1246602E+03  0.7561462E-02  0.1235601E+00
         -2   -1    0    0    0  501 -0.00000000000E+00  0.00000000000E+00  0.18402565302E+03  0.18402565302E+03  0.00000000000E+00 0.  1.
          2   -1    0    0  501    0  0.00000000000E+00 -0.00000000000E+00 -0.11437558426E+03  0.11437558426E+03  0.00000000000E+00 0. -1.
         23    2    1    2    0    0  0.47302139850E+02  0.46453863152E+02  0.11008011652E+03  0.17933945193E+03  0.12509817397E+03 0.  0.
          5    1    3    3  502    0  0.43441748811E+02 -0.35955535989E+02  0.61338327359E+02  0.83425708934E+02  0.41800000000E+01 0.  1.
         -5    1    3    3    0  502  0.38603910395E+01  0.82409399140E+02  0.48741789162E+02  0.95913743001E+02  0.41800000000E+01 0.  1.
        -11    1    1    2    0    0  0.25846517210E+02 -0.18828786640E+02 -0.21740293183E+02  0.38667893736E+02  0.00000000000E+00 0. -1.
         11    1    1    2    0    0 -0.73148657061E+02 -0.27625076512E+02 -0.18689754578E+02  0.80393891610E+02  0.00000000000E+00 0.  1.
</event>
<event>
 7    1  0.5109948E-006  0.9968957E+02  0.7561462E-02  0.1280950E+00
          2   -1    0    0  501    0  0.00000000000E+00  0.00000000000E+00  0.36058339868E+03  0.36058339868E+03  0.00000000000E+00 0. -1.
         -2   -1    0    0    0  501 -0.00000000000E+00 -0.00000000000E+00 -0.48948793779E+02  0.48948793779E+02  0.00000000000E+00 0.  1.
         23    2    1    2    0    0  0.18912680918E+02  0.67255029635E+02  0.12319972605E+03  0.18896249338E+03  0.12509085856E+03 0.  0.
          5    1    3    3  502    0  0.19091895246E+02 -0.23526437421E+02  0.85085376320E+02  0.90415636841E+02  0.41800000000E+01 0.  1.
         -5    1    3    3    0  502 -0.17921432821E+00  0.90781467056E+02  0.38114349734E+02  0.98546856541E+02  0.41800000000E+01 0.  1.
        -11    1    1    2    0    0  0.83189596148E+01 -0.33647065274E+02  0.17008854688E+03  0.17358411180E+03  0.00000000000E+00 0. -1.
         11    1    1    2    0    0 -0.27231640532E+02 -0.33607964361E+02  0.18346331961E+02  0.46985587269E+02  0.00000000000E+00 0.  1.
</event>
<event>
 7    1  0.5109948E-006  0.9720277E+02  0.7561462E-02  0.1286291E+00
          2   -1    0    0  501    0  0.00000000000E+00  0.00000000000E+00  0.24440130934E+02  0.24440130934E+02  0.00000000000E+00 0. -1.
         -2   -1    0    0    0  501 -0.00000000000E+00 -0.00000000000E+00 -0.56857986233E+03  0.56857986233E+03  0.00000000000E+00 0.  1.
         23    2    1    2    0    0  0.24678694734E+02  0.39763926802E+02 -0.34176483792E+03  0.36693368415E+03  0.12508763440E+03 0.  0.
          5    1    3    3  502    0  0.40422079706E+02  0.78966111685E+02 -0.26093677079E+03  0.27563574164E+03  0.41800000000E+01 0.  1.
         -5    1    3    3    0  502 -0.15743384972E+02 -0.39202184883E+02 -0.80828067131E+02  0.91297942508E+02  0.41800000000E+01 0.  1.
        -11    1    1    2    0    0  0.86636842582E+01 -0.25405687956E+02 -0.75160634405E+01  0.27874712825E+02  0.00000000000E+00 0. -1.
         11    1    1    2    0    0 -0.33342378993E+02 -0.14358238845E+02 -0.19485883003E+03  0.19821159628E+03  0.00000000000E+00 0.  1.
</event>
<event>
 7    1  0.5109948E-006  0.1886559E+03  0.7561462E-02  0.1159679E+00
         -2   -1    0    0    0  501 -0.00000000000E+00  0.00000000000E+00  0.66993713318E+03  0.66993713318E+03  0.00000000000E+00 0.  1.
          2   -1    0    0  501    0  0.00000000000E+00 -0.00000000000E+00 -0.75758924824E+02  0.75758924824E+02  0.00000000000E+00 0. -1.
         23    2    1    2    0    0  0.16690877478E+03  0.32663115551E+02  0.47519580663E+03  0.51998501771E+03  0.12509174948E+03 0.  0.
          5    1    3    3  502    0  0.10303543221E+03  0.77065540506E+02  0.24184929050E+03  0.27397800922E+03  0.41800000000E+01 0. -1.
         -5    1    3    3    0  502  0.63873342569E+02 -0.44402424955E+02  0.23334651614E+03  0.24600700849E+03  0.41800000000E+01 0. -1.
        -11    1    1    2    0    0 -0.68155979611E+02 -0.62069449824E+01 -0.52543211936E+00  0.68440045307E+02  0.00000000000E+00 0. -1.
         11    1    1    2    0    0 -0.98752795165E+02 -0.26456170569E+02  0.11950783384E+03  0.15727099498E+03  0.00000000000E+00 0.  1.
</event>
<event>
 7    1  0.5109948E-006  0.1018851E+03  0.7561462E-02  0.1276381E+00
         -2   -1    0    0    0  501 -0.00000000000E+00  0.00000000000E+00  0.11035000430E+03  0.11035000430E+03  0.00000000000E+00 0.  1.
          2   -1    0    0  501    0  0.00000000000E+00 -0.00000000000E+00 -0.17666884523E+03  0.17666884523E+03  0.00000000000E+00 0. -1.
         23    2    1    2    0    0 -0.62399469861E+02 -0.53811001035E+02 -0.46324916250E+01  0.14985960597E+03  0.12508846411E+03 0.  0.
          5    1    3    3  502    0 -0.65480815356E+02 -0.58875442969E+02  0.45499540085E+02  0.99205521582E+02  0.41800000000E+01 0. -1.
         -5    1    3    3    0  502  0.30813454949E+01  0.50644419339E+01 -0.50132031710E+02  0.50654084392E+02  0.41800000000E+01 0. -1.
        -11    1    1    2    0    0  0.78029921521E+02  0.48389775751E+02 -0.72845427976E+02  0.11720364937E+03  0.00000000000E+00 0. -1.
         11    1    1    2    0    0 -0.15630451660E+02  0.54212252837E+01  0.11159078670E+02  0.19955594188E+02  0.00000000000E+00 0.  1.
</event>
<event>
 7    1  0.5109948E-006  0.9605625E+02  0.7561462E-02  0.1288815E+00
         -1   -1    0    0    0  501 -0.00000000000E+00  0.00000000000E+00  0.72116340688E+02  0.72116340688E+02  0.00000000000E+00 0.  1.
          1   -1    0    0  501    0  0.00000000000E+00 -0.00000000000E+00 -0.23453758057E+03  0.23453758057E+03  0.00000000000E+00 0. -1.
         23    2    1    2    0    0  0.57665792443E+02  0.40114649597E+02 -0.74765750185E+02  0.16177400420E+03  0.12508549998E+03 0.  0.
          5    1    3    3  502    0  0.56241095395E+02  0.70427030119E+02 -0.90107815688E+02  0.12751438441E+03  0.41800000000E+01 0.  1.
         -5    1    3    3    0  502  0.14246970483E+01 -0.30312380522E+02  0.15342065503E+02  0.34259619795E+02  0.41800000000E+01 0.  1.
        -11    1    1    2    0    0 -0.42848828953E+02 -0.35763878003E+02  0.62581167507E-01  0.55812910951E+02  0.00000000000E+00 0.  1.
         11    1    1    2    0    0 -0.14816963490E+02 -0.43507715941E+01 -0.87718070860E+02  0.89067006102E+02  0.00000000000E+00 0. -1.
</event>
<event>
 7    1  0.5109948E-006  0.1065461E+03  0.7561462E-02  0.1267103E+00
          1   -1    0    0  501    0  0.00000000000E+00  0.00000000000E+00  0.42995215807E+03  0.42995215807E+03  0.00000000000E+00 0. -1.
         -1   -1    0    0    0  501 -0.00000000000E+00 -0.00000000000E+00 -0.31948815564E+02  0.31948815564E+02  0.00000000000E+00 0.  1.
         23    2    1    2    0    0  0.35250021791E+02  0.19288772081E+02  0.22331750349E+03  0.25992136891E+03  0.12678245102E+03 0.  0.
          5    1    3    3  502    0 -0.38124303187E+01  0.68705541136E+02  0.13182825322E+03  0.14876540846E+03  0.41800000000E+01 0.  1.
         -5    1    3    3    0  502  0.39062452109E+02 -0.49416769055E+02  0.91489250270E+02  0.11115596045E+03  0.41800000000E+01 0.  1.
        -11    1    1    2    0    0  0.12927537525E+02  0.16534209009E+02  0.44325388842E+01  0.21451076779E+02  0.00000000000E+00 0.  1.
         11    1    1    2    0    0 -0.48177559316E+02 -0.35822981090E+02  0.17025330013E+03  0.18052852794E+03  0.00000000000E+00 0. -1.
</event>
<event>
 7    1  0.5109948E-006  0.1176784E+03  0.7561462E-02  0.1246977E+00
         -2   -1    0    0    0  501 -0.00000000000E+00  0.00000000000E+00  0.74062328395E+03  0.74062328395E+03  0.00000000000E+00 0.  1.
          2   -1    0    0  501    0  0.00000000000E+00 -0.00000000000E+00 -0.21783365169E+02  0.21783365169E+02  0.00000000000E+00 0. -1.
         23    2    1    2    0    0  0.47098146656E+02 -0.19817807550E+02  0.51560859181E+03  0.53302021357E+03  0.12508935691E+03 0.  0.
          5    1    3    3  502    0  0.90091340866E+02 -0.12659407740E+02  0.36350272077E+03  0.37473778928E+03  0.41800000000E+01 0. -1.
         -5    1    3    3    0  502 -0.42993194209E+02 -0.71583998103E+01  0.15210587104E+03  0.15828242430E+03  0.41800000000E+01 0. -1.
        -11    1    1    2    0    0 -0.57199980574E+02 -0.19090056603E+02  0.15666655970E+03  0.16787101884E+03  0.00000000000E+00 0.  1.
         11    1    1    2    0    0  0.10101833918E+02  0.38907864153E+02  0.46564767270E+02  0.61515416705E+02  0.00000000000E+00 0. -1.
</event>
<event>
 7    1  0.5109948E-006  0.1545522E+03  0.7561462E-02  0.1194988E+00
          1   -1    0    0  501    0  0.00000000000E+00  0.00000000000E+00  0.65645767623E+03  0.65645767623E+03  0.00000000000E+00 0. -1.
         -1   -1    0    0    0  501 -0.00000000000E+00 -0.00000000000E+00 -0.77929489375E+02  0.77929489375E+02  0.00000000000E+00 0.  1.
         23    2    1    2    0    0  0.12586082906E+03 -0.52675018276E+02  0.66129783697E+02  0.19656127710E+03  0.12509029347E+03 0.  0.
          5    1    3    3  502    0  0.10020769398E+03 -0.62427030997E+02  0.98574672479E+02  0.15386082863E+03  0.41800000000E+01 0. -1.
         -5    1    3    3    0  502  0.25653135079E+02  0.97520127204E+01 -0.32444888782E+02  0.42700448470E+02  0.41800000000E+01 0. -1.
        -11    1    1    2    0    0 -0.11144656245E+03  0.30039277689E+01  0.36240428671E+03  0.37916517099E+03  0.00000000000E+00 0. -1.
         11    1    1    2    0    0 -0.14414266609E+02  0.49671090507E+02  0.14999411644E+03  0.15866071751E+03  0.00000000000E+00 0.  1.
</event>
<event>
 7    1  0.5109948E-006  0.9952633E+02  0.7561462E-02  0.1281295E+00
         -2   -1    0    0    0  501 -0.00000000000E+00  0.00000000000E+00  0.24367380504E+02  0.24367380504E+02  0.00000000000E+00 0.  1.
          2   -1    0    0  501    0  0.00000000000E+00 -0.00000000000E+00 -0.50802459964E+03  0.50802459964E+03  0.00000000000E+00 0. -1.
         23    2    1    2    0    0 -0.14405034039E+02 -0.19447789886E+02 -0.25545097361E+03  0.28546012571E+03  0.12508621792E+03 0.  0.
          5    1    3    3  502    0 -0.57997590601E+02 -0.19224306184E+02 -0.22216807131E+03  0.23045480853E+03  0.41800000000E+01 0.  1.
         -5    1    3    3    0  502  0.43592556562E+02 -0.22348370187E+00 -0.33282902301E+02  0.55005317181E+02  0.41800000000E+01 0.  1.
        -11    1    1    2    0    0  0.36740864832E+02 -0.24884559079E+02 -0.11772591323E+03  0.12581145844E+03  0.00000000000E+00 0. -1.
         11    1    1    2    0    0 -0.22335830793E+02  0.44332348965E+02 -0.11048033230E+03  0.12112039600E+03  0.00000000000E+00 0.  1.
</event>
<event>
 7    1  0.5109948E-006  0.1174761E+03  0.7561462E-02  0.1247320E+00
          3   -1    0    0  501    0  0.00000000000E+00  0.00000000000E+00  0.96001767771E+02  0.96001767771E+02  0.00000000000E+00 0. -1.
         -3   -1    0    0    0  501 -0.00000000000E+00 -0.00000000000E+00 -0.30599240912E+03  0.30599240912E+03  0.00000000000E+00 0.  1.
         23    2    1    2    0    0 -0.43374731175E+02 -0.38136728966E+02 -0.25298908173E+03  0.28807417603E+03  0.12508987977E+03 0.  0.
          5    1    3    3  502    0 -0.36416688453E+02 -0.79707432167E+02 -0.21063429491E+03  0.22817477629E+03  0.41800000000E+01 0.  1.
         -5    1    3    3    0  502 -0.69580427217E+01  0.41570703202E+02 -0.42354786814E+02  0.59899399740E+02  0.41800000000E+01 0.  1.
        -11    1    1    2    0    0  0.41060017771E+02 -0.20699598799E+02  0.25051142684E+02  0.52363710713E+02  0.00000000000E+00 0. -1.
         11    1    1    2    0    0  0.23147134038E+01  0.58836327765E+02  0.17947297692E+02  0.61556290153E+02  0.00000000000E+00 0.  1.
</event>
<event>
 7    1  0.5109948E-006  0.9769401E+02  0.7561462E-02  0.1285221E+00
         -2   -1    0    0    0  501 -0.00000000000E+00  0.00000000000E+00  0.14405997332E+03  0.14405997332E+03  0.00000000000E+00 0.  1.
          2   -1    0    0  501    0  0.00000000000E+00 -0.00000000000E+00 -0.18289666204E+03  0.18289666204E+03  0.00000000000E+00 0. -1.
         23    2    1    2    0    0 -0.62333415035E+02  0.26892889775E+01  0.82529990070E+02  0.16232853267E+03  0.12508663539E+03 0.  0.
          5    1    3    3  502    0  0.59576925966E+01  0.26879627887E+02  0.85275442243E+02  0.89707201194E+02  0.41800000000E+01 0. -1.
         -5    1    3    3    0  502 -0.68291107632E+02 -0.24190338909E+02 -0.27454521730E+01  0.72621331479E+02  0.41800000000E+01 0. -1.
        -11    1    1    2    0    0 -0.17344349164E+01  0.25082980094E+02 -0.79110021966E+02  0.83009395434E+02  0.00000000000E+00 0. -1.
         11    1    1    2    0    0  0.64067849952E+02 -0.27772269072E+02 -0.42256656828E+02  0.81618707250E+02  0.00000000000E+00 0.  1.
</event>
<event>
 7    1  0.5109948E-006  0.1146139E+03  0.7561462E-02  0.1252257E+00
          2   -1    0    0  501    0  0.00000000000E+00  0.00000000000E+00  0.10325925120E+03  0.10325925120E+03  0.00000000000E+00 0.  1.
         -2   -1    0    0    0  501 -0.00000000000E+00 -0.00000000000E+00 -0.17129082429E+03  0.17129082429E+03  0.00000000000E+00 0. -1.
         23    2    1    2    0    0  0.42568289330E+02  0.87149170830E+01 -0.10219399419E+03  0.16732966817E+03  0.12517026950E+03 0.  0.
          5    1    3    3  502    0  0.84737764381E+02  0.17434427417E+02 -0.83128593339E+02  0.12005116993E+03  0.41800000000E+01 0. -1.
         -5    1    3    3    0  502 -0.42169475051E+02 -0.87195103341E+01 -0.19065400846E+02  0.47278498242E+02  0.41800000000E+01 0. -1.
        -11    1    1    2    0    0 -0.11879372013E+02  0.40026508573E+02  0.25636884729E+02  0.48994803057E+02  0.00000000000E+00 0.  1.
         11    1    1    2    0    0 -0.30688917317E+02 -0.48741425656E+02  0.85255363603E+01  0.58225604259E+02  0.00000000000E+00 0. -1.
</event>
<event>
 7    1  0.5109948E-006  0.1004255E+03  0.7561462E-02  0.1279404E+00
          2   -1    0    0  501    0  0.00000000000E+00  0.00000000000E+00  0.13169431875E+02  0.13169431875E+02  0.00000000000E+00 0. -1.
         -2   -1    0    0    0  501 -0.00000000000E+00 -0.00000000000E+00 -0.13232378057E+04  0.13232378057E+04  0.00000000000E+00 0.  1.
         23    2    1    2    0    0  0.16547915180E+01 -0.16717969116E+02 -0.10870916998E+04  0.10943940804E+04  0.12509120880E+03 0.  0.
          5    1    3    3  502    0  0.62036225938E+02 -0.31745927726E+00 -0.46211559467E+03  0.46627984017E+03  0.41800000000E+01 0.  1.
         -5    1    3    3    0  502 -0.60381434420E+02 -0.16400509839E+02 -0.62497610514E+03  0.62811424020E+03  0.41800000000E+01 0.  1.
        -11    1    1    2    0    0  0.25404106555E+02  0.35044544939E+02 -0.50695929050E+02  0.66660077873E+02  0.00000000000E+00 0. -1.
         11    1    1    2    0    0 -0.27058898073E+02 -0.18326575823E+02 -0.17228074493E+03  0.17535307930E+03  0.00000000000E+00 0.  1.
</event>
<event>
 7    1  0.5109948E-006  0.1214157E+03  0.7561462E-02  0.1240780E+00
          1   -1    0    0  501    0  0.00000000000E+00  0.00000000000E+00  0.14419800939E+02  0.14419800939E+02  0.00000000000E+00 0. -1.
         -1   -1    0    0    0  501 -0.00000000000E+00 -0.00000000000E+00 -0.11823646057E+04  0.11823646057E+04  0.00000000000E+00 0.  1.
         23    2    1    2    0    0 -0.31876571128E+02 -0.66207593671E+02 -0.68239557824E+03  0.69764671429E+03  0.12509057324E+03 0.  0.
          5    1    3    3  502    0  0.12018944817E+02 -0.82729272810E+02 -0.27276948115E+03  0.28532306227E+03  0.41800000000E+01 0.  1.
         -5    1    3    3    0  502 -0.43895515945E+02  0.16521679139E+02 -0.40962609708E+03  0.41232365202E+03  0.41800000000E+01 0.  1.
        -11    1    1    2    0    0  0.56142315338E+02  0.19546034498E+02 -0.19476754374E+03  0.20363792164E+03  0.00000000000E+00 0. -1.
         11    1    1    2    0    0 -0.24265744210E+02  0.46661559173E+02 -0.29078168282E+03  0.29549977075E+03  0.00000000000E+00 0.  1.
</event>
<event>
 6    1  0.5109948E-006  0.1241725E+03  0.7561462E-02  0.1236368E+00
          2   -1    0    0  501    0  0.00000000000E+00  0.00000000000E+00  0.33431970002E+03  0.33431970002E+03  0.00000000000E+00 0.  1.
         -2   -1    0    0    0  501 -0.00000000000E+00 -0.00000000000E+00 -0.60509988427E+02  0.60509988427E+02  0.00000000000E+00 0. -1.
          5    1    1    2  502    0 -0.10191293830E+02 -0.45465330683E+02  0.37790455381E+02  0.60137755877E+02  0.41800000000E+01 0. -1.
         -5    1    1    2    0  502 -0.33907322829E+02  0.91024785254E+02  0.32302742584E+02  0.10245075720E+03  0.41800000000E+01 0.  1.
        -11    1    1    2    0    0  0.12371083588E+02 -0.65637165750E+02  0.87306980596E+02  0.10992629393E+03  0.00000000000E+00 0. -1.
         11    1    1    2    0    0  0.31727533071E+02  0.20077711179E+02  0.11640953303E+03  0.12231488144E+03  0.00000000000E+00 0.  1.
</event>
<event>
 7    1  0.5109948E-006  0.1293813E+03  0.7561462E-02  0.1228377E+00
         -3   -1    0    0    0  501 -0.00000000000E+00  0.00000000000E+00  0.12921405028E+04  0.12921405028E+04  0.00000000000E+00 0.  1.
          3   -1    0    0  501    0  0.00000000000E+00 -0.00000000000E+00 -0.19307181776E+02  0.19307181776E+02  0.00000000000E+00 0. -1.
         23    2    1    2    0    0 -0.57614316049E+02 -0.66520968268E+02  0.10089857962E+04  0.10205116703E+04  0.12508910304E+03 0.  0.
          5    1    3    3  502    0 -0.26808667427E+02 -0.97888093395E+02  0.54154732785E+03  0.55099161897E+03  0.41800000000E+01 0. -1.
         -5    1    3    3    0  502 -0.30805648622E+02  0.31367125127E+02  0.46743846837E+03  0.46952005137E+03  0.41800000000E+01 0. -1.
        -11    1    1    2    0    0  0.68250016125E+02  0.73499031894E+02  0.25823989756E+03  0.27703432473E+03  0.00000000000E+00 0.  1.
         11    1    1    2    0    0 -0.10635700076E+02 -0.69780636257E+01  0.56076272757E+01  0.13901689528E+02  0.00000000000E+00 0. -1.
</event>
<event>
 7    1  0.5109948E-006  0.1599092E+03  0.7561462E-02  0.1188799E+00
         -1   -1    0    0    0  501 -0.00000000000E+00  0.00000000000E+00  0.16249428970E+03  0.16249428970E+03  0.00000000000E+00 0.  1.
          1   -1    0    0  501    0  0.00000000000E+00 -0.00000000000E+00 -0.42625535904E+03  0.42625535904E+03  0.00000000000E+00 0. -1.
         23    2    1    2    0    0 -0.55379690221E+02  0.11372820968E+03  0.91534782759E+02  0.20006693151E+03  0.12508854809E+03 0.  0.
          5    1    3    3  502    0  0.28639223152E+02  0.46505522866E+02 -0.55811533080E+01  0.55059880421E+02  0.41800000000E+01 0.  1.
         -5    1    3    3    0  502 -0.84018913373E+02  0.67222686819E+02  0.97115936067E+02  0.14500705109E+03  0.41800000000E+01 0.  1.
        -11    1    1    2    0    0 -0.24517021932E+02 -0.48008583061E+02 -0.11161097875E+03  0.12394724276E+03  0.00000000000E+00 0. -1.
         11    1    1    2    0    0  0.79896712153E+02 -0.65719626623E+02 -0.24368487336E+03  0.26473547447E+03  0.00000000000E+00 0.  1.
</event>
<event>
 7    1  0.5109948E-006  0.8749390E+02  0.7561462E-02  0.1309037E+00
          1   -1    0    0  501    0  0.00000000000E+00  0.00000000000E+00  0.22333919474E+03  0.22333919474E+03  0.00000000000E+00 0. -1.
         -1   -1    0    0    0  501 -0.00000000000E+00 -0.00000000000E+00 -0.70357359883E+02  0.70357359883E+02  0.00000000000E+00 0.  1.
         23    2    1    2    0    0 -0.23048802039E+02  0.53558278564E+02  0.56770699646E+02  0.14923187460E+03  0.12508998193E+03 0.  0.
          5    1    3    3  502    0 -0.38240714799E+02  0.11102750742E+02  0.86323452687E+02  0.95156892688E+02  0.41800000000E+01 0.  1.
         -5    1    3    3    0  502  0.15191912760E+02  0.42455527822E+02 -0.29552753041E+02  0.54074981907E+02  0.41800000000E+01 0.  1.
        -11    1    1    2    0    0 -0.22678916005E+02 -0.31708931625E+02  0.83595061936E+02  0.92238408247E+02  0.00000000000E+00 0. -1.
         11    1    1    2    0    0  0.45727718043E+02 -0.21849346939E+02  0.12616073275E+02  0.52226271780E+02  0.00000000000E+00 0.  1.
</event>
<event>
 7    1  0.5109948E-006  0.1345116E+03  0.7561462E-02  0.1220911E+00
          2   -1    0    0  501    0  0.00000000000E+00  0.00000000000E+00  0.19733712210E+03  0.19733712210E+03  0.00000000000E+00 0. -1.
         -2   -1    0    0    0  501 -0.00000000000E+00 -0.00000000000E+00 -0.10636958840E+03  0.10636958840E+03  0.00000000000E+00 0.  1.
         23    2    1    2    0    0  0.34379380873E+02 -0.83575604461E+02  0.69515615766E+01  0.15026390383E+03  0.11985029451E+03 0.  0.
          5    1    3    3  502    0  0.44784765752E+02  0.17136389405E+02  0.87069200672E+01  0.48914353132E+02  0.41800000000E+01 0. -1.
         -5    1    3    3    0  502 -0.10405384879E+02 -0.10071199387E+03 -0.17553584906E+01  0.10134955070E+03  0.41800000000E+01 0.  1.
        -11    1    1    2    0    0  0.16193477870E+02 -0.55191767002E+01 -0.48940334012E+01  0.17794426091E+02  0.00000000000E+00 0.  1.
         11    1    1    2    0    0 -0.50572858743E+02  0.89094781161E+02  0.88910005530E+02  0.13564838058E+03  0.00000000000E+00 0. -1.
</event>
<event>
 6    1  0.5109948E-006  0.1665489E+03  0.7561462E-02  0.1181495E+00
          1   -1    0    0  501    0  0.00000000000E+00  0.00000000000E+00  0.49174921474E+03  0.49174921474E+03  0.00000000000E+00 0. -1.
         -1   -1    0    0    0  501 -0.00000000000E+00 -0.00000000000E+00 -0.96870300710E+02  0.96870300710E+02  0.00000000000E+00 0.  1.
          5    1    1    2  502    0  0.72190138073E+02  0.25806555233E+02  0.27648077895E+03  0.28694335305E+03  0.41800000000E+01 0. -1.
         -5    1    1    2    0  502 -0.11496396159E+03 -0.53986190239E+02  0.21951334777E+01  0.12709646813E+03  0.41800000000E+01 0.  1.
        -11    1    1    2    0    0  0.52908755437E+02 -0.36175613777E+02  0.68671778221E+02  0.93935214686E+02  0.00000000000E+00 0.  1.
         11    1    1    2    0    0 -0.10134931923E+02  0.64355248783E+02  0.47531223372E+02  0.80644479577E+02  0.00000000000E+00 0. -1.
</event>
<event>
 7    1  0.5109948E-006  0.3432365E+03  0.7561462E-02  0.1065426E+00
         -2   -1    0    0    0  501 -0.00000000000E+00  0.00000000000E+00  0.12282198686E+03  0.12282198686E+03  0.00000000000E+00 0.  1.
          2   -1    0    0  501    0  0.00000000000E+00 -0.00000000000E+00 -0.10276224726E+04  0.10276224726E+04  0.00000000000E+00 0. -1.
         23    2    1    2    0    0  0.22690694996E+03  0.23952915978E+03 -0.33943159885E+03  0.48961144540E+03  0.12507827488E+03 0.  0.
          5    1    3    3  502    0  0.21119936789E+03  0.25422711124E+03 -0.32365940060E+03  0.46261158338E+03  0.41800000000E+01 0.  1.
         -5    1    3    3    0  502  0.15707582068E+02 -0.14697951454E+02 -0.15772198251E+02  0.26999862019E+02  0.41800000000E+01 0.  1.
        -11    1    1    2    0    0 -0.18431931300E+03 -0.16120263668E+03 -0.47198498786E+03  0.53172335663E+03  0.00000000000E+00 0. -1.
         11    1    1    2    0    0 -0.42587636958E+02 -0.78326523099E+02 -0.93383899016E+02  0.12910965742E+03  0.00000000000E+00 0.  1.
</event>
<event>
 7    1  0.5109948E-006  0.8862849E+02  0.7561462E-02  0.1306207E+00
          2   -1    0    0  501    0  0.00000000000E+00  0.00000000000E+00  0.71750947668E+03  0.71750947668E+03  0.00000000000E+00 0. -1.
         -2   -1    0    0    0  501 -0.00000000000E+00 -0.00000000000E+00 -0.22765613911E+02  0.22765613911E+02  0.00000000000E+00 0.  1.
         23    2    1    2    0    0  0.36048491127E+02 -0.47194921475E+02  0.29511295940E+03  0.32598569880E+03  0.12509261646E+03 0.  0.
          5    1    3    3  502    0  0.38786713864E+02 -0.56804485520E+02  0.62228287061E+02  0.92849291102E+02  0.41800000000E+01 0.  1.
         -5    1    3    3    0  502 -0.27382227366E+01  0.96095640450E+01  0.23288467234E+03  0.23313640770E+03  0.41800000000E+01 0.  1.
        -11    1    1    2    0    0 -0.58960521242E+02  0.20702101186E+02  0.33499221375E+03  0.34077074894E+03  0.00000000000E+00 0. -1.
         11    1    1    2    0    0  0.22912030114E+02  0.26492820289E+02  0.64638689615E+02  0.73518642847E+02  0.00000000000E+00 0.  1.
</event>
<event>
 7    1  0.5109948E-006  0.1341428E+03  0.7561462E-02  0.1221435E+00
         -1   -1    0    0    0  501 -0.00000000000E+00  0.00000000000E+00  0.28719852645E+03  0.28719852645E+03  0.00000000000E+00 0.  1.
          1   -1    0    0  501    0  0.00000000000E+00 -0.00000000000E+00 -0.68185994462E+02  0.68185994462E+02  0.00000000000E+00 0. -1.
         23    2    1    2    0    0 -0.85618098796E+02  0.52726326948E+01  0.14614761305E+03  0.21062998024E+03  0.12509038444E+03 0.  0.
          5    1    3    3  502    0 -0.47438785759E+02 -0.55793642135E+02  0.10339504451E+03  0.12677293294E+03  0.41800000000E+01 0. -1.
         -5    1    3    3    0  502 -0.38179313037E+02  0.61066274830E+02  0.42752568548E+02  0.83857047307E+02  0.41800000000E+01 0. -1.
        -11    1    1    2    0    0  0.18501146021E+02  0.38463307194E+02  0.38876826474E+02  0.57733231688E+02  0.00000000000E+00 0.  1.
         11    1    1    2    0    0  0.67116952776E+02 -0.43735939889E+02  0.33988092463E+02  0.87021308983E+02  0.00000000000E+00 0. -1.
</event>
<event>
 7    1  0.5109948E-006  0.7741736E+02  0.7561462E-02  0.1336545E+00
         -1   -1    0    0    0  501 -0.00000000000E+00  0.00000000000E+00  0.38949877070E+02  0.38949877070E+02  0.00000000000E+00 0.  1.
          1   -1    0    0  501    0  0.00000000000E+00 -0.00000000000E+00 -0.31153159377E+03  0.31153159377E+03  0.00000000000E+00 0. -1.
         23    2    1    2    0    0 -0.27027975550E+02  0.81009490577E+01 -0.13464542482E+03  0.18298799562E+03  0.12066100978E+03 0.  0.
          5    1    3    3  502    0 -0.38348026935E+02 -0.10078420128E+02 -0.15070854217E+03  0.15589317755E+03  0.41800000000E+01 0. -1.
         -5    1    3    3    0  502  0.11320051385E+02  0.18179369186E+02  0.16063117357E+02  0.27094818076E+02  0.41800000000E+01 0.  1.
        -11    1    1    2    0    0  0.56867029834E+02  0.10716366250E+02 -0.68988573218E+02  0.90045115484E+02  0.00000000000E+00 0.  1.
         11    1    1    2    0    0 -0.29839054284E+02 -0.18817315308E+02 -0.68947718671E+02  0.77448359737E+02  0.00000000000E+00 0. -1.
</event>
<event>
 7    1  0.5109948E-006  0.7467323E+02  0.7561462E-02  0.1344886E+00
         -2   -1    0    0    0  501 -0.00000000000E+00  0.00000000000E+00  0.18627720235E+02  0.18627720235E+02  0.00000000000E+00 0.  1.
          2   -1    0    0  501    0  0.00000000000E+00 -0.00000000000E+00 -0.71840460538E+03  0.71840460538E+03  0.00000000000E+00 0. -1.
         23    2    1    2    0    0  0.22127755616E+02 -0.28851707204E+02 -0.34113482890E+03  0.36516235206E+03  0.12509401782E+03 0.  0.
          5    1    3    3  502    0 -0.19828334808E+02  0.11776352398E+01 -0.29537538826E+03  0.29607202178E+03  0.41800000000E+01 0. -1.
         -5    1    3    3    0  502  0.41956090424E+02 -0.30029342444E+02 -0.45759440637E+02  0.69090330283E+02  0.41800000000E+01 0. -1.
        -11    1    1    2    0    0  0.10452975805E+02 -0.17644747972E+02 -0.20509946231E+02  0.29004477733E+02  0.00000000000E+00 0.  1.
         11    1    1    2    0    0 -0.32580731421E+02  0.46496455176E+02 -0.33813211001E+03  0.34286549582E+03  0.00000000000E+00 0. -1.
</event>
<event>
 7    1  0.5109948E-006  0.1075397E+03  0.7561462E-02  0.1265195E+00
          2   -1    0    0  501    0  0.00000000000E+00  0.00000000000E+00  0.54657786259E+02  0.54657786259E+02  0.00000000000E+00 0. -1.
         -2   -1    0    0    0  501 -0.00000000000E+00 -0.00000000000E+00 -0.25871156487E+03  0.25871156487E+03  0.00000000000E+00 0.  1.
         23    2    1    2    0    0  0.76862215003E+01  0.27583817090E+02 -0.16465856984E+03  0.20879795006E+03  0.12515667926E+03 0.  0.
          5    1    3    3  502    0  0.33990083367E+02 -0.37732499700E+02 -0.10380800170E+03  0.11564013541E+03  0.41800000000E+01 0. -1.
         -5    1    3    3    0  502 -0.26303861867E+02  0.65316316790E+02 -0.60850568137E+02  0.93157814652E+02  0.41800000000E+01 0. -1.
        -11    1    1    2    0    0 -0.43577410233E+01  0.32810881832E+02 -0.27260535224E+02  0.42879839716E+02  0.00000000000E+00 0.  1.
         11    1    1    2    0    0 -0.33284804770E+01 -0.60394698922E+02 -0.12134673555E+02  0.61691561355E+02  0.00000000000E+00 0. -1.
</event>
<event>
 7    1  0.5109948E-006  0.9980968E+02  0.7561462E-02  0.1280697E+00
          2   -1    0    0  501    0  0.00000000000E+00  0.00000000000E+00  0.23944142407E+02  0.23944142407E+02  0.00000000000E+00 0. -1.
         -2   -1    0    0    0  501 -0.00000000000E+00 -0.00000000000E+00 -0.54742537622E+03  0.54742537622E+03  0.00000000000E+00 0.  1.
         23    2    1    2    0    0  0.29299111891E+02  0.17344681092E+02 -0.27613074911E+03  0.30505266600E+03  0.12509861115E+03 0.  0.
          5    1    3    3  502    0  0.50956774497E+02  0.45480254547E+02 -0.78170564184E+02  0.10389011467E+03  0.41800000000E+01 0. -1.
         -5    1    3    3    0  502 -0.21657662606E+02 -0.28135573455E+02 -0.19796018492E+03  0.20116255133E+03  0.41800000000E+01 0. -1.
        -11    1    1    2    0    0  0.76592053425E+01  0.32498532682E+02 -0.12144821777E+03  0.12595430779E+03  0.00000000000E+00 0.  1.
         11    1    1    2    0    0 -0.36958317234E+02 -0.49843213774E+02 -0.12590226694E+03  0.14036254484E+03  0.00000000000E+00 0. -1.
</event>
<event>
 7    1  0.5109948E-006  0.1156576E+03  0.7561462E-02  0.1250438E+00
         -2   -1    0    0    0  501 -0.00000000000E+00  0.00000000000E+00  0.24161196597E+03  0.24161196597E+03  0.00000000000E+00 0. -1.
          2   -1    0    0  501    0  0.00000000000E+00 -0.00000000000E+00 -0.13840083224E+03  0.13840083224E+03  0.00000000000E+00 0.  1.
         23    2    1    2    0    0  0.87822890680E+02 -0.39345045054E+02  0.16835561610E+03  0.23076263205E+03  0.12508751408E+03 0.  0.
          5    1    3    3  502    0  0.82759195096E+02 -0.63919772652E+02  0.17550634890E+03  0.20433984588E+03  0.41800000000E+01 0.  1.
         -5    1    3    3    0  502  0.50636955836E+01  0.24574727598E+02 -0.71507327975E+01  0.26422786171E+02  0.41800000000E+01 0.  1.
        -11    1    1    2    0    0 -0.51718726928E+02  0.39570637433E+02 -0.85753867174E+02  0.10767723899E+03  0.00000000000E+00 0.  1.
         11    1    1    2    0    0 -0.36104163752E+02 -0.22559237916E+00  0.20609384796E+02  0.41572927174E+02  0.00000000000E+00 0. -1.
</event>
<event>
 6    1  0.5109948E-006  0.1454912E+03  0.7561462E-02  0.1206125E+00
         -3   -1    0    0    0  501 -0.00000000000E+00  0.00000000000E+00  0.51178921653E+02  0.51178921653E+02  0.00000000000E+00 0.  1.
          3   -1    0    0  501    0  0.00000000000E+00 -0.00000000000E+00 -0.55616384900E+03  0.55616384900E+03  0.00000000000E+00 0. -1.
          5    1    1    2  502    0 -0.10214674299E+03  0.12492246622E+02 -0.15121604635E+03  0.18295840621E+03  0.41800000000E+01 0. -1.
         -5    1    1    2    0  502  0.68173047551E+02  0.52902233449E+02 -0.51326608169E+02  0.10048932193E+03  0.41800000000E+01 0.  1.
        -11    1    1    2    0    0  0.26557700894E+02 -0.80500962424E+02 -0.29207926653E+03  0.30413157410E+03  0.00000000000E+00 0.  1.
         11    1    1    2    0    0  0.74159945463E+01  0.15106482352E+02 -0.10363006305E+02  0.19763468416E+02  0.00000000000E+00 0. -1.
</event>
<event>
 7    1  0.5109948E-006  0.8771313E+02  0.7561462E-02  0.1308486E+00
         -2   -1    0    0    0  501 -0.00000000000E+00  0.00000000000E+00  0.34416223863E+02  0.34416223863E+02  0.00000000000E+00 0.  1.
          2   -1    0    0  501    0  0.00000000000E+00 -0.00000000000E+00 -0.38065754572E+03  0.38065754572E+03  0.00000000000E+00 0. -1.
         23    2    1    2    0    0  0.37421990142E+02 -0.16514096064E+02 -0.12431224696E+03  0.17209352244E+03  0.11175654347E+03 0.  0.
          5    1    3    3  502    0  0.50640496996E+02  0.56830081019E+01 -0.13459173087E+03  0.14397625824E+03  0.41800000000E+01 0. -1.
         -5    1    3    3    0  502 -0.13218506853E+02 -0.22197104166E+02  0.10279483913E+02  0.28117264204E+02  0.41800000000E+01 0.  1.
        -11    1    1    2    0    0 -0.56151132943E+02  0.39368785768E+02 -0.14019328117E+03  0.15606731595E+03  0.00000000000E+00 0. -1.
         11    1    1    2    0    0  0.18729142801E+02 -0.22854689704E+02 -0.81735793735E+02  0.86912931196E+02  0.00000000000E+00 0.  1.
</event>
<event>
 6    1  0.5109948E-006  0.2754621E+03  0.7561462E-02  0.1098194E+00
          1   -1    0    0  501    0  0.00000000000E+00  0.00000000000E+00  0.63594058317E+03  0.63594058317E+03  0.00000000000E+00 0. -1.
         -1   -1    0    0    0  501 -0.00000000000E+00 -0.00000000000E+00 -0.16738541358E+03  0.16738541358E+03  0.00000000000E+00 0.  1.
          5    1    1    2  502    0 -0.30667836311E+02  0.46539408208E+01 -0.72421651975E+01  0.32126261934E+02  0.41800000000E+01 0. -1.
         -5    1    1    2    0  502  0.12206013820E+03 -0.23861721020E+03  0.57134321566E+02  0.27407782370E+03  0.41800000000E+01 0.  1.
        -11    1    1    2    0    0 -0.93287410570E+01  0.37743528877E+02  0.16612072286E+02  0.42279549755E+02  0.00000000000E+00 0.  1.
         11    1    1    2    0    0 -0.82063560832E+02  0.19621974050E+03  0.40205094094E+03  0.45484236136E+03  0.00000000000E+00 0. -1.
</event>
<event>
 7    1  0.5109948E-006  0.1181719E+03  0.7561462E-02  0.1246144E+00
          1   -1    0    0  501    0  0.00000000000E+00  0.00000000000E+00  0.40694638374E+02  0.40694638374E+02  0.00000000000E+00 0. -1.
         -1   -1    0    0    0  501 -0.00000000000E+00 -0.00000000000E+00 -0.59075063712E+03  0.59075063712E+03  0.00000000000E+00 0.  1.
         23    2    1    2    0    0  0.52062315555E+02  0.15863309817E+02 -0.49147594167E+03  0.51005677310E+03  0.12508869353E+03 0.  0.
          5    1    3    3  502    0  0.91622231105E+02  0.26062406600E+02 -0.34284643695E+03  0.35585816557E+03  0.41800000000E+01 0.  1.
         -5    1    3    3    0  502 -0.39559915550E+02 -0.10199096784E+02 -0.14862950472E+03  0.15419860754E+03  0.41800000000E+01 0.  1.
        -11    1    1    2    0    0 -0.16210869947E+02  0.34493632762E+02 -0.43354990338E+02  0.57725715177E+02  0.00000000000E+00 0.  1.
         11    1    1    2    0    0 -0.35851445608E+02 -0.50356942579E+02 -0.15225066735E+02  0.63662787208E+02  0.00000000000E+00 0. -1.
</event>
<event>
 7    1  0.5109948E-006  0.9930882E+02  0.7561462E-02  0.1281756E+00
          3   -1    0    0  501    0  0.00000000000E+00  0.00000000000E+00  0.12858511289E+03  0.12858511289E+03  0.00000000000E+00 0. -1.
         -3   -1    0    0    0  501 -0.00000000000E+00 -0.00000000000E+00 -0.10590946220E+03  0.10590946220E+03  0.00000000000E+00 0.  1.
         23    2    1    2    0    0 -0.24812008598E+02  0.34585594299E+02  0.16806855482E+02  0.13319892931E+03  0.12509070818E+03 0.  0.
          5    1    3    3  502    0 -0.68861021681E+02  0.49340086435E+02  0.43763368897E+01  0.84928847637E+02  0.41800000000E+01 0.  1.
         -5    1    3    3    0  502  0.44049013084E+02 -0.14754492136E+02  0.12430518593E+02  0.48270081669E+02  0.41800000000E+01 0.  1.
        -11    1    1    2    0    0  0.20145044938E+02  0.98885705918E+01 -0.34430288414E+02  0.41098070809E+02  0.00000000000E+00 0.  1.
         11    1    1    2    0    0  0.46669636593E+01 -0.44474164891E+02  0.40299083615E+02  0.60197574974E+02  0.00000000000E+00 0. -1.
</event>
<event>
 7    1  0.5109948E-006  0.7543124E+02  0.7561462E-02  0.1342541E+00
          2   -1    0    0  501    0  0.00000000000E+00  0.00000000000E+00  0.55750798125E+02  0.55750798125E+02  0.00000000000E+00 0.  1.
         -2   -1    0    0    0  501 -0.00000000000E+00 -0.00000000000E+00 -0.27718453578E+03  0.27718453578E+03  0.00000000000E+00 0. -1.
         23    2    1    2    0    0  0.52892951473E+02  0.27564730020E+02 -0.14249514135E+03  0.19877078489E+03  0.12508989153E+03 0.  0.
          5    1    3    3  502    0  0.57583394396E+02  0.49711514064E+01 -0.15956733204E+03  0.16976385219E+03  0.41800000000E+01 0.  1.
         -5    1    3    3    0  502 -0.46904429228E+01  0.22593578613E+02  0.17072190695E+02  0.29006932697E+02  0.41800000000E+01 0.  1.
        -11    1    1    2    0    0 -0.56478480110E+02 -0.18045998616E+02 -0.96854971696E+02  0.11356215181E+03  0.00000000000E+00 0. -1.
         11    1    1    2    0    0  0.35855286374E+01 -0.95187314038E+01  0.17916375393E+02  0.20602397199E+02  0.00000000000E+00 0.  1.
</event>
<event>
 7    1  0.5109948E-006  0.1197233E+03  0.7561462E-02  0.1243554E+00
          1   -1    0    0  501    0  0.00000000000E+00  0.00000000000E+00  0.19351037884E+03  0.19351037884E+03  0.00000000000E+00 0. -1.
         -1   -1    0    0    0  501 -0.00000000000E+00 -0.00000000000E+00 -0.10313806597E+03  0.10313806597E+03  0.00000000000E+00 0.  1.
         23    2    1    2    0    0  0.43480975117E+02  0.76364533928E+02  0.29831087968E+02  0.15575058235E+03  0.12508482263E+03 0.  0.
          5    1    3    3  502    0 -0.44416526626E+01 -0.11943976198E+02 -0.34063148179E+02  0.36608159059E+02  0.41800000000E+01 0. -1.
         -5    1    3    3    0  502  0.47922627780E+02  0.88308510126E+02  0.63894236147E+02  0.11914242329E+03  0.41800000000E+01 0. -1.
        -11    1    1    2    0    0 -0.71509217477E+02 -0.56081786323E+02  0.53929037250E+02  0.10567438668E+03  0.00000000000E+00 0. -1.
         11    1    1    2    0    0  0.28028242360E+02 -0.20282747604E+02  0.66121876540E+01  0.35223475776E+02  0.00000000000E+00 0.  1.
</event>
<event>
 7    1  0.5109948E-006  0.1864324E+03  0.7561462E-02  0.1161719E+00
          2   -1    0    0  501    0  0.00000000000E+00  0.00000000000E+00  0.72701613143E+03  0.72701613143E+03  0.00000000000E+00 0. -1.
         -2   -1    0    0    0  501 -0.00000000000E+00 -0.00000000000E+00 -0.65588635861E+02  0.65588635861E+02  0.00000000000E+00 0.  1.
         23    2    1    2    0    0  0.16176494651E+03  0.88966772387E+02  0.27528848764E+03  0.35427701296E+03  0.12508183713E+03 0.  0.
          5    1    3    3  502    0  0.15611495082E+03  0.80680605274E+02  0.15759298036E+03  0.23608104073E+03  0.41800000000E+01 0. -1.
         -5    1    3    3    0  502  0.56499956936E+01  0.82861671134E+01  0.11769550728E+03  0.11819597223E+03  0.41800000000E+01 0. -1.
        -11    1    1    2    0    0 -0.58163556066E+02 -0.18933601294E+02  0.47833824835E+02  0.77650211272E+02  0.00000000000E+00 0.  1.
         11    1    1    2    0    0 -0.10360139045E+03 -0.70033171093E+02  0.33830518310E+03  0.36067754306E+03  0.00000000000E+00 0. -1.
</event>
<event>
 7    1  0.5109948E-006  0.1145991E+03  0.7561462E-02  0.1252282E+00
          1   -1    0    0  501    0  0.00000000000E+00  0.00000000000E+00  0.75669417434E+02  0.75669417434E+02  0.00000000000E+00 0. -1.
         -1   -1    0    0    0  501 -0.00000000000E+00 -0.00000000000E+00 -0.32771925621E+03  0.32771925621E+03  0.00000000000E+00 0.  1.
         23    2    1    2    0    0 -0.17515604202E+02  0.37944876593E+02 -0.27016843311E+03  0.30064313114E+03  0.12509476408E+03 0.  0.
          5    1    3    3  502    0 -0.36344896739E+02  0.76805952063E+02 -0.14434482406E+03  0.16755001171E+03  0.41800000000E+01 0. -1.
         -5    1    3    3    0  502  0.18829292537E+02 -0.38861075470E+02 -0.12582360905E+03  0.13309311943E+03  0.41800000000E+01 0. -1.
        -11    1    1    2    0    0  0.54294543795E+02 -0.33239347790E+02  0.15809898312E+02  0.65595004475E+02  0.00000000000E+00 0.  1.
         11    1    1    2    0    0 -0.36778939593E+02 -0.47055288025E+01  0.23086960230E+01  0.37150538034E+02  0.00000000000E+00 0. -1.
</event>
<event>
 7    1  0.5109948E-006  0.1178140E+03  0.7561462E-02  0.1246747E+00
         -1   -1    0    0    0  501 -0.00000000000E+00  0.00000000000E+00  0.35782265564E+02  0.35782265564E+02  0.00000000000E+00 0.  1.
          1   -1    0    0  501    0  0.00000000000E+00 -0.00000000000E+00 -0.61627259521E+03  0.61627259521E+03  0.00000000000E+00 0. -1.
         23    2    1    2    0    0 -0.70320272692E+02  0.71572714517E+02 -0.29234823750E+03  0.33344898961E+03  0.12511251929E+03 0.  0.
          5    1    3    3  502    0 -0.80365834114E+02  0.65017621933E+02 -0.11130732741E+03  0.15196299546E+03  0.41800000000E+01 0. -1.
         -5    1    3    3    0  502  0.10045561422E+02  0.65550925843E+01 -0.18104091010E+03  0.18148599415E+03  0.41800000000E+01 0. -1.
        -11    1    1    2    0    0  0.34970467678E+02 -0.76176245999E+02 -0.11782249785E+03  0.14459562602E+03  0.00000000000E+00 0.  1.
         11    1    1    2    0    0  0.35349805015E+02  0.46035314824E+01 -0.17031959430E+03  0.17401024515E+03  0.00000000000E+00 0. -1.
</event>
<event>
 7    1  0.5109948E-006  0.7136057E+02  0.7561462E-02  0.1355527E+00
         -3   -1    0    0    0  501 -0.00000000000E+00  0.00000000000E+00  0.87712134536E+02  0.87712134536E+02  0.00000000000E+00 0.  1.
          3   -1    0    0  501    0  0.00000000000E+00 -0.00000000000E+00 -0.14581053852E+03  0.14581053852E+03  0.00000000000E+00 0. -1.
         23    2    1    2    0    0  0.24146569617E+02  0.16961948789E+02 -0.35358438993E+02  0.13329518551E+03  0.12508646107E+03 0.  0.
          5    1    3    3  502    0  0.29724168296E+02  0.21577649546E+02  0.41733135611E+02  0.55751664987E+02  0.41800000000E+01 0. -1.
         -5    1    3    3    0  502 -0.55775986797E+01 -0.46157007578E+01 -0.77091574605E+02  0.77543520526E+02  0.41800000000E+01 0. -1.
        -11    1    1    2    0    0  0.35713186873E+02 -0.10274079977E+02 -0.54222073263E+01  0.37555143034E+02  0.00000000000E+00 0.  1.
         11    1    1    2    0    0 -0.59859756489E+02 -0.66878688112E+01 -0.17317757669E+02  0.62672344514E+02  0.00000000000E+00 0. -1.
</event>
<event>
 7    1  0.5109948E-006  0.1710606E+03  0.7561462E-02  0.1176746E+00
         -2   -1    0    0    0  501 -0.00000000000E+00  0.00000000000E+00  0.15494635232E+03  0.15494635232E+03  0.00000000000E+00 0.  1.
          2   -1    0    0  501    0  0.00000000000E+00 -0.00000000000E+00 -0.29406235527E+03  0.29406235527E+03  0.00000000000E+00 0. -1.
         23    2    1    2    0    0  0.72739702007E+02 -0.12009303233E+03  0.51952841160E+02  0.19509092162E+03  0.12509184359E+03 0.  0.
          5    1    3    3  502    0 -0.26974771858E+02 -0.23898607442E+02  0.42896431922E+02  0.56181474047E+02  0.41800000000E+01 0. -1.
         -5    1    3    3    0  502  0.99714473864E+02 -0.96194424887E+02  0.90564092374E+01  0.13890944758E+03  0.41800000000E+01 0. -1.
        -11    1    1    2    0    0  0.73411393350E+01  0.74930278620E+02 -0.87097760688E+02  0.11512801092E+03  0.00000000000E+00 0. -1.
         11    1    1    2    0    0 -0.80080841342E+02  0.45162753710E+02 -0.10397108342E+03  0.13878977505E+03  0.00000000000E+00 0.  1.
</event>
<event>
 7    1  0.5109948E-006  0.1155376E+03  0.7561462E-02  0.1250646E+00
         -4   -1    0    0    0  501 -0.00000000000E+00  0.00000000000E+00  0.66804979576E+03  0.66804979576E+03  0.00000000000E+00 0.  1.
          4   -1    0    0  501    0  0.00000000000E+00 -0.00000000000E+00 -0.21608401446E+02  0.21608401446E+02  0.00000000000E+00 0. -1.
         23    2    1    2    0    0  0.40108074751E+02  0.30992073558E+02  0.38517875774E+03  0.40814112196E+03  0.12508930305E+03 0.  0.
          5    1    3    3  502    0 -0.42000114872E+02  0.31312119121E+02  0.16114272510E+03  0.16949604333E+03  0.41800000000E+01 0.  1.
         -5    1    3    3    0  502  0.82108189623E+02 -0.32004556232E+00  0.22403603264E+03  0.23864507863E+03  0.41800000000E+01 0.  1.
        -11    1    1    2    0    0  0.25482687892E+02 -0.65696869186E+01  0.13125247639E+03  0.13386463583E+03  0.00000000000E+00 0.  1.
         11    1    1    2    0    0 -0.65590762643E+02 -0.24422386640E+02  0.13001016019E+03  0.14765243942E+03  0.00000000000E+00 0. -1.
</event>
<event>
 7    1  0.5109948E-006  0.9502163E+02  0.7561462E-02  0.1291127E+00
         -1   -1    0    0    0  501 -0.00000000000E+00  0.00000000000E+00  0.21633781307E+02  0.21633781307E+02  0.00000000000E+00 0.  1.
          1   -1    0    0  501    0  0.00000000000E+00 -0.00000000000E+00 -0.61905244527E+03  0.61905244527E+03  0.00000000000E+00 0. -1.
         23    2    1    2    0    0  0.43350760503E+01 -0.12797095935E+02 -0.25376837754E+03  0.28324575500E+03  0.12508880742E+03 0.  0.
          5    1    3    3  502    0  0.14066855928E+02  0.37528705589E+02 -0.21525730294E+03  0.21899648181E+03  0.41800000000E+01 0.  1.
         -5    1    3    3    0  502 -0.97317798782E+01 -0.50325801523E+02 -0.38511074600E+02  0.64249273190E+02  0.41800000000E+01 0.  1.
        -11    1    1    2    0    0  0.15389100290E+02  0.52110446354E+02 -0.19213476317E+03  0.19966995329E+03  0.00000000000E+00 0. -1.
         11    1    1    2    0    0 -0.19724176340E+02 -0.39313350419E+02 -0.15151552325E+03  0.15777051828E+03  0.00000000000E+00 0.  1.
</event>
<event>
 7    1  0.5109948E-006  0.1224013E+03  0.7561462E-02  0.1239187E+00
         -2   -1    0    0    0  501 -0.00000000000E+00  0.00000000000E+00  0.20237248469E+03  0.20237248469E+03  0.00000000000E+00 0.  1.
          2   -1    0    0  501    0  0.00000000000E+00 -0.00000000000E+00 -0.15874004053E+03  0.15874004053E+03  0.00000000000E+00 0. -1.
         23    2    1    2    0    0  0.79104125726E+02  0.34880673049E+02  0.13668126149E+03  0.20445851087E+03  0.12508953339E+03 0.  0.
          5    1    3    3  502    0 -0.53069032747E+01 -0.29811073706E+02 -0.82053685847E+00  0.30577917172E+02  0.41800000000E+01 0.  1.
         -5    1    3    3    0  502  0.84411029001E+02  0.64691746754E+02  0.13750179835E+03  0.17388059370E+03  0.41800000000E+01 0.  1.
        -11    1    1    2    0    0 -0.70423435318E+02  0.14624216346E+01 -0.96115603016E+02  0.11916294752E+03  0.00000000000E+00 0. -1.
         11    1    1    2    0    0 -0.86806904078E+01 -0.36343094683E+02  0.30667856888E+01  0.37491066824E+02  0.00000000000E+00 0.  1.
</event>
<event>
 7    1  0.5109948E-006  0.1668455E+03  0.7561462E-02  0.1181178E+00
          2   -1    0    0  501    0  0.00000000000E+00  0.00000000000E+00  0.22755716824E+03  0.22755716824E+03  0.00000000000E+00 0. -1.
         -2   -1    0    0    0  501 -0.00000000000E+00 -0.00000000000E+00 -0.15278590116E+03  0.15278590116E+03  0.00000000000E+00 0.  1.
         23    2    1    2    0    0  0.83993647330E+02  0.12566268308E+03  0.57466640494E+02  0.20444012243E+03  0.12508919290E+03 0.  0.
          5    1    3    3  502    0  0.11058909806E+02  0.10618778216E+03  0.70098295229E+02  0.12778649365E+03  0.41800000000E+01 0. -1.
         -5    1    3    3    0  502  0.72934737524E+02  0.19474900918E+02 -0.12631654735E+02  0.76653628778E+02  0.41800000000E+01 0. -1.
        -11    1    1    2    0    0 -0.41855142143E+02 -0.57870811083E+02 -0.35939524876E+02  0.79953318553E+02  0.00000000000E+00 0.  1.
         11    1    1    2    0    0 -0.42138505187E+02 -0.67791871996E+02  0.53244151464E+02  0.95949628416E+02  0.00000000000E+00 0. -1.
</event>
<event>
 7    1  0.5109948E-006  0.1393563E+03  0.7561462E-02  0.1214198E+00
          2   -1    0    0  501    0  0.00000000000E+00  0.00000000000E+00  0.50041199327E+03  0.50041199327E+03  0.00000000000E+00 0. -1.
         -2   -1    0    0    0  501 -0.00000000000E+00 -0.00000000000E+00 -0.49502622749E+02  0.49502622749E+02  0.00000000000E+00 0.  1.
         23    2    1    2    0    0  0.10549348850E+03 -0.78504383577E+01  0.17984065454E+03  0.24326987401E+03  0.12508822916E+03 0.  0.
          5    1    3    3  502    0 -0.18997655681E+02 -0.19407167435E+02  0.75587783743E+02  0.80427200128E+02  0.41800000000E+01 0. -1.
         -5    1    3    3    0  502  0.12449114418E+03  0.11556729077E+02  0.10425287080E+03  0.16284267388E+03  0.41800000000E+01 0. -1.
        -11    1    1    2    0    0 -0.69341644451E+02  0.37994203729E+02  0.23317696117E+03  0.24621803019E+03  0.00000000000E+00 0. -1.
         11    1    1    2    0    0 -0.36151844046E+02 -0.30143765371E+02  0.37891754810E+02  0.60426711819E+02  0.00000000000E+00 0.  1.
</event>
<event>
 7    1  0.5109948E-006  0.1015230E+03  0.7561462E-02  0.1277126E+00
          1   -1    0    0  501    0  0.00000000000E+00  0.00000000000E+00  0.51875219957E+02  0.51875219957E+02  0.00000000000E+00 0. -1.
         -1   -1    0    0    0  501 -0.00000000000E+00 -0.00000000000E+00 -0.33702928863E+03  0.33702928863E+03  0.00000000000E+00 0.  1.
         23    2    1    2    0    0  0.57620288051E+02  0.21090192980E+02 -0.22317881410E+03  0.26308438153E+03  0.12505884578E+03 0.  0.
          5    1    3    3  502    0  0.43680626414E+02  0.47375735925E+02 -0.36851608713E+02  0.74350325776E+02  0.41800000000E+01 0.  1.
         -5    1    3    3    0  502  0.13939661637E+02 -0.26285542945E+02 -0.18632720539E+03  0.18873405576E+03  0.41800000000E+01 0.  1.
        -11    1    1    2    0    0  0.24100237088E+02 -0.30028935443E+00 -0.67774382752E+01  0.25036878219E+02  0.00000000000E+00 0. -1.
         11    1    1    2    0    0 -0.81720525139E+02 -0.20789903625E+02 -0.55197816298E+02  0.10078324884E+03  0.00000000000E+00 0.  1.
</event>
<event>
 7    1  0.5109948E-006  0.9698602E+02  0.7561462E-02  0.1286765E+00
         -1   -1    0    0    0  501 -0.00000000000E+00  0.00000000000E+00  0.77265660835E+02  0.77265660835E+02  0.00000000000E+00 0.  1.
          1   -1    0    0  501    0  0.00000000000E+00 -0.00000000000E+00 -0.24278088251E+03  0.24278088251E+03  0.00000000000E+00 0. -1.
         23    2    1    2    0    0 -0.30536189938E+02  0.56307938568E+02 -0.29378275427E+02  0.14357783508E+03  0.12509384005E+03 0.  0.
          5    1    3    3  502    0 -0.36636790524E+02  0.47445826901E+01  0.41434559162E+02  0.55669206728E+02  0.41800000000E+01 0. -1.
         -5    1    3    3    0  502  0.61006005863E+01  0.51563355878E+02 -0.70812834589E+02  0.87908628356E+02  0.41800000000E+01 0. -1.
        -11    1    1    2    0    0  0.21561980745E+02 -0.78159966521E+02 -0.12793225630E+03  0.15146141945E+03  0.00000000000E+00 0.  1.
         11    1    1    2    0    0  0.89742091929E+01  0.21852027953E+02 -0.82046899418E+01  0.25007288804E+02  0.00000000000E+00 0. -1.
</event>
<event>
 7    1  0.5109948E-006  0.1313448E+03  0.7561462E-02  0.1225474E+00
          1   -1    0    0  501    0  0.00000000000E+00  0.00000000000E+00  0.31921994981E+03  0.31921994981E+03  0.00000000000E+00 0. -1.
         -1   -1    0    0    0  501 -0.00000000000E+00 -0.00000000000E+00 -0.87052620307E+02  0.87052620307E+02  0.00000000000E+00 0.  1.
         23    2    1    2    0    0 -0.23787481617E+02 -0.11856948208E+03  0.78043541013E+02  0.19069068073E+03  0.12509026765E+03 0.  0.
          5    1    3    3  502    0 -0.46283910696E+02 -0.81505087233E+02 -0.80884502303E+01  0.94170988426E+02  0.41800000000E+01 0. -1.
         -5    1    3    3    0  502  0.22496429079E+02 -0.37064394847E+02  0.86131991243E+02  0.96519692303E+02  0.41800000000E+01 0. -1.
        -11    1    1    2    0    0 -0.78236804085E+01  0.13683652917E+02  0.84107965128E+02  0.85572204192E+02  0.00000000000E+00 0. -1.
         11    1    1    2    0    0  0.31611162026E+02  0.10488582916E+03  0.70015823363E+02  0.13000968520E+03  0.00000000000E+00 0.  1.
</event>
<event>
 7    1  0.5109948E-006  0.1086072E+03  0.7561462E-02  0.1263171E+00
          2   -1    0    0  501    0  0.00000000000E+00  0.00000000000E+00  0.69935537954E+03  0.69935537954E+03  0.00000000000E+00 0. -1.
         -2   -1    0    0    0  501 -0.00000000000E+00 -0.00000000000E+00 -0.18942953674E+02  0.18942953674E+02  0.00000000000E+00 0.  1.
         23    2    1    2    0    0  0.40343013034E+02 -0.22008754265E+01  0.35249243695E+03  0.37620635704E+03  0.12509157613E+03 0.  0.
          5    1    3    3  502    0  0.13609441134E+02 -0.58403172250E+02  0.10515523699E+03  0.12112490942E+03  0.41800000000E+01 0.  1.
         -5    1    3    3    0  502  0.26733571901E+02  0.56202296823E+02  0.24733719996E+03  0.25508144762E+03  0.41800000000E+01 0.  1.
        -11    1    1    2    0    0 -0.62514928010E+02  0.20695469059E+02  0.26157256852E+03  0.26973436427E+03  0.00000000000E+00 0.  1.
         11    1    1    2    0    0  0.22171914976E+02 -0.18494593633E+02  0.66347420401E+02  0.72357611909E+02  0.00000000000E+00 0. -1.
</event>
<event>
 7    1  0.5109948E-006  0.1057162E+03  0.7561462E-02  0.1268715E+00
         -2   -1    0    0    0  501 -0.00000000000E+00  0.00000000000E+00  0.13804382725E+03  0.13804382725E+03  0.00000000000E+00 0. -1.
          2   -1    0    0  501    0  0.00000000000E+00 -0.00000000000E+00 -0.10743088865E+03  0.10743088865E+03  0.00000000000E+00 0.  1.
         23    2    1    2    0    0  0.28701847798E+02  0.88864204972E+00  0.67702123754E+02  0.14511032570E+03  0.12509533689E+03 0.  0.
          5    1    3    3  502    0 -0.10710306416E+02  0.56651178150E+02  0.44219907537E+02  0.72780074690E+02  0.41800000000E+01 0.  1.
         -5    1    3    3    0  502  0.39412154214E+02 -0.55762536100E+02  0.23482216218E+02  0.72330251006E+02  0.41800000000E+01 0.  1.
        -11    1    1    2    0    0 -0.56355653579E+02  0.61170710319E+01 -0.42222076654E+01  0.56843691698E+02  0.00000000000E+00 0. -1.
         11    1    1    2    0    0  0.27653805781E+02 -0.70057130817E+01 -0.32866977487E+02  0.43520698513E+02  0.00000000000E+00 0.  1.
</event>
<event>
 7    1  0.5109948E-006  0.1210158E+03  0.7561462E-02  0.1241431E+00
          1   -1    0    0  501    0  0.00000000000E+00  0.00000000000E+00  0.20518437577E+03  0.20518437577E+03  0.00000000000E+00 0. -1.
         -1   -1    0    0    0  501 -0.00000000000E+00 -0.00000000000E+00 -0.12828125413E+03  0.12828125413E+03  0.00000000000E+00 0.  1.
         23    2    1    2    0    0 -0.90852517045E+01 -0.95838288260E+02 -0.31766742635E+02  0.16101272655E+03  0.12509377633E+03 0.  0.
          5    1    3    3  502    0 -0.55574827217E+02 -0.54625242660E+02 -0.53994551813E+02  0.94896588882E+02  0.41800000000E+01 0.  1.
         -5    1    3    3    0  502  0.46489575513E+02 -0.41213045600E+02  0.22227809178E+02  0.66116137666E+02  0.41800000000E+01 0.  1.
        -11    1    1    2    0    0 -0.12366502793E+02  0.28916019046E+02  0.96030316100E+02  0.10104893943E+03  0.00000000000E+00 0. -1.
         11    1    1    2    0    0  0.21451754497E+02  0.66922269214E+02  0.12639548175E+02  0.71403963936E+02  0.00000000000E+00 0.  1.
</event>
<event>
 7    1  0.5109948E-006  0.1241155E+03  0.7561462E-02  0.1236458E+00
          2   -1    0    0  501    0  0.00000000000E+00  0.00000000000E+00  0.38830313949E+03  0.38830313949E+03  0.00000000000E+00 0. -1.
         -2   -1    0    0    0  501 -0.00000000000E+00 -0.00000000000E+00 -0.68351064905E+02  0.68351064905E+02  0.00000000000E+00 0.  1.
         23    2    1    2    0    0 -0.80823549318E+02  0.65469233936E+02  0.83593061252E+02  0.18290603489E+03  0.12509256970E+03 0.  0.
          5    1    3    3  502    0 -0.45999611556E+02  0.14439963599E+02 -0.27544093096E+02  0.55683267474E+02  0.41800000000E+01 0. -1.
         -5    1    3    3    0  502 -0.34823937762E+02  0.51029270337E+02  0.11113715435E+03  0.12722276742E+03  0.41800000000E+01 0. -1.
        -11    1    1    2    0    0  0.20474164129E+02  0.23019790091E+02  0.47045922782E+02  0.56235406845E+02  0.00000000000E+00 0. -1.
         11    1    1    2    0    0  0.60349385189E+02 -0.88489024028E+02  0.18931309055E+03  0.21751276266E+03  0.00000000000E+00 0.  1.
</event>
<event>
 7    1  0.5109948E-006  0.1512736E+03  0.7561462E-02  0.1198917E+00
          2   -1    0    0  501    0  0.00000000000E+00  0.00000000000E+00  0.70443821665E+02  0.70443821665E+02  0.00000000000E+00 0.  1.
         -2   -1    0    0    0  501 -0.00000000000E+00 -0.00000000000E+00 -0.57119331099E+03  0.57119331099E+03  0.00000000000E+00 0. -1.
         23    2    1    2    0    0  0.42120311610E+02  0.11746197985E+03 -0.44453160460E+03  0.47835833276E+03  0.12508760799E+03 0.  0.
          5    1    3    3  502    0 -0.22399389570E+02  0.86026839502E+02 -0.34025904339E+03  0.35170447648E+03  0.41800000000E+01 0. -1.
         -5    1    3    3    0  502  0.64519701180E+02  0.31435140350E+02 -0.10427256121E+03  0.12665385628E+03  0.41800000000E+01 0. -1.
        -11    1    1    2    0    0 -0.56458091453E+02 -0.59785910374E+02 -0.11228056565E+01  0.82238262764E+02  0.00000000000E+00 0.  1.
         11    1    1    2    0    0  0.14337779843E+02 -0.57676069478E+02 -0.55095079073E+02  0.81040537136E+02  0.00000000000E+00 0. -1.
</event>
<event>
 7    1  0.5109948E-006  0.9531429E+02  0.7561462E-02  0.1290470E+00
          4   -1    0    0  501    0  0.00000000000E+00  0.00000000000E+00  0.42308649220E+02  0.42308649220E+02  0.00000000000E+00 0. -1.
         -4   -1    0    0    0  501 -0.00000000000E+00 -0.00000000000E+00 -0.30680850505E+03  0.30680850505E+03  0.00000000000E+00 0.  1.
         23    2    1    2    0    0  0.21686765805E+02  0.81715140468E+01 -0.19174224864E+03  0.23010727629E+03  0.12508868548E+03 0.  0.
          5    1    3    3  502    0  0.54513148591E+02  0.24816818193E+02 -0.18222541754E+03  0.19186227621E+03  0.41800000000E+01 0. -1.
         -5    1    3    3    0  502 -0.32826382785E+02 -0.16645304146E+02 -0.95168311001E+01  0.38245000080E+02  0.41800000000E+01 0. -1.
        -11    1    1    2    0    0 -0.30376019032E+02 -0.45782466817E+02 -0.35858498312E+02  0.65609212015E+02  0.00000000000E+00 0.  1.
         11    1    1    2    0    0  0.86892532268E+01  0.37610952770E+02 -0.36899108883E+02  0.53400665972E+02  0.00000000000E+00 0. -1.
</event>
<event>
 6    1  0.5109948E-006  0.1324752E+03  0.7561462E-02  0.1223828E+00
         -1   -1    0    0    0  501 -0.00000000000E+00  0.00000000000E+00  0.13342616772E+03  0.13342616772E+03  0.00000000000E+00 0.  1.
          1   -1    0    0  501    0  0.00000000000E+00 -0.00000000000E+00 -0.42573183955E+03  0.42573183955E+03  0.00000000000E+00 0. -1.
          5    1    1    2  502    0  0.41021499171E+02 -0.38757355032E+02 -0.21637731601E+03  0.22365489319E+03  0.41800000000E+01 0. -1.
         -5    1    1    2    0  502 -0.41178006233E+02  0.11793145710E+03  0.72166918063E+02  0.14432253197E+03  0.41800000000E+01 0.  1.
        -11    1    1    2    0    0 -0.11894626490E+02 -0.56084141731E+02 -0.20394937114E+02  0.60851183661E+02  0.00000000000E+00 0.  1.
         11    1    1    2    0    0  0.12051133552E+02 -0.23089960337E+02 -0.12770033677E+03  0.13032939845E+03  0.00000000000E+00 0. -1.
</event>
<event>
 7    1  0.5109948E-006  0.1433594E+03  0.7561462E-02  0.1208879E+00
         -1   -1    0    0    0  501 -0.00000000000E+00  0.00000000000E+00  0.13054224410E+03  0.13054224410E+03  0.00000000000E+00 0.  1.
          1   -1    0    0  501    0  0.00000000000E+00 -0.00000000000E+00 -0.17590169853E+03  0.17590169853E+03  0.00000000000E+00 0. -1.
         23    2    1    2    0    0  0.32525452451E+02 -0.97070549276E+02 -0.47529583943E+02  0.16848375226E+03  0.12508843604E+03 0.  0.
          5    1    3    3  502    0  0.27965798236E+02  0.18220980987E+02 -0.40731703504E+02  0.52826452554E+02  0.41800000000E+01 0.  1.
         -5    1    3    3    0  502  0.45596542145E+01 -0.11529153026E+03 -0.67978804385E+01  0.11565729971E+03  0.41800000000E+01 0.  1.
        -11    1    1    2    0    0 -0.59481772582E+02  0.92950423173E+02  0.54879207970E+01  0.11048972673E+03  0.00000000000E+00 0.  1.
         11    1    1    2    0    0  0.26956320132E+02  0.41201261034E+01 -0.33177912855E+01  0.27470463650E+02  0.00000000000E+00 0. -1.
</event>
<event>
 7    1  0.5109948E-006  0.9536777E+02  0.7561462E-02  0.1290350E+00
         -3   -1    0    0    0  501 -0.00000000000E+00  0.00000000000E+00  0.37378616456E+03  0.37378616456E+03  0.00000000000E+00 0.  1.
          3   -1    0    0  501    0  0.00000000000E+00 -0.00000000000E+00 -0.31719764106E+02  0.31719764106E+02  0.00000000000E+00 0. -1.
         23    2    1    2    0    0  0.86639459001E+01  0.26135791927E+01  0.19194415207E+03  0.22928551883E+03  0.12508955543E+03 0.  0.
          5    1    3    3  502    0  0.26130273592E+02 -0.48073286921E+02  0.15396385828E+03  0.16345083105E+03  0.41800000000E+01 0.  1.
         -5    1    3    3    0  502 -0.17466327692E+02  0.50686866113E+02  0.37980293783E+02  0.65834687782E+02  0.41800000000E+01 0.  1.
        -11    1    1    2    0    0 -0.45327910803E+02 -0.28994441191E+01  0.41308826114E+02  0.61395809212E+02  0.00000000000E+00 0. -1.
         11    1    1    2    0    0  0.36663964902E+02  0.28586492635E+00  0.10881342227E+03  0.11482460062E+03  0.00000000000E+00 0.  1.
</event>
<event>
 7    1  0.5109948E-006  0.1150221E+03  0.7561462E-02  0.1251543E+00
         -2   -1    0    0    0  501 -0.00000000000E+00  0.00000000000E+00  0.13000873169E+03  0.13000873169E+03  0.00000000000E+00 0.  1.
          2   -1    0    0  501    0  0.00000000000E+00 -0.00000000000E+00 -0.12296952705E+03  0.12296952705E+03  0.00000000000E+00 0. -1.
         23    2    1    2    0    0  0.43008166913E+02 -0.31293652529E+02  0.45068066681E+02  0.14320729353E+03  0.12509277827E+03 0.  0.
          5    1    3    3  502    0 -0.43713725350E+02 -0.11049825439E+02  0.25373579563E+02  0.51906448212E+02  0.41800000000E+01 0. -1.
         -5    1    3    3    0  502  0.86721892263E+02 -0.20243827091E+02  0.19694487119E+02  0.91300845318E+02  0.41800000000E+01 0. -1.
        -11    1    1    2    0    0 -0.64396519183E+02  0.35906698544E+02 -0.10296041185E+02  0.74446028418E+02  0.00000000000E+00 0.  1.
         11    1    1    2    0    0  0.21388352270E+02 -0.46130460148E+01 -0.27732820855E+02  0.35324936786E+02  0.00000000000E+00 0. -1.
</event>
<event>
 7    1  0.5109948E-006  0.1397274E+03  0.7561462E-02  0.1213696E+00
          1   -1    0    0  501    0  0.00000000000E+00  0.00000000000E+00  0.12847305387E+03  0.12847305387E+03  0.00000000000E+00 0. -1.
         -1   -1    0    0    0  501 -0.00000000000E+00 -0.00000000000E+00 -0.26497640746E+03  0.26497640746E+03  0.00000000000E+00 0.  1.
         23    2    1    2    0    0  0.90919277797E+02  0.25152789010E+02 -0.20011139118E+03  0.25311312254E+03  0.12297441217E+03 0.  0.
          5    1    3    3  502    0  0.35075758674E+02 -0.49978284587E+02 -0.83127737841E+02  0.10322708451E+03  0.41800000000E+01 0. -1.
         -5    1    3    3    0  502  0.55843519123E+02  0.75131073597E+02 -0.11698365334E+03  0.14988603803E+03  0.41800000000E+01 0.  1.
        -11    1    1    2    0    0 -0.67604236234E+02 -0.54663206922E+02  0.50303052997E+02  0.10044299920E+03  0.00000000000E+00 0. -1.
         11    1    1    2    0    0 -0.23315041563E+02  0.29510417912E+02  0.13304984604E+02  0.39893339591E+02  0.00000000000E+00 0.  1.
</event>
<event>
 7    1  0.5109948E-006  0.1150460E+03  0.7561462E-02  0.1251501E+00
          1   -1    0    0  501    0  0.00000000000E+00  0.00000000000E+00  0.12758854359E+03  0.12758854359E+03  0.00000000000E+00 0.  1.
         -1   -1    0    0    0  501 -0.00000000000E+00 -0.00000000000E+00 -0.20294284939E+03  0.20294284939E+03  0.00000000000E+00 0. -1.
         23    2    1    2    0    0 -0.80826402179E+02 -0.71412230889E+02 -0.91504323269E+02  0.18881446729E+03  0.12508096526E+03 0.  0.
          5    1    3    3  502    0 -0.34473111914E+02 -0.45761902736E+01 -0.10092232447E+03  0.10682754766E+03  0.41800000000E+01 0. -1.
         -5    1    3    3    0  502 -0.46353290265E+02 -0.66836040616E+02  0.94180011997E+01  0.81986919629E+02  0.41800000000E+01 0. -1.
        -11    1    1    2    0    0  0.64419468478E+02  0.72736155342E+02  0.46098591724E+02  0.10754299778E+03  0.00000000000E+00 0.  1.
         11    1    1    2    0    0  0.16406933701E+02 -0.13239244521E+01 -0.29948574251E+02  0.34173927914E+02  0.00000000000E+00 0. -1.
</event>
<event>
 7    1  0.5109948E-006  0.2258783E+03  0.7561462E-02  0.1129575E+00
          1   -1    0    0  501    0  0.00000000000E+00  0.00000000000E+00  0.49060145146E+03  0.49060145146E+03  0.00000000000E+00 0. -1.
         -1   -1    0    0    0  501 -0.00000000000E+00 -0.00000000000E+00 -0.13309957807E+03  0.13309957807E+03  0.00000000000E+00 0.  1.
         23    2    1    2    0    0 -0.85294809407E+02 -0.18992070483E+03  0.62051237306E+02  0.25068884658E+03  0.12509781420E+03 0.  0.
          5    1    3    3  502    0 -0.50084120784E+02 -0.19078897040E+03  0.77537639091E+02  0.21198681151E+03  0.41800000000E+01 0.  1.
         -5    1    3    3    0  502 -0.35210688623E+02  0.86826557040E+00 -0.15486401785E+02  0.38702035071E+02  0.41800000000E+01 0.  1.
        -11    1    1    2    0    0 -0.11736439518E+02  0.25550090983E+02  0.10443808230E+02  0.29993737549E+02  0.00000000000E+00 0.  1.
         11    1    1    2    0    0  0.97031248925E+02  0.16437061384E+03  0.28500682785E+03  0.34301844540E+03  0.00000000000E+00 0. -1.
</event>
<event>
 7    1  0.6811189E-006  0.2951909E+03  0.7561462E-02  0.1087670E+00
          1   -1    0    0  501    0  0.00000000000E+00  0.00000000000E+00  0.44477771529E+03  0.44477771529E+03  0.00000000000E+00 0. -1.
         -1   -1    0    0    0  501 -0.00000000000E+00 -0.00000000000E+00 -0.27558759200E+03  0.27558759200E+03  0.00000000000E+00 0.  1.
         23    2    1    2    0    0  0.20480433751E+03 -0.19613752681E+03 -0.93152367630E+02  0.32363475350E+03  0.12508934402E+03 0.  0.
          5    1    3    3  502    0  0.20215536285E+03 -0.13451200708E+03 -0.49219368300E+02  0.24779081782E+03  0.41800000000E+01 0.  1.
         -5    1    3    3    0  502  0.26489746608E+01 -0.61625519734E+02 -0.43932999330E+02  0.75843935680E+02  0.41800000000E+01 0.  1.
        -11    1    1    2    0    0 -0.91089802927E+02  0.63738533977E+02  0.50094291620E+02  0.12194011220E+03  0.00000000000E+00 0.  1.
         11    1    1    2    0    0 -0.11371453459E+03  0.13239899284E+03  0.21224819930E+03  0.27479044159E+03  0.00000000000E+00 0. -1.
</event>
