<event>
 7    1  0.3179140E-009  0.2910753E+03  0.7561462E-02  0.1089789E+00
         -2   -1    0    0    0  501 -0.00000000000E+00  0.00000000000E+00  0.32839533778E+03  0.32839533778E+03  0.00000000000E+00 0.  1.
          2   -1    0    0  501    0  0.00000000000E+00 -0.00000000000E+00 -0.26822555458E+03  0.26822555458E+03  0.00000000000E+00 0. -1.
         25    2    1    2    0    0  0.64624073609E+02 -0.26561126581E+03 -0.71436995293E+01  0.30070490742E+03  0.12508714358E+03 0.  0.
          5    1    3    3  502    0  0.49262917334E+02 -0.27603892896E+03 -0.15530332039E+00  0.28043149225E+03  0.41800000000E+01 0.  1.
         -5    1    3    3    0  502  0.15361156275E+02  0.10427663155E+02 -0.69883962089E+01  0.20273415168E+02  0.41800000000E+01 0.  1.
        -11    1    1    2    0    0  0.76996551696E+01  0.11860113199E+03  0.16187300277E+00  0.11885091250E+03  0.00000000000E+00 0. -1.
         11    1    1    2    0    0 -0.72323728779E+02  0.14701013382E+03  0.67151609730E+02  0.17706507244E+03  0.00000000000E+00 0.  1.
</event>
<event>
 7    1  0.2873461E-009  0.1059389E+03  0.7561462E-02  0.1268281E+00
         -1   -1    0    0    0  501 -0.00000000000E+00  0.00000000000E+00  0.58479328875E+02  0.58479328875E+02  0.00000000000E+00 0.  1.
          1   -1    0    0  501    0  0.00000000000E+00 -0.00000000000E+00 -0.24642114786E+03  0.24642114786E+03  0.00000000000E+00 0. -1.
         25    2    1    2    0    0  0.25080061676E+02 -0.14462972225E+02 -0.16183538283E+03  0.20658209308E+03  0.12508910019E+03 0.  0.
          5    1    3    3  502    0  0.68991532143E+02  0.13436463099E+02 -0.12224303230E+03  0.14107161796E+03  0.41800000000E+01 0. -1.
         -5    1    3    3    0  502 -0.43911470467E+02 -0.27899435324E+02 -0.39592350536E+02  0.65510475124E+02  0.41800000000E+01 0. -1.
        -11    1    1    2    0    0 -0.56494538399E+02  0.65156651281E+01 -0.32191050102E+02  0.65347918618E+02  0.00000000000E+00 0.  1.
         11    1    1    2    0    0  0.31414476723E+02  0.79473070970E+01  0.60846139483E+01  0.32970465038E+02  0.00000000000E+00 0. -1.
</event>
<event>
 7    1  0.2873461E-009  0.2070287E+03  0.7561462E-02  0.1143941E+00
         -2   -1    0    0    0  501 -0.00000000000E+00  0.00000000000E+00  0.30117159615E+02  0.30117159615E+02  0.00000000000E+00 0. -1.
          2   -1    0    0  501    0  0.00000000000E+00 -0.00000000000E+00 -0.16318905568E+04  0.16318905568E+04  0.00000000000E+00 0.  1.
         25    2    1    2    0    0 -0.17753281074E+03  0.24789125680E+02 -0.11004357348E+04  0.11219347822E+04  0.12508576822E+03 0.  0.
          5    1    3    3  502    0 -0.34233556418E+02 -0.43286163460E+02 -0.19526940081E+03  0.20296117763E+03  0.41800000000E+01 0.  1.
         -5    1    3    3    0  502 -0.14329925432E+03  0.68075289140E+02 -0.90516633401E+03  0.91897360458E+03  0.41800000000E+01 0.  1.
        -11    1    1    2    0    0  0.94687750321E+02 -0.57682105312E+02 -0.30216229035E+03  0.32186184155E+03  0.00000000000E+00 0.  1.
         11    1    1    2    0    0  0.82845060416E+02  0.32892979632E+02 -0.19917537201E+03  0.21821109266E+03  0.00000000000E+00 0. -1.
</event>
<event>
 7    1  0.2873461E-009  0.1985350E+03  0.7561462E-02  0.1150981E+00
         -1   -1    0    0    0  501 -0.00000000000E+00  0.00000000000E+00  0.15911184900E+03  0.15911184900E+03  0.00000000000E+00 0.  1.
          1   -1    0    0  501    0  0.00000000000E+00 -0.00000000000E+00 -0.30875460063E+03  0.30875460063E+03  0.00000000000E+00 0. -1.
         25    2    1    2    0    0  0.16753664838E+03  0.60186203081E+02 -0.15620310915E+03  0.26783831589E+03  0.12508814715E+03 0.  0.
          5    1    3    3  502    0  0.45896498036E+02  0.81645132941E+02 -0.61314684162E+02  0.11202401153E+03  0.41800000000E+01 0. -1.
         -5    1    3    3    0  502  0.12164015034E+03 -0.21458929860E+02 -0.94888424991E+02  0.15581430436E+03  0.41800000000E+01 0. -1.
        -11    1    1    2    0    0 -0.15640756299E+03 -0.48893808341E+02 -0.23980592996E+02  0.16561702538E+03  0.00000000000E+00 0. -1.
         11    1    1    2    0    0 -0.11129085390E+02 -0.11292394740E+02  0.30540950516E+02  0.34411108366E+02  0.00000000000E+00 0.  1.
</event>
<event>
 7    1  0.2873461E-009  0.1336781E+03  0.7561462E-02  0.1222098E+00
         -3   -1    0    0    0  501 -0.00000000000E+00  0.00000000000E+00  0.42832866199E+03  0.42832866199E+03  0.00000000000E+00 0.  1.
          3   -1    0    0  501    0  0.00000000000E+00 -0.00000000000E+00 -0.52411903868E+02  0.52411903868E+02  0.00000000000E+00 0. -1.
         25    2    1    2    0    0  0.30779093092E+01 -0.10042568697E+03  0.24206265378E+03  0.29040771601E+03  0.12509005171E+03 0.  0.
          5    1    3    3  502    0  0.40852424148E+02 -0.95681874661E+01  0.18368237077E+02  0.45992774470E+02  0.41800000000E+01 0. -1.
         -5    1    3    3    0  502 -0.37774514839E+02 -0.90857499499E+02  0.22369441670E+03  0.24441494154E+03  0.41800000000E+01 0. -1.
        -11    1    1    2    0    0  0.14617907517E+02  0.10687512882E+03  0.13331571314E+03  0.17149068706E+03  0.00000000000E+00 0.  1.
         11    1    1    2    0    0 -0.17695816826E+02 -0.64494418513E+01  0.53839120947E+00  0.18842162786E+02  0.00000000000E+00 0. -1.
</event>
<event>
 7    1  0.2873461E-009  0.1067563E+03  0.7561462E-02  0.1266697E+00
          1   -1    0    0  501    0  0.00000000000E+00  0.00000000000E+00  0.20228493794E+03  0.20228493794E+03  0.00000000000E+00 0. -1.
         -1   -1    0    0    0  501 -0.00000000000E+00 -0.00000000000E+00 -0.83681378165E+02  0.83681378165E+02  0.00000000000E+00 0.  1.
         25    2    1    2    0    0 -0.97420995566E+01  0.70482871057E+02  0.48377309580E+02  0.15182414470E+03  0.12508982059E+03 0.  0.
          5    1    3    3  502    0 -0.31694016367E+02  0.10002227686E+03  0.24730343127E+02  0.10787969602E+03  0.41800000000E+01 0.  1.
         -5    1    3    3    0  502  0.21951916811E+02 -0.29539405806E+02  0.23646966454E+02  0.43944448677E+02  0.41800000000E+01 0.  1.
        -11    1    1    2    0    0  0.84713314405E+01 -0.36932926106E+02 -0.16361236273E+02  0.41273412017E+02  0.00000000000E+00 0.  1.
         11    1    1    2    0    0  0.12707681161E+01 -0.33549944951E+02  0.86587486465E+02  0.92868759387E+02  0.00000000000E+00 0. -1.
</event>
<event>
 7    1  0.2873461E-009  0.1384918E+03  0.7561462E-02  0.1215373E+00
          2   -1    0    0  501    0  0.00000000000E+00  0.00000000000E+00  0.35439341029E+03  0.35439341029E+03  0.00000000000E+00 0. -1.
         -2   -1    0    0    0  501 -0.00000000000E+00 -0.00000000000E+00 -0.65793547867E+02  0.65793547867E+02  0.00000000000E+00 0.  1.
         25    2    1    2    0    0 -0.96033397096E+02 -0.12588506556E+02  0.92539351362E+02  0.18328570273E+03  0.12509689612E+03 0.  0.
          5    1    3    3  502    0 -0.12005901823E+03 -0.11852838773E+01  0.44304151154E+02  0.12804648752E+03  0.41800000000E+01 0.  1.
         -5    1    3    3    0  502  0.24025621132E+02 -0.11403222679E+02  0.48235200208E+02  0.55239215213E+02  0.41800000000E+01 0.  1.
        -11    1    1    2    0    0  0.10774618874E+03  0.27270277499E+02  0.18270573407E+03  0.21385577963E+03  0.00000000000E+00 0.  1.
         11    1    1    2    0    0 -0.11712791641E+02 -0.14681770942E+02  0.13354776998E+02  0.23045475797E+02  0.00000000000E+00 0. -1.
</event>
<event>
 7    1  0.2873461E-009  0.1007057E+03  0.7561462E-02  0.1278819E+00
          2   -1    0    0  501    0  0.00000000000E+00  0.00000000000E+00  0.27022123063E+03  0.27022123063E+03  0.00000000000E+00 0. -1.
         -2   -1    0    0    0  501 -0.00000000000E+00 -0.00000000000E+00 -0.42881700940E+02  0.42881700940E+02  0.00000000000E+00 0.  1.
         25    2    1    2    0    0  0.96939825182E+01 -0.71479617458E+01  0.12730080453E+03  0.17888193786E+03  0.12509271043E+03 0.  0.
          5    1    3    3  502    0  0.19566837896E+02 -0.60887028843E+02  0.39195404575E+02  0.75125518743E+02  0.41800000000E+01 0.  1.
         -5    1    3    3    0  502 -0.98728553781E+01  0.53739067097E+02  0.88105399958E+02  0.10375641912E+03  0.41800000000E+01 0.  1.
        -11    1    1    2    0    0 -0.27893521115E+02 -0.30117976386E+02  0.75753740309E+02  0.86161303336E+02  0.00000000000E+00 0. -1.
         11    1    1    2    0    0  0.18199538597E+02  0.37265938131E+02  0.24284984847E+02  0.48059690375E+02  0.00000000000E+00 0.  1.
</event>
<event>
 7    1  0.2873461E-009  0.1021733E+03  0.7561462E-02  0.1275791E+00
         -1   -1    0    0    0  501 -0.00000000000E+00  0.00000000000E+00  0.27401305418E+03  0.27401305418E+03  0.00000000000E+00 0. -1.
          1   -1    0    0  501    0  0.00000000000E+00 -0.00000000000E+00 -0.64046893920E+02  0.64046893920E+02  0.00000000000E+00 0.  1.
         25    2    1    2    0    0 -0.51548997398E+02  0.37163054074E+02  0.17551498303E+03  0.22470975111E+03  0.12510224321E+03 0.  0.
          5    1    3    3  502    0  0.19345743898E+02 -0.24536448261E+02  0.97577710011E+02  0.10254353705E+03  0.41800000000E+01 0.  1.
         -5    1    3    3    0  502 -0.70894741297E+02  0.61699502335E+02  0.77937273019E+02  0.12216621406E+03  0.41800000000E+01 0.  1.
        -11    1    1    2    0    0  0.38207880030E+02  0.11002869024E+01  0.55731436844E+02  0.67579921429E+02  0.00000000000E+00 0. -1.
         11    1    1    2    0    0  0.13341117368E+02 -0.38263340976E+02 -0.21280259615E+02  0.45770275557E+02  0.00000000000E+00 0.  1.
</event>
<event>
 7    1  0.2873461E-009  0.1431336E+03  0.7561462E-02  0.1209174E+00
         -1   -1    0    0    0  501 -0.00000000000E+00  0.00000000000E+00  0.25730890597E+02  0.25730890597E+02  0.00000000000E+00 0.  1.
          1   -1    0    0  501    0  0.00000000000E+00 -0.00000000000E+00 -0.79869112793E+03  0.79869112793E+03  0.00000000000E+00 0. -1.
         25    2    1    2    0    0 -0.89859686104E+02 -0.23087529310E+02 -0.40105833131E+03  0.43023640569E+03  0.12509109670E+03 0.  0.
          5    1    3    3  502    0 -0.13155652628E+02  0.48686808425E+02 -0.13196735871E+03  0.14133765484E+03  0.41800000000E+01 0.  1.
         -5    1    3    3    0  502 -0.76704033476E+02 -0.71774337736E+02 -0.26909097260E+03  0.28889875085E+03  0.41800000000E+01 0.  1.
        -11    1    1    2    0    0 -0.13484137728E+02 -0.15202758723E+02 -0.64443631106E+02  0.67571646666E+02  0.00000000000E+00 0.  1.
         11    1    1    2    0    0  0.10334382383E+03  0.38290288033E+02 -0.30745827491E+03  0.32661396617E+03  0.00000000000E+00 0. -1.
</event>
<event>
 7    1  0.2873461E-009  0.1210248E+03  0.7561462E-02  0.1241416E+00
         -1   -1    0    0    0  501 -0.00000000000E+00  0.00000000000E+00  0.52374690711E+03  0.52374690711E+03  0.00000000000E+00 0.  1.
          1   -1    0    0  501    0  0.00000000000E+00 -0.00000000000E+00 -0.31650537222E+02  0.31650537222E+02  0.00000000000E+00 0. -1.
         25    2    1    2    0    0  0.34217118037E+02  0.56498869333E+02  0.32733882653E+03  0.35659648099E+03  0.12508960587E+03 0.  0.
          5    1    3    3  502    0  0.77655450793E+02  0.13726600379E+02  0.15946666904E+03  0.17794909252E+03  0.41800000000E+01 0.  1.
         -5    1    3    3    0  502 -0.43438332756E+02  0.42772268954E+02  0.16787215749E+03  0.17864738847E+03  0.41800000000E+01 0.  1.
        -11    1    1    2    0    0 -0.22315251055E+02 -0.75955848514E+02  0.86369658560E+02  0.11716219216E+03  0.00000000000E+00 0. -1.
         11    1    1    2    0    0 -0.11901866982E+02  0.19456979181E+02  0.78387884798E+02  0.81638771179E+02  0.00000000000E+00 0.  1.
</event>
<event>
 7    1  0.2873461E-009  0.9672728E+02  0.7561462E-02  0.1287333E+00
          1   -1    0    0  501    0  0.00000000000E+00  0.00000000000E+00  0.95911447409E+02  0.95911447409E+02  0.00000000000E+00 0. -1.
         -1   -1    0    0    0  501 -0.00000000000E+00 -0.00000000000E+00 -0.18796788713E+03  0.18796788713E+03  0.00000000000E+00 0.  1.
         25    2    1    2    0    0  0.81215650765E+01 -0.85916207706E+01 -0.13324628000E+03  0.18314961391E+03  0.12509769851E+03 0.  0.
          5    1    3    3  502    0  0.51092589798E+02  0.30077109693E+02 -0.34701430884E+02  0.68824028980E+02  0.41800000000E+01 0.  1.
         -5    1    3    3    0  502 -0.42971024722E+02 -0.38668730463E+02 -0.98544849119E+02  0.11432558493E+03  0.41800000000E+01 0.  1.
        -11    1    1    2    0    0  0.28595262729E+02 -0.15125778177E+02  0.46555018933E+02  0.56690810577E+02  0.00000000000E+00 0. -1.
         11    1    1    2    0    0 -0.36716827806E+02  0.23717398948E+02 -0.53651786535E+01  0.44038910056E+02  0.00000000000E+00 0.  1.
</event>
<event>
 7    1  0.2873461E-009  0.9624438E+02  0.7561462E-02  0.1288398E+00
         -2   -1    0    0    0  501 -0.00000000000E+00  0.00000000000E+00  0.44947704722E+03  0.44947704722E+03  0.00000000000E+00 0. -1.
          2   -1    0    0  501    0  0.00000000000E+00 -0.00000000000E+00 -0.42881330335E+02  0.42881330335E+02  0.00000000000E+00 0.  1.
         25    2    1    2    0    0  0.76136590695E+02 -0.60319437679E+00  0.14815671224E+03  0.20831432413E+03  0.12508917608E+03 0.  0.
          5    1    3    3  502    0  0.68027295588E+02  0.59096345343E+00  0.88801980555E+01  0.68734216372E+02  0.41800000000E+01 0.  1.
         -5    1    3    3    0  502  0.81092951076E+01 -0.11941578302E+01  0.13927651418E+03  0.13958010776E+03  0.41800000000E+01 0.  1.
        -11    1    1    2    0    0 -0.83076125396E+02  0.27377181054E+02  0.16710537657E+03  0.18861431423E+03  0.00000000000E+00 0. -1.
         11    1    1    2    0    0  0.69395347012E+01 -0.26773986677E+02  0.91333628071E+02  0.95429739185E+02  0.00000000000E+00 0.  1.
</event>
<event>
 7    1  0.2873461E-009  0.3324982E+03  0.7561462E-02  0.1070037E+00
         -2   -1    0    0    0  501 -0.00000000000E+00  0.00000000000E+00  0.24831814798E+03  0.24831814798E+03  0.00000000000E+00 0.  1.
          2   -1    0    0  501    0  0.00000000000E+00 -0.00000000000E+00 -0.49015206109E+03  0.49015206109E+03  0.00000000000E+00 0. -1.
         25    2    1    2    0    0 -0.28988945626E+03 -0.15995861882E+03 -0.90290961644E+02  0.36527169819E+03  0.12509316192E+03 0.  0.
          5    1    3    3  502    0 -0.12540912349E+03 -0.76361693392E+02 -0.10435601925E+03  0.18018381622E+03  0.41800000000E+01 0.  1.
         -5    1    3    3    0  502 -0.16448033276E+03 -0.83596925433E+02  0.14065057604E+02  0.18508788197E+03  0.41800000000E+01 0.  1.
        -11    1    1    2    0    0  0.23994711201E+03  0.14893463245E+03 -0.15460764631E+03  0.32196221145E+03  0.00000000000E+00 0. -1.
         11    1    1    2    0    0  0.49942344246E+02  0.11023986374E+02  0.30646948348E+01  0.51236299425E+02  0.00000000000E+00 0.  1.
</event>
<event>
 7    1  0.2873461E-009  0.1075548E+03  0.7561462E-02  0.1265166E+00
          1   -1    0    0  501    0  0.00000000000E+00  0.00000000000E+00  0.19691897208E+03  0.19691897208E+03  0.00000000000E+00 0. -1.
         -1   -1    0    0    0  501 -0.00000000000E+00 -0.00000000000E+00 -0.11452943411E+03  0.11452943411E+03  0.00000000000E+00 0.  1.
         25    2    1    2    0    0  0.46644295727E+02  0.50800804787E+02  0.12474666510E+03  0.18964558019E+03  0.12508918235E+03 0.  0.
          5    1    3    3  502    0 -0.36565689295E+02 -0.11775312393E+02  0.34222573985E+02  0.51617483334E+02  0.41800000000E+01 0. -1.
         -5    1    3    3    0  502  0.83209985022E+02  0.62576117180E+02  0.90524091115E+02  0.13802809685E+03  0.41800000000E+01 0. -1.
        -11    1    1    2    0    0 -0.30880827636E+02 -0.17666012623E+02 -0.68200432355E+02  0.76922119646E+02  0.00000000000E+00 0.  1.
         11    1    1    2    0    0 -0.15763468091E+02 -0.33134792164E+02  0.25843305224E+02  0.44880706355E+02  0.00000000000E+00 0. -1.
</event>
<event>
 7    1  0.2873461E-009  0.1662359E+03  0.7561462E-02  0.1181831E+00
          1   -1    0    0  501    0  0.00000000000E+00  0.00000000000E+00  0.18711426322E+03  0.18711426322E+03  0.00000000000E+00 0. -1.
         -1   -1    0    0    0  501 -0.00000000000E+00 -0.00000000000E+00 -0.18596539261E+03  0.18596539261E+03  0.00000000000E+00 0.  1.
         25    2    1    2    0    0  0.31142953622E+02  0.14483668704E+03 -0.28868603185E+02  0.19603272522E+03  0.12509150104E+03 0.  0.
          5    1    3    3  502    0  0.11935702122E+02  0.15375672297E+03 -0.53492713012E+02  0.16328666078E+03  0.41800000000E+01 0.  1.
         -5    1    3    3    0  502  0.19207251500E+02 -0.89200359279E+01  0.24624109827E+02  0.32746064434E+02  0.41800000000E+01 0.  1.
        -11    1    1    2    0    0 -0.39843285538E+01 -0.11918666409E+03 -0.13131150354E+02  0.11997400919E+03  0.00000000000E+00 0.  1.
         11    1    1    2    0    0 -0.27158625068E+02 -0.25650022954E+02  0.43148624155E+02  0.57072921421E+02  0.00000000000E+00 0. -1.
</event>
<event>
 7    1  0.2873461E-009  0.1238515E+03  0.7561462E-02  0.1236875E+00
          1   -1    0    0  501    0  0.00000000000E+00  0.00000000000E+00  0.45679322615E+02  0.45679322615E+02  0.00000000000E+00 0. -1.
         -1   -1    0    0    0  501 -0.00000000000E+00 -0.00000000000E+00 -0.65608019321E+03  0.65608019321E+03  0.00000000000E+00 0.  1.
         25    2    1    2    0    0  0.88520541784E+02  0.20207694706E+02 -0.53799930898E+03  0.55976332688E+03  0.12508992130E+03 0.  0.
          5    1    3    3  502    0  0.10219609341E+03 -0.24129694147E+02 -0.41880028891E+03  0.43178401782E+03  0.41800000000E+01 0.  1.
         -5    1    3    3    0  502 -0.13675551627E+02  0.44337388854E+02 -0.11919902007E+03  0.12797930906E+03  0.41800000000E+01 0.  1.
        -11    1    1    2    0    0 -0.67649714312E+02 -0.28711689799E+02 -0.87952704674E+02  0.11461467287E+03  0.00000000000E+00 0.  1.
         11    1    1    2    0    0 -0.20870827471E+02  0.85039950927E+01  0.15551143064E+02  0.27381516073E+02  0.00000000000E+00 0. -1.
</event>
<event>
 7    1  0.2972683E-009  0.1271159E+03  0.7561462E-02  0.1231799E+00
          2   -1    0    0  501    0  0.00000000000E+00  0.00000000000E+00  0.81701760325E+03  0.81701760325E+03  0.00000000000E+00 0.  1.
         -2   -1    0    0    0  501 -0.00000000000E+00 -0.00000000000E+00 -0.42688199545E+02  0.42688199545E+02  0.00000000000E+00 0. -1.
         25    2    1    2    0    0  0.49640211177E+02  0.10921297717E+03  0.62023649380E+03  0.64399764607E+03  0.12509210593E+03 0.  0.
          5    1    3    3  502    0  0.31628891410E+02  0.99322226313E+02  0.22285448379E+03  0.24606276589E+03  0.41800000000E+01 0.  1.
         -5    1    3    3    0  502  0.18011319767E+02  0.98907508610E+01  0.39738201001E+03  0.39793488019E+03  0.41800000000E+01 0.  1.
        -11    1    1    2    0    0 -0.20838975071E+02 -0.58544277364E+01  0.85876927050E+02  0.88562880518E+02  0.00000000000E+00 0.  1.
         11    1    1    2    0    0 -0.28801236106E+02 -0.10335854944E+03  0.68215982860E+02  0.12714527620E+03  0.00000000000E+00 0. -1.
</event>
<event>
 7    1  0.2873461E-009  0.9229075E+02  0.7561462E-02  0.1297397E+00
         -2   -1    0    0    0  501 -0.00000000000E+00  0.00000000000E+00  0.90498760233E+02  0.90498760233E+02  0.00000000000E+00 0. -1.
          2   -1    0    0  501    0  0.00000000000E+00 -0.00000000000E+00 -0.13176782878E+03  0.13176782878E+03  0.00000000000E+00 0.  1.
         25    2    1    2    0    0 -0.29735730073E+01  0.30768276429E+02 -0.25419451295E+02  0.13133277102E+03  0.12508644719E+03 0.  0.
          5    1    3    3  502    0 -0.40028342668E+02  0.64679497411E+02 -0.31906103875E+01  0.76245380167E+02  0.41800000000E+01 0.  1.
         -5    1    3    3    0  502  0.37054769661E+02 -0.33911220982E+02 -0.22228840908E+02  0.55087390855E+02  0.41800000000E+01 0.  1.
        -11    1    1    2    0    0 -0.68820969539E+01 -0.42285012650E+02  0.23430753327E+02  0.48830172586E+02  0.00000000000E+00 0. -1.
         11    1    1    2    0    0  0.98556699612E+01  0.11516736221E+02 -0.39280370575E+02  0.42103645402E+02  0.00000000000E+00 0.  1.
</event>
<event>
 7    1  0.2873461E-009  0.1159491E+03  0.7561462E-02  0.1249934E+00
         -1   -1    0    0    0  501 -0.00000000000E+00  0.00000000000E+00  0.40832938217E+03  0.40832938217E+03  0.00000000000E+00 0.  1.
          1   -1    0    0  501    0  0.00000000000E+00 -0.00000000000E+00 -0.54191167398E+02  0.54191167398E+02  0.00000000000E+00 0. -1.
         25    2    1    2    0    0  0.18319291272E+02 -0.84402530774E+02  0.11964788594E+03  0.19345309949E+03  0.12509636868E+03 0.  0.
          5    1    3    3  502    0 -0.42480668473E+02 -0.32481915346E+01  0.98362319357E+01  0.43924728808E+02  0.41800000000E+01 0. -1.
         -5    1    3    3    0  502  0.60799959745E+02 -0.81154339239E+02  0.10981165400E+03  0.14952837068E+03  0.41800000000E+01 0. -1.
        -11    1    1    2    0    0 -0.15041965244E+02  0.35091790075E+02  0.21086053355E+03  0.21428919491E+03  0.00000000000E+00 0.  1.
         11    1    1    2    0    0 -0.32773260275E+01  0.49310740699E+02  0.23629795286E+02  0.54778255170E+02  0.00000000000E+00 0. -1.
</event>
<event>
 7    1  0.2873461E-009  0.8557948E+02  0.7561462E-02  0.1313924E+00
          1   -1    0    0  501    0  0.00000000000E+00  0.00000000000E+00  0.75596499043E+03  0.75596499043E+03  0.00000000000E+00 0. -1.
         -1   -1    0    0    0  501 -0.00000000000E+00 -0.00000000000E+00 -0.54524989325E+02  0.54524989325E+02  0.00000000000E+00 0.  1.
         25    2    1    2    0    0  0.14710756982E+02  0.99307530858E+01  0.70621269168E+03  0.71742513953E+03  0.12508972270E+03 0.  0.
          5    1    3    3  502    0  0.40133635428E+02  0.47251186571E+02  0.20615906500E+03  0.21531933449E+03  0.41800000000E+01 0.  1.
         -5    1    3    3    0  502 -0.25422878447E+02 -0.37320433485E+02  0.50005362668E+03  0.50210580505E+03  0.41800000000E+01 0.  1.
        -11    1    1    2    0    0  0.19352354721E+02  0.12362086060E+02 -0.35347805761E+02  0.42152131348E+02  0.00000000000E+00 0.  1.
         11    1    1    2    0    0 -0.34063111703E+02 -0.22292839146E+02  0.30575115193E+02  0.50912708876E+02  0.00000000000E+00 0. -1.
</event>
<event>
 7    1  0.2873461E-009  0.1130216E+03  0.7561462E-02  0.1255074E+00
          2   -1    0    0  501    0  0.00000000000E+00  0.00000000000E+00  0.29992139642E+03  0.29992139642E+03  0.00000000000E+00 0. -1.
         -2   -1    0    0    0  501 -0.00000000000E+00 -0.00000000000E+00 -0.44982373691E+02  0.44982373691E+02  0.00000000000E+00 0.  1.
         25    2    1    2    0    0  0.38320853514E+02 -0.15012668914E+02  0.12679819636E+03  0.18280901541E+03  0.12508990956E+03 0.  0.
          5    1    3    3  502    0 -0.12482113714E+02 -0.59915586520E+02  0.77673124668E+02  0.98976094925E+02  0.41800000000E+01 0.  1.
         -5    1    3    3    0  502  0.50802967228E+02  0.44902917606E+02  0.49125071695E+02  0.83832920489E+02  0.41800000000E+01 0.  1.
        -11    1    1    2    0    0 -0.16425111577E+02 -0.36919276421E+02  0.36184047388E+02  0.54241151786E+02  0.00000000000E+00 0.  1.
         11    1    1    2    0    0 -0.21895741937E+02  0.51931945334E+02  0.91956778982E+02  0.10785360292E+03  0.00000000000E+00 0. -1.
</event>
<event>
 7    1  0.2873461E-009  0.9716193E+02  0.7561462E-02  0.1286380E+00
         -3   -1    0    0    0  501 -0.00000000000E+00  0.00000000000E+00  0.92567043235E+02  0.92567043235E+02  0.00000000000E+00 0.  1.
          3   -1    0    0  501    0  0.00000000000E+00 -0.00000000000E+00 -0.16840660018E+03  0.16840660018E+03  0.00000000000E+00 0. -1.
         25    2    1    2    0    0  0.38622282108E+02  0.26979027223E+02 -0.13386089394E+02  0.13433371803E+03  0.12508721687E+03 0.  0.
          5    1    3    3  502    0  0.53692387883E+02 -0.79585734155E+01 -0.55280034935E+02  0.77585862564E+02  0.41800000000E+01 0.  1.
         -5    1    3    3    0  502 -0.15070105775E+02  0.34937600638E+02  0.41893945541E+02  0.56747855461E+02  0.41800000000E+01 0.  1.
        -11    1    1    2    0    0 -0.60805756339E+02 -0.42800285204E+02 -0.65667117639E+02  0.99203703341E+02  0.00000000000E+00 0. -1.
         11    1    1    2    0    0  0.22183474232E+02  0.15821257982E+02  0.32136500935E+01  0.27436222044E+02  0.00000000000E+00 0.  1.
</event>
<event>
 7    1  0.2873461E-009  0.1155447E+03  0.7561462E-02  0.1250633E+00
          1   -1    0    0  501    0  0.00000000000E+00  0.00000000000E+00  0.44569335694E+03  0.44569335694E+03  0.00000000000E+00 0. -1.
         -1   -1    0    0    0  501 -0.00000000000E+00 -0.00000000000E+00 -0.48217127233E+02  0.48217127233E+02  0.00000000000E+00 0.  1.
         25    2    1    2    0    0  0.45526890926E+02 -0.54699735751E+02  0.10224276545E+03  0.17653977338E+03  0.12509176476E+03 0.  0.
          5    1    3    3  502    0  0.74367568676E+02 -0.27497090228E+02  0.15252724979E+02  0.80850128393E+02  0.41800000000E+01 0.  1.
         -5    1    3    3    0  502 -0.28840677750E+02 -0.27202645522E+02  0.86990040474E+02  0.95689644989E+02  0.41800000000E+01 0.  1.
        -11    1    1    2    0    0  0.13939564168E+02 -0.14817605609E+02  0.25960285506E+02  0.32981954289E+02  0.00000000000E+00 0.  1.
         11    1    1    2    0    0 -0.59466455094E+02  0.69517341360E+02  0.26927317875E+03  0.28438875651E+03  0.00000000000E+00 0. -1.
</event>
<event>
 7    1  0.2873461E-009  0.3533844E+03  0.7561462E-02  0.1061234E+00
          2   -1    0    0  501    0  0.00000000000E+00  0.00000000000E+00  0.19827574590E+04  0.19827574590E+04  0.00000000000E+00 0. -1.
         -2   -1    0    0    0  501 -0.00000000000E+00 -0.00000000000E+00 -0.90839857716E+02  0.90839857716E+02  0.00000000000E+00 0.  1.
         25    2    1    2    0    0  0.24529040989E+03  0.23154270772E+03  0.38627333766E+03  0.52785811925E+03  0.12509073506E+03 0.  0.
          5    1    3    3  502    0 -0.10644213880E+02 -0.57964541443E+00  0.30420215815E+01  0.11847428971E+02  0.41800000000E+01 0.  1.
         -5    1    3    3    0  502  0.25593462377E+03  0.23212235313E+03  0.38323131607E+03  0.51601069028E+03  0.41800000000E+01 0.  1.
        -11    1    1    2    0    0 -0.72727475799E+02 -0.13159958386E+03  0.64348749756E+03  0.66082062296E+03  0.00000000000E+00 0.  1.
         11    1    1    2    0    0 -0.17256293409E+03 -0.99943123861E+02  0.86215676607E+03  0.88491857450E+03  0.00000000000E+00 0. -1.
</event>
<event>
 7    1  0.2873461E-009  0.3295481E+03  0.7561462E-02  0.1071337E+00
          1   -1    0    0  501    0  0.00000000000E+00  0.00000000000E+00  0.28050558864E+03  0.28050558864E+03  0.00000000000E+00 0. -1.
         -1   -1    0    0    0  501 -0.00000000000E+00 -0.00000000000E+00 -0.59318552083E+03  0.59318552083E+03  0.00000000000E+00 0.  1.
         25    2    1    2    0    0 -0.13024693710E+03  0.29210213514E+03 -0.40234854957E+03  0.52898031456E+03  0.12509154996E+03 0.  0.
          5    1    3    3  502    0 -0.13254648679E+03  0.21621509977E+03 -0.36444034400E+03  0.44401776683E+03  0.41800000000E+01 0. -1.
         -5    1    3    3    0  502  0.22995496953E+01  0.75887035375E+02 -0.37908205575E+02  0.84962547730E+02  0.41800000000E+01 0. -1.
        -11    1    1    2    0    0  0.10340208117E+03 -0.13506886839E+03  0.70932918779E+02  0.18430156962E+03  0.00000000000E+00 0.  1.
         11    1    1    2    0    0  0.26844855932E+02 -0.15703326676E+03  0.18735698599E+02  0.16040922530E+03  0.00000000000E+00 0. -1.
</event>
<event>
 7    1  0.2873461E-009  0.1861228E+03  0.7561462E-02  0.1162006E+00
         -3   -1    0    0    0  501 -0.00000000000E+00  0.00000000000E+00  0.52813617395E+03  0.52813617395E+03  0.00000000000E+00 0.  1.
          3   -1    0    0  501    0  0.00000000000E+00 -0.00000000000E+00 -0.80352908792E+02  0.80352908792E+02  0.00000000000E+00 0. -1.
         25    2    1    2    0    0 -0.38429143866E+02 -0.15832949888E+03  0.14017072938E+03  0.24867732512E+03  0.12509016484E+03 0.  0.
          5    1    3    3  502    0 -0.70174842814E+01 -0.16531507688E+03  0.88577332323E+02  0.18772782407E+03  0.41800000000E+01 0.  1.
         -5    1    3    3    0  502 -0.31411659585E+02  0.69855780032E+01  0.51593397058E+02  0.60949501047E+02  0.41800000000E+01 0.  1.
        -11    1    1    2    0    0 -0.16259818176E+02  0.55221326942E+02  0.47206217375E+02  0.74445977696E+02  0.00000000000E+00 0. -1.
         11    1    1    2    0    0  0.54688962042E+02  0.10310817194E+03  0.26040631840E+03  0.28536577993E+03  0.00000000000E+00 0.  1.
</event>
<event>
 7    1  0.2873461E-009  0.1746539E+03  0.7561462E-02  0.1173080E+00
          1   -1    0    0  501    0  0.00000000000E+00  0.00000000000E+00  0.76109833206E+03  0.76109833206E+03  0.00000000000E+00 0. -1.
         -1   -1    0    0    0  501 -0.00000000000E+00 -0.00000000000E+00 -0.47126377076E+02  0.47126377076E+02  0.00000000000E+00 0.  1.
         25    2    1    2    0    0 -0.14496330747E+03  0.17483258286E+02  0.26429832858E+03  0.32683487751E+03  0.12508959122E+03 0.  0.
          5    1    3    3  502    0  0.88837981057E+01 -0.17137440490E+02  0.85098382087E+00  0.19768922803E+02  0.41800000000E+01 0. -1.
         -5    1    3    3    0  502 -0.15384710558E+03  0.34620698776E+02  0.26344734476E+03  0.30706595471E+03  0.41800000000E+01 0. -1.
        -11    1    1    2    0    0  0.95895238952E+02  0.32992743830E+02  0.26063807667E+03  0.27967235296E+03  0.00000000000E+00 0.  1.
         11    1    1    2    0    0  0.49068068518E+02 -0.50476002116E+02  0.18903554974E+03  0.20171747868E+03  0.00000000000E+00 0. -1.
</event>
<event>
 7    1  0.2873461E-009  0.2113863E+03  0.7561462E-02  0.1140473E+00
          2   -1    0    0  501    0  0.00000000000E+00  0.00000000000E+00  0.12639947569E+04  0.12639947569E+04  0.00000000000E+00 0. -1.
         -2   -1    0    0    0  501 -0.00000000000E+00 -0.00000000000E+00 -0.40044044235E+02  0.40044044235E+02  0.00000000000E+00 0.  1.
         25    2    1    2    0    0 -0.19610161938E+03 -0.84417515536E+01  0.60375533458E+03  0.64706824495E+03  0.12509876614E+03 0.  0.
          5    1    3    3  502    0 -0.94656712447E+02 -0.46139922817E+02  0.17016155216E+03  0.20015297130E+03  0.41800000000E+01 0. -1.
         -5    1    3    3    0  502 -0.10144490694E+03  0.37698171263E+02  0.43359378242E+03  0.44691527364E+03  0.41800000000E+01 0. -1.
        -11    1    1    2    0    0  0.16986890392E+03 -0.19228808775E+02  0.42514995694E+03  0.45823321300E+03  0.00000000000E+00 0.  1.
         11    1    1    2    0    0  0.26232715461E+02  0.27670560329E+02  0.19504542116E+03  0.19873734321E+03  0.00000000000E+00 0. -1.
</event>
<event>
 7    1  0.2873461E-009  0.1011211E+03  0.7561462E-02  0.1277956E+00
          2   -1    0    0  501    0  0.00000000000E+00  0.00000000000E+00  0.17266563389E+03  0.17266563389E+03  0.00000000000E+00 0. -1.
         -2   -1    0    0    0  501 -0.00000000000E+00 -0.00000000000E+00 -0.10473756181E+03  0.10473756181E+03  0.00000000000E+00 0.  1.
         25    2    1    2    0    0 -0.72725799090E+02  0.44543852748E+02  0.42901380937E+02  0.15735707027E+03  0.12509005719E+03 0.  0.
          5    1    3    3  502    0 -0.25306939819E+02  0.34197006026E+02 -0.41709548168E+02  0.59724661846E+02  0.41800000000E+01 0.  1.
         -5    1    3    3    0  502 -0.47418859270E+02  0.10346846722E+02  0.84610929106E+02  0.97632408429E+02  0.41800000000E+01 0.  1.
        -11    1    1    2    0    0  0.42824491478E+01 -0.42075279788E+02 -0.95015101663E+01  0.43346824974E+02  0.00000000000E+00 0.  1.
         11    1    1    2    0    0  0.68443349942E+02 -0.24685729605E+01  0.34528201306E+02  0.76699300448E+02  0.00000000000E+00 0. -1.
</event>
<event>
 7    1  0.2873461E-009  0.1223634E+03  0.7561462E-02  0.1239248E+00
         -1   -1    0    0    0  501 -0.00000000000E+00  0.00000000000E+00  0.65767749353E+02  0.65767749353E+02  0.00000000000E+00 0.  1.
          1   -1    0    0  501    0  0.00000000000E+00 -0.00000000000E+00 -0.36383234213E+03  0.36383234213E+03  0.00000000000E+00 0. -1.
         25    2    1    2    0    0  0.66120728393E+02  0.86134335321E+01 -0.38839397786E+02  0.14697698489E+03  0.12509034058E+03 0.  0.
          5    1    3    3  502    0 -0.32158140818E+02 -0.52349164253E+01 -0.34364010018E+02  0.47538489199E+02  0.41800000000E+01 0.  1.
         -5    1    3    3    0  502  0.98278869210E+02  0.13848349957E+02 -0.44753877688E+01  0.99438495692E+02  0.41800000000E+01 0.  1.
        -11    1    1    2    0    0  0.38951877596E+00  0.33705956281E+02 -0.73592074095E+02  0.80944651358E+02  0.00000000000E+00 0. -1.
         11    1    1    2    0    0 -0.66510247169E+02 -0.42319389813E+02 -0.18563312089E+03  0.20167845523E+03  0.00000000000E+00 0.  1.
</event>
<event>
 7    1  0.2873461E-009  0.1796831E+03  0.7561462E-02  0.1168110E+00
         -2   -1    0    0    0  501 -0.00000000000E+00  0.00000000000E+00  0.39315761379E+02  0.39315761379E+02  0.00000000000E+00 0.  1.
          2   -1    0    0  501    0  0.00000000000E+00 -0.00000000000E+00 -0.12325098656E+04  0.12325098656E+04  0.00000000000E+00 0. -1.
         25    2    1    2    0    0 -0.11030739608E+03 -0.11331579816E+03 -0.92691729160E+03  0.94859435050E+03  0.12508950635E+03 0.  0.
          5    1    3    3  502    0 -0.11248031298E+03 -0.29316402494E+02 -0.48624747202E+03  0.49996534751E+03  0.41800000000E+01 0.  1.
         -5    1    3    3    0  502  0.21729169006E+01 -0.83999395671E+02 -0.44066981958E+03  0.44862900300E+03  0.41800000000E+01 0.  1.
        -11    1    1    2    0    0  0.59937119059E+02  0.72660334914E+02 -0.23110473346E+03  0.24956237765E+03  0.00000000000E+00 0. -1.
         11    1    1    2    0    0  0.50370277021E+02  0.40655463251E+02 -0.35172079135E+02  0.73668898797E+02  0.00000000000E+00 0.  1.
</event>
<event>
 7    1  0.2873461E-009  0.1017380E+03  0.7561462E-02  0.1276683E+00
          3   -1    0    0  501    0  0.00000000000E+00  0.00000000000E+00  0.26363115932E+02  0.26363115932E+02  0.00000000000E+00 0. -1.
         -3   -1    0    0    0  501 -0.00000000000E+00 -0.00000000000E+00 -0.47075124123E+03  0.47075124123E+03  0.00000000000E+00 0.  1.
         25    2    1    2    0    0 -0.90234630936E+01 -0.22029069778E+02 -0.27322707272E+03  0.30144243037E+03  0.12509117777E+03 0.  0.
          5    1    3    3  502    0 -0.23478929373E+02 -0.70647906856E+02 -0.13629667753E+03  0.15535972314E+03  0.41800000000E+01 0. -1.
         -5    1    3    3    0  502  0.14455466279E+02  0.48618837078E+02 -0.13693039519E+03  0.14608270723E+03  0.41800000000E+01 0. -1.
        -11    1    1    2    0    0  0.21600581881E+02 -0.22829546494E+02 -0.19430903102E+02  0.36950417130E+02  0.00000000000E+00 0. -1.
         11    1    1    2    0    0 -0.12577118787E+02  0.44858616272E+02 -0.15173014947E+03  0.15872150966E+03  0.00000000000E+00 0.  1.
</event>
<event>
 7    1  0.2873461E-009  0.1005140E+03  0.7561462E-02  0.1279219E+00
         -1   -1    0    0    0  501 -0.00000000000E+00  0.00000000000E+00  0.55170149477E+02  0.55170149477E+02  0.00000000000E+00 0.  1.
          1   -1    0    0  501    0  0.00000000000E+00 -0.00000000000E+00 -0.26928118730E+03  0.26928118730E+03  0.00000000000E+00 0. -1.
         25    2    1    2    0    0  0.25018781133E+02  0.18205727818E+02 -0.19224735623E+03  0.23143808157E+03  0.12508857537E+03 0.  0.
          5    1    3    3  502    0 -0.43558885772E+02  0.37230543177E+02 -0.90655414472E+02  0.10732831149E+03  0.41800000000E+01 0. -1.
         -5    1    3    3    0  502  0.68577666905E+02 -0.19024815359E+02 -0.10159194176E+03  0.12410977007E+03  0.41800000000E+01 0. -1.
        -11    1    1    2    0    0  0.18813526612E+02  0.88316302813E+01  0.18308877128E+02  0.27697679663E+02  0.00000000000E+00 0.  1.
         11    1    1    2    0    0 -0.43832307745E+02 -0.27037358099E+02 -0.40172558728E+02  0.65315575554E+02  0.00000000000E+00 0. -1.
</event>
<event>
 7    1  0.2873461E-009  0.5934705E+02  0.7561462E-02  0.1400592E+00
          2   -1    0    0  501    0  0.00000000000E+00  0.00000000000E+00  0.11658254058E+02  0.11658254058E+02  0.00000000000E+00 0. -1.
         -2   -1    0    0    0  501 -0.00000000000E+00 -0.00000000000E+00 -0.59265337270E+03  0.59265337270E+03  0.00000000000E+00 0.  1.
         25    2    1    2    0    0  0.15541196968E+00 -0.25968355389E+02 -0.45440691501E+03  0.47202495690E+03  0.12509011111E+03 0.  0.
          5    1    3    3  502    0  0.29391124673E+02  0.12756086826E+02 -0.38970764476E+03  0.39104485260E+03  0.41800000000E+01 0.  1.
         -5    1    3    3    0  502 -0.29235712704E+02 -0.38724442215E+02 -0.64699270250E+02  0.80980104304E+02  0.41800000000E+01 0.  1.
        -11    1    1    2    0    0  0.13555337945E+02  0.13914553883E+02 -0.52387824569E+02  0.55873483511E+02  0.00000000000E+00 0.  1.
         11    1    1    2    0    0 -0.13710749915E+02  0.12053801506E+02 -0.74200379068E+02  0.76413186348E+02  0.00000000000E+00 0. -1.
</event>
<event>
 7    1  0.2873461E-009  0.2085546E+03  0.7561462E-02  0.1142716E+00
         -2   -1    0    0    0  501 -0.00000000000E+00  0.00000000000E+00  0.49855700813E+02  0.49855700813E+02  0.00000000000E+00 0.  1.
          2   -1    0    0  501    0  0.00000000000E+00 -0.00000000000E+00 -0.10418956935E+04  0.10418956935E+04  0.00000000000E+00 0. -1.
         25    2    1    2    0    0 -0.19189388785E+03  0.50313712103E+02 -0.57147269796E+03  0.61772388207E+03  0.12508803357E+03 0.  0.
          5    1    3    3  502    0 -0.11467585316E+03  0.47194990455E+02 -0.48953017352E+03  0.50501008070E+03  0.41800000000E+01 0.  1.
         -5    1    3    3    0  502 -0.77218034695E+02  0.31187216477E+01 -0.81942524436E+02  0.11271380136E+03  0.41800000000E+01 0.  1.
        -11    1    1    2    0    0  0.49754176362E+02  0.24003291922E+02 -0.14518518197E+03  0.15533954150E+03  0.00000000000E+00 0.  1.
         11    1    1    2    0    0  0.14213971149E+03 -0.74317004026E+02 -0.27538211270E+03  0.31868797070E+03  0.00000000000E+00 0. -1.
</event>
<event>
 7    1  0.2873461E-009  0.9751593E+02  0.7561462E-02  0.1285608E+00
         -1   -1    0    0    0  501 -0.00000000000E+00  0.00000000000E+00  0.34469017632E+03  0.34469017632E+03  0.00000000000E+00 0.  1.
          1   -1    0    0  501    0  0.00000000000E+00 -0.00000000000E+00 -0.51923979785E+02  0.51923979785E+02  0.00000000000E+00 0. -1.
         25    2    1    2    0    0 -0.14146000331E+02  0.65953486213E+02  0.92590172296E+02  0.16961813755E+03  0.12508957155E+03 0.  0.
          5    1    3    3  502    0  0.31642199169E+01  0.69893989718E+02  0.11865240996E+03  0.13780801456E+03  0.41800000000E+01 0.  1.
         -5    1    3    3    0  502 -0.17310220248E+02 -0.39405035043E+01 -0.26062237664E+02  0.31810122995E+02  0.41800000000E+01 0.  1.
        -11    1    1    2    0    0  0.60050580985E+01 -0.85405394150E+02  0.16738024970E+03  0.18800609049E+03  0.00000000000E+00 0. -1.
         11    1    1    2    0    0  0.81409422329E+01  0.19451907936E+02  0.32795774543E+02  0.38989928067E+02  0.00000000000E+00 0.  1.
</event>
<event>
 7    1  0.2873461E-009  0.2003678E+03  0.7561462E-02  0.1149429E+00
          2   -1    0    0  501    0  0.00000000000E+00  0.00000000000E+00  0.11799788747E+04  0.11799788747E+04  0.00000000000E+00 0. -1.
         -2   -1    0    0    0  501 -0.00000000000E+00 -0.00000000000E+00 -0.38366275850E+02  0.38366275850E+02  0.00000000000E+00 0.  1.
         25    2    1    2    0    0  0.11439674169E+03  0.12874313940E+03  0.75217292409E+03  0.78171112560E+03  0.12508703251E+03 0.  0.
          5    1    3    3  502    0 -0.18755016929E+02  0.10063447323E+00  0.16274226297E+03  0.16387274741E+03  0.41800000000E+01 0. -1.
         -5    1    3    3    0  502  0.13315175862E+03  0.12864250492E+03  0.58943066112E+03  0.61783837819E+03  0.41800000000E+01 0. -1.
        -11    1    1    2    0    0 -0.13045833112E+01  0.14086891887E+02  0.17755635586E+02  0.22702534125E+02  0.00000000000E+00 0. -1.
         11    1    1    2    0    0 -0.11309215838E+03 -0.14283003128E+03  0.37168403922E+03  0.41393149087E+03  0.00000000000E+00 0.  1.
</event>
<event>
 7    1  0.2873461E-009  0.3370223E+03  0.7561462E-02  0.1068071E+00
         -2   -1    0    0    0  501 -0.00000000000E+00  0.00000000000E+00  0.51355981956E+02  0.51355981956E+02  0.00000000000E+00 0.  1.
          2   -1    0    0  501    0  0.00000000000E+00 -0.00000000000E+00 -0.24630922161E+04  0.24630922161E+04  0.00000000000E+00 0. -1.
         25    2    1    2    0    0  0.56737627167E+02 -0.32571290220E+03 -0.14768478911E+04  0.15185646840E+04  0.12510376882E+03 0.  0.
          5    1    3    3  502    0  0.57938029964E+02 -0.22124415367E+03 -0.12198444429E+04  0.12411058488E+04  0.41800000000E+01 0. -1.
         -5    1    3    3    0  502 -0.12004027976E+01 -0.10446874853E+03 -0.25700344821E+03  0.27745883510E+03  0.41800000000E+01 0. -1.
        -11    1    1    2    0    0 -0.53583038122E+02  0.88144457415E+02 -0.34005185612E+03  0.35535313731E+03  0.00000000000E+00 0. -1.
         11    1    1    2    0    0 -0.31545890444E+01  0.23756844479E+03 -0.59483648700E+03  0.64053037684E+03  0.00000000000E+00 0.  1.
</event>
<event>
 7    1  0.2873461E-009  0.1296142E+03  0.7561462E-02  0.1228029E+00
          2   -1    0    0  501    0  0.00000000000E+00  0.00000000000E+00  0.52865315281E+03  0.52865315281E+03  0.00000000000E+00 0.  1.
         -2   -1    0    0    0  501 -0.00000000000E+00 -0.00000000000E+00 -0.78615398338E+02  0.78615398338E+02  0.00000000000E+00 0. -1.
         25    2    1    2    0    0 -0.36943313602E+02 -0.66350249496E+02  0.42705336347E+01  0.14640186393E+03  0.12509238297E+03 0.  0.
          5    1    3    3  502    0 -0.81956869125E+02 -0.55118771787E+02 -0.46869774569E+01  0.98966901325E+02  0.41800000000E+01 0. -1.
         -5    1    3    3    0  502  0.45013555523E+02 -0.11231477708E+02  0.89575110916E+01  0.47434962605E+02  0.41800000000E+01 0. -1.
        -11    1    1    2    0    0  0.48467590276E+02  0.20974802586E+01  0.13875515239E+03  0.14699149310E+03  0.00000000000E+00 0. -1.
         11    1    1    2    0    0 -0.11524276674E+02  0.64252769237E+02  0.30701206845E+03  0.31387519412E+03  0.00000000000E+00 0.  1.
</event>
<event>
 7    1  0.2873461E-009  0.1013939E+03  0.7561462E-02  0.1277392E+00
          1   -1    0    0  501    0  0.00000000000E+00  0.00000000000E+00  0.69226579356E+02  0.69226579356E+02  0.00000000000E+00 0. -1.
         -1   -1    0    0    0  501 -0.00000000000E+00 -0.00000000000E+00 -0.21084519984E+03  0.21084519984E+03  0.00000000000E+00 0.  1.
         25    2    1    2    0    0 -0.43698303384E+02 -0.22006215479E+02 -0.10427900699E+03  0.17004517809E+03  0.12508971202E+03 0.  0.
          5    1    3    3  502    0 -0.69924157034E+02 -0.36180646512E+02 -0.11382668136E+03  0.13846448176E+03  0.41800000000E+01 0. -1.
         -5    1    3    3    0  502  0.26225853650E+02  0.14174431033E+02  0.95476743722E+01  0.31580696330E+02  0.41800000000E+01 0. -1.
        -11    1    1    2    0    0 -0.84387313181E+01  0.38301188308E+02 -0.39091292135E+02  0.55374383363E+02  0.00000000000E+00 0.  1.
         11    1    1    2    0    0  0.52137034702E+02 -0.16294972828E+02  0.17516786346E+01  0.54652217751E+02  0.00000000000E+00 0. -1.
</event>
<event>
 7    1  0.2873461E-009  0.1003976E+03  0.7561462E-02  0.1279462E+00
          1   -1    0    0  501    0  0.00000000000E+00  0.00000000000E+00  0.22828123070E+03  0.22828123070E+03  0.00000000000E+00 0. -1.
         -1   -1    0    0    0  501 -0.00000000000E+00 -0.00000000000E+00 -0.98952218977E+02  0.98952218977E+02  0.00000000000E+00 0.  1.
         25    2    1    2    0    0 -0.24640973501E+02 -0.53686003708E+02  0.15942943824E+03  0.21107907030E+03  0.12508902258E+03 0.  0.
          5    1    3    3  502    0 -0.52506573555E+02  0.93598551664E+00  0.13504557943E+03  0.14495722562E+03  0.41800000000E+01 0. -1.
         -5    1    3    3    0  502  0.27865600054E+02 -0.54621989225E+02  0.24383858809E+02  0.66121844679E+02  0.41800000000E+01 0. -1.
        -11    1    1    2    0    0  0.46089064471E+02  0.41293761528E+02 -0.53706014805E+02  0.81937248131E+02  0.00000000000E+00 0.  1.
         11    1    1    2    0    0 -0.21448090970E+02  0.12392242180E+02  0.23605588291E+02  0.34217131251E+02  0.00000000000E+00 0. -1.
</event>
<event>
 7    1  0.2873461E-009  0.1283424E+03  0.7561462E-02  0.1229936E+00
          1   -1    0    0  501    0  0.00000000000E+00  0.00000000000E+00  0.16734588380E+03  0.16734588380E+03  0.00000000000E+00 0. -1.
         -1   -1    0    0    0  501 -0.00000000000E+00 -0.00000000000E+00 -0.10799251594E+03  0.10799251594E+03  0.00000000000E+00 0.  1.
         25    2    1    2    0    0 -0.14315209974E+02  0.74803203330E+02  0.16912290286E+02  0.14742989161E+03  0.12509637449E+03 0.  0.
          5    1    3    3  502    0  0.12948854451E+02  0.10218349579E+03  0.28357575129E+02  0.10691475161E+03  0.41800000000E+01 0. -1.
         -5    1    3    3    0  502 -0.27264064425E+02 -0.27380292461E+02 -0.11445284843E+02  0.40515140002E+02  0.41800000000E+01 0. -1.
        -11    1    1    2    0    0  0.46594513655E+02 -0.19106120558E+02  0.38541621126E+02  0.63415685005E+02  0.00000000000E+00 0.  1.
         11    1    1    2    0    0 -0.32279303681E+02 -0.55697082772E+02  0.38994564462E+01  0.64492823135E+02  0.00000000000E+00 0. -1.
</event>
<event>
 7    1  0.2873461E-009  0.1720050E+03  0.7561462E-02  0.1175773E+00
          2   -1    0    0  501    0  0.00000000000E+00  0.00000000000E+00  0.10024774639E+04  0.10024774639E+04  0.00000000000E+00 0. -1.
         -2   -1    0    0    0  501 -0.00000000000E+00 -0.00000000000E+00 -0.34040374978E+02  0.34040374978E+02  0.00000000000E+00 0.  1.
         25    2    1    2    0    0 -0.27342395806E+02  0.13514066405E+03  0.35492937745E+03  0.40079705391E+03  0.12511118958E+03 0.  0.
          5    1    3    3  502    0 -0.59695820302E+02  0.13195666840E+03  0.23162158260E+03  0.27320721664E+03  0.41800000000E+01 0.  1.
         -5    1    3    3    0  502  0.32353424496E+02  0.31839956541E+01  0.12330779485E+03  0.12758983728E+03  0.41800000000E+01 0.  1.
        -11    1    1    2    0    0 -0.25836009608E+02 -0.98323903127E+02  0.39138647923E+03  0.40437416515E+03  0.00000000000E+00 0.  1.
         11    1    1    2    0    0  0.53178405414E+02 -0.36816760926E+02  0.22212123228E+03  0.23134661986E+03  0.00000000000E+00 0. -1.
</event>
<event>
 7    1  0.2873461E-009  0.8844023E+02  0.7561462E-02  0.1306673E+00
         -1   -1    0    0    0  501 -0.00000000000E+00  0.00000000000E+00  0.28888861187E+02  0.28888861187E+02  0.00000000000E+00 0.  1.
          1   -1    0    0  501    0  0.00000000000E+00 -0.00000000000E+00 -0.49398556143E+03  0.49398556143E+03  0.00000000000E+00 0. -1.
         25    2    1    2    0    0 -0.47439785981E+02 -0.69129490701E+01 -0.27579256578E+03  0.30660423885E+03  0.12508516212E+03 0.  0.
          5    1    3    3  502    0 -0.30262449466E+02  0.41521517891E+02 -0.23575382919E+03  0.24132383362E+03  0.41800000000E+01 0.  1.
         -5    1    3    3    0  502 -0.17177336515E+02 -0.48434466962E+02 -0.40038736596E+02  0.65280405236E+02  0.41800000000E+01 0.  1.
        -11    1    1    2    0    0  0.60405723172E+02  0.69587101788E+01 -0.19335150677E+03  0.20268714861E+03  0.00000000000E+00 0. -1.
         11    1    1    2    0    0 -0.12965937191E+02 -0.45761108689E-01  0.40473723151E+01  0.13583035153E+02  0.00000000000E+00 0.  1.
</event>
<event>
 7    1  0.2873461E-009  0.9828017E+02  0.7561462E-02  0.1283955E+00
          1   -1    0    0  501    0  0.00000000000E+00  0.00000000000E+00  0.57189915602E+02  0.57189915602E+02  0.00000000000E+00 0. -1.
         -1   -1    0    0    0  501 -0.00000000000E+00 -0.00000000000E+00 -0.22270855133E+03  0.22270855133E+03  0.00000000000E+00 0.  1.
         25    2    1    2    0    0  0.10307352435E+02  0.12795745077E+02 -0.61005702878E+02  0.14014215671E+03  0.12509258850E+03 0.  0.
          5    1    3    3  502    0  0.31167678355E+02  0.63311449927E+02 -0.41438294047E+02  0.81941250170E+02  0.41800000000E+01 0.  1.
         -5    1    3    3    0  502 -0.20860325919E+02 -0.50515704849E+02 -0.19567408832E+02  0.58200906542E+02  0.41800000000E+01 0.  1.
        -11    1    1    2    0    0 -0.18685020532E+02  0.25635543397E+02 -0.93757252587E+02  0.98978449625E+02  0.00000000000E+00 0.  1.
         11    1    1    2    0    0  0.83776680969E+01 -0.38431288475E+02 -0.10755680258E+02  0.40777860591E+02  0.00000000000E+00 0. -1.
</event>
<event>
 6    1  0.2873461E-009  0.1109171E+03  0.7561462E-02  0.1258881E+00
          2   -1    0    0  501    0  0.00000000000E+00  0.00000000000E+00  0.12882345901E+04  0.12882345901E+04  0.00000000000E+00 0. -1.
         -2   -1    0    0    0  501 -0.00000000000E+00 -0.00000000000E+00 -0.24166794626E+02  0.24166794626E+02  0.00000000000E+00 0.  1.
          5    1    1    2  502    0  0.25406614408E+02  0.86706596843E+02  0.31434796027E+03  0.32710188400E+03  0.41800000000E+01 0.  1.
         -5    1    1    2    0  502  0.23282763875E+02  0.59519901240E+01  0.68706509311E+03  0.68749794753E+03  0.41800000000E+01 0.  1.
        -11    1    1    2    0    0 -0.10512073169E+02 -0.43493869600E+02  0.21445891950E+03  0.21907726611E+03  0.00000000000E+00 0. -1.
         11    1    1    2    0    0 -0.38177305113E+02 -0.49164717367E+02  0.48195822562E+02  0.78724287053E+02  0.00000000000E+00 0.  1.
</event>
<event>
 7    1  0.2873461E-009  0.1095431E+03  0.7561462E-02  0.1261418E+00
          3   -1    0    0  501    0  0.00000000000E+00  0.00000000000E+00  0.21795927991E+03  0.21795927991E+03  0.00000000000E+00 0. -1.
         -3   -1    0    0    0  501 -0.00000000000E+00 -0.00000000000E+00 -0.97609586140E+02  0.97609586140E+02  0.00000000000E+00 0.  1.
         25    2    1    2    0    0  0.66847851737E+02 -0.96270354756E+01 -0.12064154509E+02  0.14266949108E+03  0.12509086604E+03 0.  0.
          5    1    3    3  502    0  0.68096171358E+02 -0.52407363644E+02  0.20845877134E+02  0.88519169173E+02  0.41800000000E+01 0.  1.
         -5    1    3    3    0  502 -0.12483196203E+01  0.42780328168E+02 -0.32910031643E+02  0.54150321909E+02  0.41800000000E+01 0.  1.
        -11    1    1    2    0    0 -0.95267328633E+00 -0.18415683926E+02 -0.39644844351E+01  0.18861657872E+02  0.00000000000E+00 0.  1.
         11    1    1    2    0    0 -0.65895178451E+02  0.28042719401E+02  0.13637833272E+03  0.15403771710E+03  0.00000000000E+00 0. -1.
</event>
<event>
 7    1  0.2873461E-009  0.1045534E+03  0.7561462E-02  0.1271002E+00
         -2   -1    0    0    0  501 -0.00000000000E+00  0.00000000000E+00  0.32484343959E+02  0.32484343959E+02  0.00000000000E+00 0.  1.
          2   -1    0    0  501    0  0.00000000000E+00 -0.00000000000E+00 -0.42049136826E+03  0.42049136826E+03  0.00000000000E+00 0. -1.
         25    2    1    2    0    0 -0.24185579735E+02  0.94707687727E+01 -0.16209284836E+03  0.20638870500E+03  0.12509024076E+03 0.  0.
          5    1    3    3  502    0  0.51257197821E+01 -0.46504377724E+02 -0.12374204425E+03  0.13235745565E+03  0.41800000000E+01 0.  1.
         -5    1    3    3    0  502 -0.29311299517E+02  0.55975146497E+02 -0.38350804112E+02  0.74031249353E+02  0.41800000000E+01 0.  1.
        -11    1    1    2    0    0  0.46028150802E+02  0.29120969706E+02 -0.12710153557E+03  0.13828022956E+03  0.00000000000E+00 0.  1.
         11    1    1    2    0    0 -0.21842571067E+02 -0.38591738479E+02 -0.98812640366E+02  0.10830677765E+03  0.00000000000E+00 0. -1.
</event>
<event>
 6    1  0.2873461E-009  0.1264196E+03  0.7561462E-02  0.1232867E+00
          1   -1    0    0  501    0  0.00000000000E+00  0.00000000000E+00  0.15010045932E+04  0.15010045932E+04  0.00000000000E+00 0. -1.
         -1   -1    0    0    0  501 -0.00000000000E+00 -0.00000000000E+00 -0.22482308258E+02  0.22482308258E+02  0.00000000000E+00 0.  1.
          5    1    1    2  502    0 -0.67649474304E+02 -0.16357652844E+02  0.23226081040E+03  0.24250068171E+03  0.41800000000E+01 0. -1.
         -5    1    1    2    0  502 -0.21027516810E+02 -0.61390607328E+02  0.93911026522E+03  0.94135887193E+03  0.41800000000E+01 0. -1.
        -11    1    1    2    0    0  0.51749042768E+02  0.49296820719E+02  0.78043114333E+02  0.10582470248E+03  0.00000000000E+00 0.  1.
         11    1    1    2    0    0  0.36927948347E+02  0.28451439454E+02  0.22910809501E+03  0.23380264535E+03  0.00000000000E+00 0. -1.
</event>
<event>
 7    1  0.2873461E-009  0.1235801E+03  0.7561462E-02  0.1237305E+00
          1   -1    0    0  501    0  0.00000000000E+00  0.00000000000E+00  0.31249195057E+03  0.31249195057E+03  0.00000000000E+00 0. -1.
         -1   -1    0    0    0  501 -0.00000000000E+00 -0.00000000000E+00 -0.79386568609E+02  0.79386568609E+02  0.00000000000E+00 0.  1.
         25    2    1    2    0    0 -0.10305528150E+03 -0.43947837074E+02  0.14940768115E+03  0.22477059760E+03  0.12508941973E+03 0.  0.
          5    1    3    3  502    0 -0.79218893954E+02 -0.35101426006E+02  0.17061317182E+03  0.19140028753E+03  0.41800000000E+01 0.  1.
         -5    1    3    3    0  502 -0.23836387551E+02 -0.88464110681E+01 -0.21205490665E+02  0.33370310076E+02  0.41800000000E+01 0.  1.
        -11    1    1    2    0    0  0.82012698355E+02 -0.41797774994E+01  0.19950391177E+02  0.84507818216E+02  0.00000000000E+00 0.  1.
         11    1    1    2    0    0  0.21042583149E+02  0.48127614574E+02  0.63747309632E+02  0.82600103362E+02  0.00000000000E+00 0. -1.
</event>
<event>
 7    1  0.2873461E-009  0.4999457E+02  0.7561462E-02  0.1445371E+00
         -2   -1    0    0    0  501 -0.00000000000E+00  0.00000000000E+00  0.68831905803E+02  0.68831905803E+02  0.00000000000E+00 0.  1.
          2   -1    0    0  501    0  0.00000000000E+00 -0.00000000000E+00 -0.16498971841E+03  0.16498971841E+03  0.00000000000E+00 0. -1.
         25    2    1    2    0    0  0.36203503907E+01  0.12939588714E+02 -0.74674748770E+02  0.14630044023E+03  0.12508781241E+03 0.  0.
          5    1    3    3  502    0  0.84433817787E+01  0.25921675448E+02  0.29930004673E+02  0.40700141691E+02  0.41800000000E+01 0.  1.
         -5    1    3    3    0  502 -0.48230313880E+01 -0.12982086734E+02 -0.10460475344E+03  0.10560029854E+03  0.41800000000E+01 0.  1.
        -11    1    1    2    0    0  0.25181596512E+02  0.24255607159E+01  0.21739950995E+02  0.33355983225E+02  0.00000000000E+00 0.  1.
         11    1    1    2    0    0 -0.28801946903E+02 -0.15365149430E+02 -0.43223014830E+02  0.54165200760E+02  0.00000000000E+00 0. -1.
</event>
<event>
 7    1  0.2873461E-009  0.1582329E+03  0.7561462E-02  0.1190706E+00
         -1   -1    0    0    0  501 -0.00000000000E+00  0.00000000000E+00  0.13416594951E+03  0.13416594951E+03  0.00000000000E+00 0.  1.
          1   -1    0    0  501    0  0.00000000000E+00 -0.00000000000E+00 -0.21162835314E+03  0.21162835314E+03  0.00000000000E+00 0. -1.
         25    2    1    2    0    0  0.11173847572E+03 -0.56652937564E+02 -0.71707381834E+02  0.19100680105E+03  0.12508639872E+03 0.  0.
          5    1    3    3  502    0  0.13500702435E+03 -0.61868292604E+02 -0.75253998205E+02  0.16653894109E+03  0.41800000000E+01 0. -1.
         -5    1    3    3    0  502 -0.23268548625E+02  0.52153550398E+01  0.35466163716E+01  0.24467859959E+02  0.41800000000E+01 0. -1.
        -11    1    1    2    0    0  0.76010625485E+01  0.15831177292E+02  0.19407753503E+02  0.26173712430E+02  0.00000000000E+00 0.  1.
         11    1    1    2    0    0 -0.11933953827E+03  0.40821760271E+02 -0.25162775303E+02  0.12861378918E+03  0.00000000000E+00 0. -1.
</event>
<event>
 7    1  0.2873461E-009  0.1006663E+03  0.7561462E-02  0.1278901E+00
         -2   -1    0    0    0  501 -0.00000000000E+00  0.00000000000E+00  0.98207249326E+02  0.98207249326E+02  0.00000000000E+00 0.  1.
          2   -1    0    0  501    0  0.00000000000E+00 -0.00000000000E+00 -0.16422682253E+03  0.16422682253E+03  0.00000000000E+00 0. -1.
         25    2    1    2    0    0  0.63611362267E+01  0.31950043290E+02 -0.96839617607E+02  0.16151359975E+03  0.12508981591E+03 0.  0.
          5    1    3    3  502    0  0.62713789824E+02  0.20966758401E+01 -0.32347139247E+02  0.70719341776E+02  0.41800000000E+01 0. -1.
         -5    1    3    3    0  502 -0.56352653598E+02  0.29853367450E+02 -0.64492478360E+02  0.90794257972E+02  0.41800000000E+01 0. -1.
        -11    1    1    2    0    0  0.22112671848E+02 -0.39331132557E+02  0.48786032243E+02  0.66452879445E+02  0.00000000000E+00 0.  1.
         11    1    1    2    0    0 -0.28473808075E+02  0.73810892672E+01 -0.17965987845E+02  0.34467592667E+02  0.00000000000E+00 0. -1.
</event>
<event>
 7    1  0.2873461E-009  0.1712007E+03  0.7561462E-02  0.1176601E+00
         -2   -1    0    0    0  501 -0.00000000000E+00  0.00000000000E+00  0.40321333677E+02  0.40321333677E+02  0.00000000000E+00 0.  1.
          2   -1    0    0  501    0  0.00000000000E+00 -0.00000000000E+00 -0.77879799650E+03  0.77879799650E+03  0.00000000000E+00 0. -1.
         25    2    1    2    0    0 -0.82871880856E+01  0.13456279533E+03 -0.48185624473E+03  0.51576028480E+03  0.12508959754E+03 0.  0.
          5    1    3    3  502    0 -0.29983611004E+02  0.15075371375E+03 -0.43630545271E+03  0.46260741413E+03  0.41800000000E+01 0. -1.
         -5    1    3    3    0  502  0.21696422919E+02 -0.16190918423E+02 -0.45550792023E+02  0.53152870673E+02  0.41800000000E+01 0. -1.
        -11    1    1    2    0    0  0.28274115451E+02 -0.32958077311E+01 -0.36435601249E+02  0.46236792617E+02  0.00000000000E+00 0.  1.
         11    1    1    2    0    0 -0.19986927366E+02 -0.13126698760E+03 -0.22018481684E+03  0.25712225276E+03  0.00000000000E+00 0. -1.
</event>
<event>
 7    1  0.2873461E-009  0.8247426E+02  0.7561462E-02  0.1322173E+00
         -1   -1    0    0    0  501 -0.00000000000E+00  0.00000000000E+00  0.16306102274E+02  0.16306102274E+02  0.00000000000E+00 0. -1.
          1   -1    0    0  501    0  0.00000000000E+00 -0.00000000000E+00 -0.90667805836E+03  0.90667805836E+03  0.00000000000E+00 0.  1.
         25    2    1    2    0    0 -0.11332041436E+02 -0.16668761718E+02 -0.72953913933E+03  0.74045969271E+03  0.12508772093E+03 0.  0.
          5    1    3    3  502    0 -0.21108752884E+02  0.34018055886E+02 -0.59400987721E+03  0.59537216445E+03  0.41800000000E+01 0. -1.
         -5    1    3    3    0  502  0.97767114479E+01 -0.50686817604E+02 -0.13552926212E+03  0.14508752826E+03  0.41800000000E+01 0. -1.
        -11    1    1    2    0    0  0.37779495453E+02 -0.57755043341E+01 -0.34400824859E+02  0.51420457777E+02  0.00000000000E+00 0. -1.
         11    1    1    2    0    0 -0.26447454018E+02  0.22444266052E+02 -0.12643199190E+03  0.13110401015E+03  0.00000000000E+00 0.  1.
</event>
<event>
 7    1  0.2873461E-009  0.1169611E+03  0.7561462E-02  0.1248196E+00
          3   -1    0    0  501    0  0.00000000000E+00  0.00000000000E+00  0.42331750058E+02  0.42331750058E+02  0.00000000000E+00 0. -1.
         -3   -1    0    0    0  501 -0.00000000000E+00 -0.00000000000E+00 -0.34658362481E+03  0.34658362481E+03  0.00000000000E+00 0.  1.
         25    2    1    2    0    0  0.50169953410E+02 -0.95241152502E+01 -0.20197065265E+03  0.24299736260E+03  0.12509132943E+03 0.  0.
          5    1    3    3  502    0  0.91399340479E+02 -0.57330113228E+01 -0.15638185102E+03  0.18127179203E+03  0.41800000000E+01 0.  1.
         -5    1    3    3    0  502 -0.41229387068E+02 -0.37911039274E+01 -0.45588801638E+02  0.61725570567E+02  0.41800000000E+01 0.  1.
        -11    1    1    2    0    0 -0.54674830133E+02 -0.28971167748E+02 -0.43997604767E+02  0.75924006980E+02  0.00000000000E+00 0. -1.
         11    1    1    2    0    0  0.45048767225E+01  0.38495282998E+02 -0.58283617331E+02  0.69994005291E+02  0.00000000000E+00 0.  1.
</event>
<event>
 7    1  0.2873461E-009  0.1448901E+03  0.7561462E-02  0.1206896E+00
         -2   -1    0    0    0  501 -0.00000000000E+00  0.00000000000E+00  0.60777979531E+02  0.60777979531E+02  0.00000000000E+00 0. -1.
          2   -1    0    0  501    0  0.00000000000E+00 -0.00000000000E+00 -0.47674741447E+03  0.47674741447E+03  0.00000000000E+00 0.  1.
         25    2    1    2    0    0 -0.12777928599E+03  0.90989133635E+01 -0.26215997163E+03  0.31746773175E+03  0.12509026270E+03 0.  0.
          5    1    3    3  502    0 -0.12255086421E+03 -0.41201131082E+01 -0.27287055778E+03  0.29918473115E+03  0.41800000000E+01 0. -1.
         -5    1    3    3    0  502 -0.52284217884E+01  0.13219026472E+02  0.10710586148E+02  0.18283000599E+02  0.41800000000E+01 0. -1.
        -11    1    1    2    0    0  0.10908451051E+03  0.26326068373E+02 -0.13573025221E+03  0.17611131047E+03  0.00000000000E+00 0.  1.
         11    1    1    2    0    0  0.18694775480E+02 -0.35424981736E+02 -0.18079211097E+02  0.43946351785E+02  0.00000000000E+00 0. -1.
</event>
<event>
 7    1  0.2873461E-009  0.1639544E+03  0.7561462E-02  0.1184303E+00
         -3   -1    0    0    0  501 -0.00000000000E+00  0.00000000000E+00  0.22145205734E+03  0.22145205734E+03  0.00000000000E+00 0.  1.
          3   -1    0    0  501    0  0.00000000000E+00 -0.00000000000E+00 -0.14697160882E+03  0.14697160882E+03  0.00000000000E+00 0. -1.
         25    2    1    2    0    0 -0.81502199905E+02 -0.10694006740E+03  0.91741757219E+02  0.20527933225E+03  0.12507704676E+03 0.  0.
          5    1    3    3  502    0 -0.24509762437E+02 -0.12199816360E+03  0.64110046075E+02  0.14004231783E+03  0.41800000000E+01 0.  1.
         -5    1    3    3    0  502 -0.56992437468E+02  0.15058096197E+02  0.27631711145E+02  0.65237014420E+02  0.41800000000E+01 0.  1.
        -11    1    1    2    0    0  0.62427057433E+02  0.38697283744E+02  0.28511043602E+02  0.78787669569E+02  0.00000000000E+00 0. -1.
         11    1    1    2    0    0  0.19075142473E+02  0.68242783660E+02 -0.45772352309E+02  0.84356664336E+02  0.00000000000E+00 0.  1.
</event>
<event>
 7    1  0.2873461E-009  0.1158133E+03  0.7561462E-02  0.1250168E+00
         -2   -1    0    0    0  501 -0.00000000000E+00  0.00000000000E+00  0.70294275367E+02  0.70294275367E+02  0.00000000000E+00 0.  1.
          2   -1    0    0  501    0  0.00000000000E+00 -0.00000000000E+00 -0.50580184286E+03  0.50580184286E+03  0.00000000000E+00 0. -1.
         25    2    1    2    0    0  0.70062392874E+02  0.35243371444E+02 -0.43145487251E+03  0.45601989919E+03  0.12509998928E+03 0.  0.
          5    1    3    3  502    0  0.85642964077E+02 -0.55637220243E+01 -0.37389820236E+03  0.38364438016E+03  0.41800000000E+01 0.  1.
         -5    1    3    3    0  502 -0.15580571203E+02  0.40807093469E+02 -0.57556670147E+02  0.72375519030E+02  0.41800000000E+01 0.  1.
        -11    1    1    2    0    0 -0.82363434680E+02 -0.25787319602E+02 -0.28699283898E+02  0.90952570722E+02  0.00000000000E+00 0.  1.
         11    1    1    2    0    0  0.12301041806E+02 -0.94560518427E+01  0.24646588916E+02  0.29123648315E+02  0.00000000000E+00 0. -1.
</event>
<event>
 7    1  0.2873461E-009  0.1378267E+03  0.7561462E-02  0.1216284E+00
         -2   -1    0    0    0  501 -0.00000000000E+00  0.00000000000E+00  0.29259394373E+03  0.29259394373E+03  0.00000000000E+00 0. -1.
          2   -1    0    0  501    0  0.00000000000E+00 -0.00000000000E+00 -0.86175255916E+02  0.86175255916E+02  0.00000000000E+00 0.  1.
         25    2    1    2    0    0  0.10756749924E+03 -0.41902433136E+02  0.98044480863E+02  0.19643396755E+03  0.12508797937E+03 0.  0.
          5    1    3    3  502    0 -0.18626803947E+02  0.28260496069E+01  0.50887403967E+02  0.54423750920E+02  0.41800000000E+01 0.  1.
         -5    1    3    3    0  502  0.12619430319E+03 -0.44728482743E+02  0.47157076895E+02  0.14201021663E+03  0.41800000000E+01 0.  1.
        -11    1    1    2    0    0 -0.19780188523E+02  0.26827397260E+02  0.83421570386E+02  0.89833866150E+02  0.00000000000E+00 0.  1.
         11    1    1    2    0    0 -0.87787310720E+02  0.15075035877E+02  0.24952636564E+02  0.92501365944E+02  0.00000000000E+00 0. -1.
</event>
<event>
 7    1  0.2873461E-009  0.8216525E+02  0.7561462E-02  0.1323017E+00
         -2   -1    0    0    0  501 -0.00000000000E+00  0.00000000000E+00  0.31781992927E+02  0.31781992927E+02  0.00000000000E+00 0. -1.
          2   -1    0    0  501    0  0.00000000000E+00 -0.00000000000E+00 -0.42812982616E+03  0.42812982616E+03  0.00000000000E+00 0.  1.
         25    2    1    2    0    0 -0.39127432757E+02  0.54683703356E+01 -0.22788029437E+03  0.26293934891E+03  0.12508722387E+03 0.  0.
          5    1    3    3  502    0 -0.40789826398E+02 -0.13934773914E+02 -0.10385535083E+02  0.44534476538E+02  0.41800000000E+01 0.  1.
         -5    1    3    3    0  502  0.16623936405E+01  0.19403144249E+02 -0.21749475928E+03  0.21840487237E+03  0.41800000000E+01 0.  1.
        -11    1    1    2    0    0  0.56673973793E+02  0.28077961825E+02 -0.91961023058E+02  0.11161156305E+03  0.00000000000E+00 0. -1.
         11    1    1    2    0    0 -0.17546541035E+02 -0.33546332161E+02 -0.76506515803E+02  0.85360907119E+02  0.00000000000E+00 0.  1.
</event>
<event>
 7    1  0.2873461E-009  0.3499223E+03  0.7561462E-02  0.1062647E+00
          1   -1    0    0  501    0  0.00000000000E+00  0.00000000000E+00  0.13631052996E+04  0.13631052996E+04  0.00000000000E+00 0. -1.
         -1   -1    0    0    0  501 -0.00000000000E+00 -0.00000000000E+00 -0.98638392423E+02  0.98638392423E+02  0.00000000000E+00 0.  1.
         25    2    1    2    0    0  0.18501960983E+03  0.29081189031E+03  0.51899644578E+03  0.63545897520E+03  0.12508791655E+03 0.  0.
          5    1    3    3  502    0  0.10072366196E+03  0.22172309057E+03  0.43204411171E+03  0.49596972874E+03  0.41800000000E+01 0.  1.
         -5    1    3    3    0  502  0.84295947868E+02  0.69088799742E+02  0.86952334072E+02  0.13948924646E+03  0.41800000000E+01 0.  1.
        -11    1    1    2    0    0 -0.74233798563E+02 -0.15564382338E+03  0.27714767212E+03  0.32641459644E+03  0.00000000000E+00 0.  1.
         11    1    1    2    0    0 -0.11078581127E+03 -0.13516806694E+03  0.46832278931E+03  0.49987012042E+03  0.00000000000E+00 0. -1.
</event>
<event>
 7    1  0.2873461E-009  0.8195874E+02  0.7561462E-02  0.1323583E+00
          1   -1    0    0  501    0  0.00000000000E+00  0.00000000000E+00  0.28645047211E+03  0.28645047211E+03  0.00000000000E+00 0. -1.
         -1   -1    0    0    0  501 -0.00000000000E+00 -0.00000000000E+00 -0.59792413274E+02  0.59792413274E+02  0.00000000000E+00 0.  1.
         25    2    1    2    0    0  0.19832119305E+02 -0.21965255760E+02  0.21326881011E+03  0.24901348106E+03  0.12509333702E+03 0.  0.
          5    1    3    3  502    0  0.28993868281E+01  0.40853939978E+02  0.15882737832E+03  0.16407638270E+03  0.41800000000E+01 0. -1.
         -5    1    3    3    0  502  0.16932732477E+02 -0.62819195738E+02  0.54441431789E+02  0.84937098358E+02  0.41800000000E+01 0. -1.
        -11    1    1    2    0    0 -0.19952863466E+02 -0.12200031651E+02 -0.32486538437E+02  0.40029148285E+02  0.00000000000E+00 0.  1.
         11    1    1    2    0    0  0.12074416063E+00  0.34165287411E+02  0.45875787163E+02  0.57200256039E+02  0.00000000000E+00 0. -1.
</event>
<event>
 7    1  0.2873461E-009  0.1094943E+03  0.7561462E-02  0.1261509E+00
         -2   -1    0    0    0  501 -0.00000000000E+00  0.00000000000E+00  0.28076950894E+03  0.28076950894E+03  0.00000000000E+00 0.  1.
          2   -1    0    0  501    0  0.00000000000E+00 -0.00000000000E+00 -0.70888006359E+02  0.70888006359E+02  0.00000000000E+00 0. -1.
         25    2    1    2    0    0  0.30613746576E+02 -0.67198430125E+02  0.51088224913E+02  0.15398105752E+03  0.12508928355E+03 0.  0.
          5    1    3    3  502    0  0.65452550724E+02  0.36676855577E+01  0.16885142430E+02  0.67823806651E+02  0.41800000000E+01 0.  1.
         -5    1    3    3    0  502 -0.34838804148E+02 -0.70866115682E+02  0.34203082483E+02  0.86157250871E+02  0.41800000000E+01 0.  1.
        -11    1    1    2    0    0 -0.16326740216E+02  0.44520264913E+02  0.16369820374E+03  0.17042804447E+03  0.00000000000E+00 0.  1.
         11    1    1    2    0    0 -0.14287006360E+02  0.22678165212E+02 -0.49049260705E+01  0.27248413309E+02  0.00000000000E+00 0. -1.
</event>
<event>
 7    1  0.2873461E-009  0.1060970E+03  0.7561462E-02  0.1267973E+00
          1   -1    0    0  501    0  0.00000000000E+00  0.00000000000E+00  0.93022294659E+02  0.93022294659E+02  0.00000000000E+00 0. -1.
         -1   -1    0    0    0  501 -0.00000000000E+00 -0.00000000000E+00 -0.14134378167E+03  0.14134378167E+03  0.00000000000E+00 0.  1.
         25    2    1    2    0    0 -0.23431698086E+02 -0.29355517260E+02 -0.36072499130E+02  0.13550013217E+03  0.12509304440E+03 0.  0.
          5    1    3    3  502    0  0.19299584440E+02  0.34684013996E+02 -0.42289658118E+02  0.58149311004E+02  0.41800000000E+01 0.  1.
         -5    1    3    3    0  502 -0.42731282527E+02 -0.64039531256E+02  0.62171589878E+01  0.77350821171E+02  0.41800000000E+01 0.  1.
        -11    1    1    2    0    0 -0.33468804022E+02  0.80476813911E+01  0.70062950559E+01  0.35128538097E+02  0.00000000000E+00 0. -1.
         11    1    1    2    0    0  0.56900502108E+02  0.21307835869E+02 -0.19255282932E+02  0.63737406053E+02  0.00000000000E+00 0.  1.
</event>
<event>
 7    1  0.2873461E-009  0.9814837E+02  0.7561462E-02  0.1284239E+00
          1   -1    0    0  501    0  0.00000000000E+00  0.00000000000E+00  0.33029863924E+02  0.33029863924E+02  0.00000000000E+00 0. -1.
         -1   -1    0    0    0  501 -0.00000000000E+00 -0.00000000000E+00 -0.85510209768E+03  0.85510209768E+03  0.00000000000E+00 0.  1.
         25    2    1    2    0    0  0.35251748761E+01 -0.36224051649E+02 -0.76228903734E+03  0.77334144624E+03  0.12509119573E+03 0.  0.
          5    1    3    3  502    0 -0.45640786208E+02 -0.59395148875E+02 -0.40008088532E+03  0.40705411467E+03  0.41800000000E+01 0.  1.
         -5    1    3    3    0  502  0.49165961084E+02  0.23171097226E+02 -0.36220815202E+03  0.36628733157E+03  0.41800000000E+01 0.  1.
        -11    1    1    2    0    0  0.22295411629E+02  0.22800151389E-01 -0.66209360403E+02  0.69862474223E+02  0.00000000000E+00 0.  1.
         11    1    1    2    0    0 -0.25820586505E+02  0.36201251498E+02  0.64261639834E+01  0.44928041144E+02  0.00000000000E+00 0. -1.
</event>
<event>
 7    1  0.2873461E-009  0.1428981E+03  0.7561462E-02  0.1209482E+00
          2   -1    0    0  501    0  0.00000000000E+00  0.00000000000E+00  0.24594571698E+03  0.24594571698E+03  0.00000000000E+00 0. -1.
         -2   -1    0    0    0  501 -0.00000000000E+00 -0.00000000000E+00 -0.90534517159E+02  0.90534517159E+02  0.00000000000E+00 0.  1.
         25    2    1    2    0    0 -0.32262812816E+02 -0.97572830395E+02  0.83675028021E+02  0.18224982220E+03  0.12510851711E+03 0.  0.
          5    1    3    3  502    0 -0.61571265638E+02 -0.10581418972E+03  0.40027887973E+02  0.12886957637E+03  0.41800000000E+01 0. -1.
         -5    1    3    3    0  502  0.29308452821E+02  0.82413593215E+01  0.43647140048E+02  0.53380245827E+02  0.41800000000E+01 0. -1.
        -11    1    1    2    0    0 -0.11282959632E+02 -0.10896871016E+02 -0.23258606252E+01  0.15857383253E+02  0.00000000000E+00 0.  1.
         11    1    1    2    0    0  0.43545772448E+02  0.10846970141E+03  0.74062032430E+02  0.13837302869E+03  0.00000000000E+00 0. -1.
</event>
<event>
 7    1  0.2873461E-009  0.1089764E+03  0.7561462E-02  0.1262477E+00
          1   -1    0    0  501    0  0.00000000000E+00  0.00000000000E+00  0.13787132723E+03  0.13787132723E+03  0.00000000000E+00 0. -1.
         -1   -1    0    0    0  501 -0.00000000000E+00 -0.00000000000E+00 -0.11339036391E+03  0.11339036391E+03  0.00000000000E+00 0.  1.
         25    2    1    2    0    0 -0.55643054756E+02 -0.10721446339E+02  0.47243302893E+02  0.14522340481E+03  0.12508720431E+03 0.  0.
          5    1    3    3  502    0 -0.48242277291E+02  0.40662473690E+02 -0.14067387081E+02  0.64777448731E+02  0.41800000000E+01 0.  1.
         -5    1    3    3    0  502 -0.74007774648E+01 -0.51383920029E+02  0.61310689974E+02  0.80445956081E+02  0.41800000000E+01 0.  1.
        -11    1    1    2    0    0  0.15649779321E+02  0.46447088168E+02 -0.38066488059E+01  0.49160331235E+02  0.00000000000E+00 0.  1.
         11    1    1    2    0    0  0.39993275435E+02 -0.35725641828E+02 -0.18955690767E+02  0.56877955101E+02  0.00000000000E+00 0. -1.
</event>
<event>
 7    1  0.2873461E-009  0.2084792E+03  0.7561462E-02  0.1142776E+00
          2   -1    0    0  501    0  0.00000000000E+00  0.00000000000E+00  0.71905781070E+03  0.71905781070E+03  0.00000000000E+00 0. -1.
         -2   -1    0    0    0  501 -0.00000000000E+00 -0.00000000000E+00 -0.65126919704E+02  0.65126919704E+02  0.00000000000E+00 0.  1.
         25    2    1    2    0    0 -0.18704955852E+03 -0.92994610708E+01  0.35212140075E+03  0.41798327566E+03  0.12508605256E+03 0.  0.
          5    1    3    3  502    0 -0.63481995567E+02 -0.58312720922E+02  0.18705235737E+03  0.20600095626E+03  0.41800000000E+01 0. -1.
         -5    1    3    3    0  502 -0.12356756295E+03  0.49013259851E+02  0.16506904339E+03  0.21198231940E+03  0.41800000000E+01 0. -1.
        -11    1    1    2    0    0  0.92959379737E+02  0.36262043344E+02  0.20767722150E+03  0.23040444960E+03  0.00000000000E+00 0. -1.
         11    1    1    2    0    0  0.94090178780E+02 -0.26962582273E+02  0.94132268748E+02  0.13579700514E+03  0.00000000000E+00 0.  1.
</event>
<event>
 7    1  0.2873461E-009  0.8950775E+02  0.7561462E-02  0.1304048E+00
         -1   -1    0    0    0  501 -0.00000000000E+00  0.00000000000E+00  0.49426943611E+03  0.49426943611E+03  0.00000000000E+00 0.  1.
          1   -1    0    0  501    0  0.00000000000E+00 -0.00000000000E+00 -0.38966546468E+02  0.38966546468E+02  0.00000000000E+00 0. -1.
         25    2    1    2    0    0  0.50644320420E+02 -0.69489304566E+02  0.22229847893E+03  0.26917972406E+03  0.12508996551E+03 0.  0.
          5    1    3    3  502    0  0.48204330179E+02 -0.62409491565E+02  0.23828969134E+03  0.25103396480E+03  0.41800000000E+01 0.  1.
         -5    1    3    3    0  502  0.24399902412E+01 -0.70798130018E+01 -0.15991212415E+02  0.18145759257E+02  0.41800000000E+01 0.  1.
        -11    1    1    2    0    0 -0.17382797418E+02  0.49964320605E+02  0.21514435069E+03  0.22155289800E+03  0.00000000000E+00 0.  1.
         11    1    1    2    0    0 -0.33261523002E+02  0.19524983962E+02  0.17860060030E+02  0.42503360519E+02  0.00000000000E+00 0. -1.
</event>
<event>
 7    1  0.2873461E-009  0.9117839E+02  0.7561462E-02  0.1300023E+00
          2   -1    0    0  501    0  0.00000000000E+00  0.00000000000E+00  0.52897730894E+03  0.52897730894E+03  0.00000000000E+00 0. -1.
         -2   -1    0    0    0  501 -0.00000000000E+00 -0.00000000000E+00 -0.36242123973E+02  0.36242123973E+02  0.00000000000E+00 0.  1.
         25    2    1    2    0    0 -0.12123063080E+02 -0.80793430495E+02  0.22439591942E+03  0.26958305333E+03  0.12508775686E+03 0.  0.
          5    1    3    3  502    0 -0.74609188187E+01  0.79336741047E+00 -0.14615754680E+02  0.16952505016E+02  0.41800000000E+01 0.  1.
         -5    1    3    3    0  502 -0.46621442611E+01 -0.81586797906E+02  0.23901167410E+03  0.25263054831E+03  0.41800000000E+01 0.  1.
        -11    1    1    2    0    0 -0.15787527295E+02  0.33322177774E+02  0.21777643043E+03  0.22087595433E+03  0.00000000000E+00 0. -1.
         11    1    1    2    0    0  0.27910590375E+02  0.47471252721E+02  0.50562835108E+02  0.74760425253E+02  0.00000000000E+00 0.  1.
</event>
<event>
 7    1  0.2873461E-009  0.1348248E+03  0.7561462E-02  0.1220467E+00
          2   -1    0    0  501    0  0.00000000000E+00  0.00000000000E+00  0.50839300609E+03  0.50839300609E+03  0.00000000000E+00 0. -1.
         -2   -1    0    0    0  501 -0.00000000000E+00 -0.00000000000E+00 -0.48219092924E+02  0.48219092924E+02  0.00000000000E+00 0.  1.
         25    2    1    2    0    0  0.58811910741E+02 -0.94920869664E+02  0.27249135897E+03  0.31994785791E+03  0.12508508593E+03 0.  0.
          5    1    3    3  502    0  0.73014597826E+02 -0.66401035954E+02  0.86806632989E+02  0.13150320529E+03  0.41800000000E+01 0. -1.
         -5    1    3    3    0  502 -0.14202687085E+02 -0.28519833710E+02  0.18568472598E+03  0.18844465261E+03  0.41800000000E+01 0. -1.
        -11    1    1    2    0    0 -0.79613001455E+02  0.81770776811E+02  0.17514198896E+03  0.20904402942E+03  0.00000000000E+00 0. -1.
         11    1    1    2    0    0  0.20801090714E+02  0.13150092853E+02  0.12540565233E+02  0.27620211681E+02  0.00000000000E+00 0.  1.
</event>
<event>
 7    1  0.2873461E-009  0.1063760E+03  0.7561462E-02  0.1267432E+00
          2   -1    0    0  501    0  0.00000000000E+00  0.00000000000E+00  0.28826962731E+03  0.28826962731E+03  0.00000000000E+00 0. -1.
         -2   -1    0    0    0  501 -0.00000000000E+00 -0.00000000000E+00 -0.59686011000E+02  0.59686011000E+02  0.00000000000E+00 0.  1.
         25    2    1    2    0    0  0.40837350793E+02 -0.31919547019E+01  0.43242619438E+02  0.13854769704E+03  0.12509061685E+03 0.  0.
          5    1    3    3  502    0 -0.28728534045E+02 -0.37226856546E+02  0.38372968716E+02  0.60836869124E+02  0.41800000000E+01 0.  1.
         -5    1    3    3    0  502  0.69565884838E+02  0.34034901844E+02  0.48696507215E+01  0.77710827914E+02  0.41800000000E+01 0.  1.
        -11    1    1    2    0    0 -0.91157173468E+00  0.36182001069E+02  0.34811250311E+02  0.50217440324E+02  0.00000000000E+00 0.  1.
         11    1    1    2    0    0 -0.39925779058E+02 -0.32990046367E+02  0.15052974656E+03  0.15919050095E+03  0.00000000000E+00 0. -1.
</event>
<event>
 7    1  0.3392557E-009  0.1611115E+03  0.7561462E-02  0.1187448E+00
          1   -1    0    0  501    0  0.00000000000E+00  0.00000000000E+00  0.14489405577E+04  0.14489405577E+04  0.00000000000E+00 0. -1.
         -1   -1    0    0    0  501 -0.00000000000E+00 -0.00000000000E+00 -0.21415826408E+02  0.21415826408E+02  0.00000000000E+00 0.  1.
         25    2    1    2    0    0 -0.10806258652E+02 -0.13352329713E+03  0.90107258274E+03  0.91952417191E+03  0.12509059626E+03 0.  0.
          5    1    3    3  502    0 -0.22705108747E+02  0.19137169427E+02  0.16001399178E+03  0.16279957980E+03  0.41800000000E+01 0.  1.
         -5    1    3    3    0  502  0.11898850095E+02 -0.15266046656E+03  0.74105859096E+03  0.75672459212E+03  0.41800000000E+01 0.  1.
        -11    1    1    2    0    0  0.15920258811E+02  0.20689086188E+02  0.22768658169E+02  0.34639640915E+02  0.00000000000E+00 0.  1.
         11    1    1    2    0    0 -0.51140001594E+01  0.11283421094E+03  0.50368349042E+03  0.51619257131E+03  0.00000000000E+00 0. -1.
</event>
<event>
 7    1  0.2873461E-009  0.1421558E+03  0.7561462E-02  0.1210457E+00
         -1   -1    0    0    0  501 -0.00000000000E+00  0.00000000000E+00  0.26054575765E+02  0.26054575765E+02  0.00000000000E+00 0.  1.
          1   -1    0    0  501    0  0.00000000000E+00 -0.00000000000E+00 -0.91680600805E+03  0.91680600805E+03  0.00000000000E+00 0. -1.
         25    2    1    2    0    0  0.95629537147E+02 -0.21519682867E+02 -0.63065849970E+03  0.65037257415E+03  0.12508491853E+03 0.  0.
          5    1    3    3  502    0  0.24713605165E+02 -0.66533565727E+02 -0.22043796813E+03  0.23162005061E+03  0.41800000000E+01 0. -1.
         -5    1    3    3    0  502  0.70915931981E+02  0.45013882860E+02 -0.41022053156E+03  0.41875252354E+03  0.41800000000E+01 0. -1.
        -11    1    1    2    0    0 -0.85525242775E+02 -0.18783048477E+02 -0.20921141148E+03  0.22679679176E+03  0.00000000000E+00 0. -1.
         11    1    1    2    0    0 -0.10104294372E+02  0.40302731344E+02 -0.50881521113E+02  0.65691217901E+02  0.00000000000E+00 0.  1.
</event>
<event>
 7    1  0.2873461E-009  0.1083931E+03  0.7561462E-02  0.1263575E+00
         -1   -1    0    0    0  501 -0.00000000000E+00  0.00000000000E+00  0.28014300119E+02  0.28014300119E+02  0.00000000000E+00 0.  1.
          1   -1    0    0  501    0  0.00000000000E+00 -0.00000000000E+00 -0.69717272701E+03  0.69717272701E+03  0.00000000000E+00 0. -1.
         25    2    1    2    0    0  0.35009982346E+02  0.78860306811E+02 -0.41700232955E+03  0.44383404754E+03  0.12511223785E+03 0.  0.
          5    1    3    3  502    0  0.40279121162E+02  0.65183740844E+02 -0.98010550027E+02  0.12447838362E+03  0.41800000000E+01 0.  1.
         -5    1    3    3    0  502 -0.52691388163E+01  0.13676565967E+02 -0.31899177952E+03  0.31935566393E+03  0.41800000000E+01 0.  1.
        -11    1    1    2    0    0 -0.52791212677E+02 -0.10054015767E+02 -0.10828436811E+03  0.12088630918E+03  0.00000000000E+00 0.  1.
         11    1    1    2    0    0  0.17781230331E+02 -0.68806291043E+02 -0.14387172924E+03  0.16046667041E+03  0.00000000000E+00 0. -1.
</event>
<event>
 7    1  0.2873461E-009  0.1979612E+03  0.7561462E-02  0.1151471E+00
         -2   -1    0    0    0  501 -0.00000000000E+00  0.00000000000E+00  0.95330386793E+03  0.95330386793E+03  0.00000000000E+00 0.  1.
          2   -1    0    0  501    0  0.00000000000E+00 -0.00000000000E+00 -0.48694597086E+02  0.48694597086E+02  0.00000000000E+00 0. -1.
         25    2    1    2    0    0 -0.18464791694E+03 -0.24774480310E+02  0.45382254681E+03  0.50627151491E+03  0.12508922701E+03 0.  0.
          5    1    3    3  502    0 -0.86639346595E+02  0.63372300122E+01  0.78717094622E+02  0.11730468980E+03  0.41800000000E+01 0.  1.
         -5    1    3    3    0  502 -0.98008570348E+02 -0.31111710322E+02  0.37510545219E+03  0.38896682511E+03  0.41800000000E+01 0.  1.
        -11    1    1    2    0    0  0.10402023248E+03  0.57694102174E+02  0.27111616547E+03  0.29606214444E+03  0.00000000000E+00 0.  1.
         11    1    1    2    0    0  0.80627684466E+02 -0.32919621864E+02  0.17967055856E+03  0.19966480566E+03  0.00000000000E+00 0. -1.
</event>
<event>
 7    1  0.2873461E-009  0.1628316E+03  0.7561462E-02  0.1185537E+00
         -1   -1    0    0    0  501 -0.00000000000E+00  0.00000000000E+00  0.31110923164E+02  0.31110923164E+02  0.00000000000E+00 0.  1.
          1   -1    0    0  501    0  0.00000000000E+00 -0.00000000000E+00 -0.99412496916E+03  0.99412496916E+03  0.00000000000E+00 0. -1.
         25    2    1    2    0    0 -0.46167794931E+02  0.11296911468E+03 -0.70227779053E+03  0.72369571230E+03  0.12509157757E+03 0.  0.
          5    1    3    3  502    0 -0.33603974863E+02 -0.20927523878E+02 -0.14056988609E+03  0.14609775377E+03  0.41800000000E+01 0.  1.
         -5    1    3    3    0  502 -0.12563820068E+02  0.13389663856E+03 -0.56170790444E+03  0.57759795853E+03  0.41800000000E+01 0.  1.
        -11    1    1    2    0    0 -0.21676087886E+02 -0.64176291011E+02 -0.10978027927E+03  0.12899673961E+03  0.00000000000E+00 0.  1.
         11    1    1    2    0    0  0.67843882817E+02 -0.48792823673E+02 -0.15095597620E+03  0.17254344041E+03  0.00000000000E+00 0. -1.
</event>
<event>
 7    1  0.2873461E-009  0.1026469E+03  0.7561462E-02  0.1274826E+00
          2   -1    0    0  501    0  0.00000000000E+00  0.00000000000E+00  0.48792277327E+03  0.48792277327E+03  0.00000000000E+00 0. -1.
         -2   -1    0    0    0  501 -0.00000000000E+00 -0.00000000000E+00 -0.25214559782E+02  0.25214559782E+02  0.00000000000E+00 0.  1.
         25    2    1    2    0    0  0.15991907206E+02  0.75995511749E+01  0.26575521949E+03  0.29425690695E+03  0.12509115208E+03 0.  0.
          5    1    3    3  502    0  0.13751265853E+02 -0.57572316789E+02  0.10293773860E+03  0.11881632632E+03  0.41800000000E+01 0. -1.
         -5    1    3    3    0  502  0.22406413526E+01  0.65171867964E+02  0.16281748089E+03  0.17544058063E+03  0.41800000000E+01 0. -1.
        -11    1    1    2    0    0 -0.54517535504E+01 -0.43169118621E+02  0.45526920647E+02  0.62976145666E+02  0.00000000000E+00 0.  1.
         11    1    1    2    0    0 -0.10540153656E+02  0.35569567446E+02  0.15142607336E+03  0.15590428044E+03  0.00000000000E+00 0. -1.
</event>
<event>
 7    1  0.2873461E-009  0.1531291E+03  0.7561462E-02  0.1196680E+00
         -2   -1    0    0    0  501 -0.00000000000E+00  0.00000000000E+00  0.57710252954E+02  0.57710252954E+02  0.00000000000E+00 0. -1.
          2   -1    0    0  501    0  0.00000000000E+00 -0.00000000000E+00 -0.50499823379E+03  0.50499823379E+03  0.00000000000E+00 0.  1.
         25    2    1    2    0    0  0.97773234527E+02 -0.77564104017E+02 -0.30435013287E+03  0.35192804192E+03  0.12509415528E+03 0.  0.
          5    1    3    3  502    0  0.51214790919E+02  0.29172588190E+02 -0.12148377908E+03  0.13509173065E+03  0.41800000000E+01 0. -1.
         -5    1    3    3    0  502  0.46558443608E+02 -0.10673669221E+03 -0.18286635380E+03  0.21683631127E+03  0.41800000000E+01 0. -1.
        -11    1    1    2    0    0 -0.37524595313E+02  0.54422539805E+02 -0.15449859884E+02  0.67886716394E+02  0.00000000000E+00 0. -1.
         11    1    1    2    0    0 -0.60248639214E+02  0.23141564212E+02 -0.12748798808E+03  0.14289372844E+03  0.00000000000E+00 0.  1.
</event>
<event>
 7    1  0.2873461E-009  0.1104949E+03  0.7561462E-02  0.1259656E+00
          2   -1    0    0  501    0  0.00000000000E+00  0.00000000000E+00  0.29042090470E+03  0.29042090470E+03  0.00000000000E+00 0. -1.
         -2   -1    0    0    0  501 -0.00000000000E+00 -0.00000000000E+00 -0.56203316945E+02  0.56203316945E+02  0.00000000000E+00 0.  1.
         25    2    1    2    0    0 -0.37715685211E+02 -0.46732685000E+02  0.87426609847E+02  0.16400363953E+03  0.12508942766E+03 0.  0.
          5    1    3    3  502    0 -0.62945822356E+02 -0.13588744341E+01  0.10132365079E+01  0.63107227320E+02  0.41800000000E+01 0.  1.
         -5    1    3    3    0  502  0.25230137144E+02 -0.45373810566E+02  0.86413373339E+02  0.10089641221E+03  0.41800000000E+01 0.  1.
        -11    1    1    2    0    0  0.52571223167E+02 -0.42119312354E+01  0.52460308079E+02  0.74387887413E+02  0.00000000000E+00 0.  1.
         11    1    1    2    0    0 -0.14855537956E+02  0.50944616236E+02  0.94330669826E+02  0.10823269470E+03  0.00000000000E+00 0. -1.
</event>
<event>
 7    1  0.2873461E-009  0.1004411E+03  0.7561462E-02  0.1279371E+00
          2   -1    0    0  501    0  0.00000000000E+00  0.00000000000E+00  0.34145345150E+03  0.34145345150E+03  0.00000000000E+00 0. -1.
         -2   -1    0    0    0  501 -0.00000000000E+00 -0.00000000000E+00 -0.47607018491E+02  0.47607018491E+02  0.00000000000E+00 0.  1.
         25    2    1    2    0    0  0.33570834759E+02 -0.56202359059E+02  0.18731539884E+03  0.23456581959E+03  0.12509340097E+03 0.  0.
          5    1    3    3  502    0 -0.36878159700E+02 -0.38596787347E+02  0.13423687271E+03  0.14452238945E+03  0.41800000000E+01 0. -1.
         -5    1    3    3    0  502  0.70448994460E+02 -0.17605571711E+02  0.53078526124E+02  0.90043430139E+02  0.41800000000E+01 0. -1.
        -11    1    1    2    0    0 -0.15657005161E+02  0.54385760947E+02  0.11472365064E+02  0.57745718149E+02  0.00000000000E+00 0.  1.
         11    1    1    2    0    0 -0.17913829598E+02  0.18165981122E+01  0.95058669111E+02  0.96748932256E+02  0.00000000000E+00 0. -1.
</event>
<event>
 7    1  0.2873461E-009  0.6498837E+02  0.7561462E-02  0.1378015E+00
         -1   -1    0    0    0  501 -0.00000000000E+00  0.00000000000E+00  0.13873022386E+03  0.13873022386E+03  0.00000000000E+00 0.  1.
          1   -1    0    0  501    0  0.00000000000E+00 -0.00000000000E+00 -0.90341933023E+02  0.90341933023E+02  0.00000000000E+00 0. -1.
         25    2    1    2    0    0  0.96624385156E+01 -0.20844522875E+01  0.51775350454E+02  0.13574106431E+03  0.12508893622E+03 0.  0.
          5    1    3    3  502    0  0.22033222163E+01  0.17380657961E+02 -0.38761288214E+02  0.42741686490E+02  0.41800000000E+01 0. -1.
         -5    1    3    3    0  502  0.74591162992E+01 -0.19465110249E+02  0.90536638668E+02  0.92999377817E+02  0.41800000000E+01 0. -1.
        -11    1    1    2    0    0  0.11797996484E+01 -0.43668704440E+02 -0.12495783825E+02  0.45436684387E+02  0.00000000000E+00 0. -1.
         11    1    1    2    0    0 -0.10842238164E+02  0.45753156727E+02  0.91087242044E+01  0.47894408187E+02  0.00000000000E+00 0.  1.
</event>
<event>
 7    1  0.2873461E-009  0.7062554E+02  0.7561462E-02  0.1357979E+00
          3   -1    0    0  501    0  0.00000000000E+00  0.00000000000E+00  0.18559147268E+02  0.18559147268E+02  0.00000000000E+00 0. -1.
         -3   -1    0    0    0  501 -0.00000000000E+00 -0.00000000000E+00 -0.73181147887E+03  0.73181147887E+03  0.00000000000E+00 0.  1.
         25    2    1    2    0    0 -0.42070129445E+02  0.35191059461E+01 -0.34946107374E+03  0.37356768360E+03  0.12508993673E+03 0.  0.
          5    1    3    3  502    0  0.81178357913E+01  0.14948982955E+01 -0.30844903091E+03  0.30858776879E+03  0.41800000000E+01 0. -1.
         -5    1    3    3    0  502 -0.50187965236E+02  0.20242076506E+01 -0.41012042834E+02  0.64979914809E+02  0.41800000000E+01 0. -1.
        -11    1    1    2    0    0 -0.75417536250E+01 -0.26041420487E+02 -0.39147818563E+02  0.47619169742E+02  0.00000000000E+00 0. -1.
         11    1    1    2    0    0  0.49611883070E+02  0.22522314540E+02 -0.32464343929E+03  0.32918377279E+03  0.00000000000E+00 0.  1.
</event>
<event>
 7    1  0.2873461E-009  0.1019174E+03  0.7561462E-02  0.1276315E+00
          2   -1    0    0  501    0  0.00000000000E+00  0.00000000000E+00  0.78074894409E+03  0.78074894409E+03  0.00000000000E+00 0. -1.
         -2   -1    0    0    0  501 -0.00000000000E+00 -0.00000000000E+00 -0.16281442570E+02  0.16281442570E+02  0.00000000000E+00 0.  1.
         25    2    1    2    0    0 -0.63537560289E+01  0.92714808005E+01  0.54447922206E+03  0.55877759172E+03  0.12509373758E+03 0.  0.
          5    1    3    3  502    0 -0.26805431197E+02  0.59193896338E+02  0.38240355325E+03  0.38790771898E+03  0.41800000000E+01 0.  1.
         -5    1    3    3    0  502  0.20451675168E+02 -0.49922415537E+02  0.16207566881E+03  0.17086987274E+03  0.41800000000E+01 0.  1.
        -11    1    1    2    0    0 -0.32470587136E+02  0.18035625919E+02  0.53494556139E+02  0.65125189963E+02  0.00000000000E+00 0.  1.
         11    1    1    2    0    0  0.38824343164E+02 -0.27307106720E+02  0.16649372331E+03  0.17312760497E+03  0.00000000000E+00 0. -1.
</event>
<event>
 7    1  0.2873461E-009  0.8550980E+02  0.7561462E-02  0.1314105E+00
         -3   -1    0    0    0  501 -0.00000000000E+00  0.00000000000E+00  0.26167907502E+03  0.26167907502E+03  0.00000000000E+00 0.  1.
          3   -1    0    0  501    0  0.00000000000E+00 -0.00000000000E+00 -0.32914041027E+02  0.32914041027E+02  0.00000000000E+00 0. -1.
         25    2    1    2    0    0 -0.83397060697E+01  0.12702492273E+02  0.12319599140E+03  0.17622861202E+03  0.12509343464E+03 0.  0.
          5    1    3    3  502    0 -0.33638615200E+02 -0.48041057089E+02  0.45622661198E+02  0.74420422020E+02  0.41800000000E+01 0.  1.
         -5    1    3    3    0  502  0.25298909130E+02  0.60743549362E+02  0.77573330205E+02  0.10180819000E+03  0.41800000000E+01 0.  1.
        -11    1    1    2    0    0  0.72777051607E+00 -0.28628639203E+02  0.33065144783E+02  0.43742798631E+02  0.00000000000E+00 0. -1.
         11    1    1    2    0    0  0.76119355537E+01  0.15926146930E+02  0.72503897810E+02  0.74621705399E+02  0.00000000000E+00 0.  1.
</event>
<event>
 7    1  0.2873461E-009  0.1052984E+03  0.7561462E-02  0.1269533E+00
          3   -1    0    0  501    0  0.00000000000E+00  0.00000000000E+00  0.38437958012E+03  0.38437958012E+03  0.00000000000E+00 0. -1.
         -3   -1    0    0    0  501 -0.00000000000E+00 -0.00000000000E+00 -0.53415683285E+02  0.53415683285E+02  0.00000000000E+00 0.  1.
         25    2    1    2    0    0 -0.90452471743E+01  0.46908799782E+02  0.30225697145E+03  0.33058876847E+03  0.12508958811E+03 0.  0.
          5    1    3    3  502    0  0.49732641447E+02  0.51423254414E+02  0.12952863321E+03  0.14802981437E+03  0.41800000000E+01 0. -1.
         -5    1    3    3    0  502 -0.58777888621E+02 -0.45144546323E+01  0.17272833824E+03  0.18255895410E+03  0.41800000000E+01 0. -1.
        -11    1    1    2    0    0 -0.88087561623E+01  0.13903293754E+02  0.39612950794E+02  0.42896172708E+02  0.00000000000E+00 0. -1.
         11    1    1    2    0    0  0.17854003337E+02 -0.60812093536E+02 -0.10906025409E+02  0.64310322232E+02  0.00000000000E+00 0.  1.
</event>
<event>
 7    1  0.2873461E-009  0.7577854E+02  0.7561462E-02  0.1341477E+00
          1   -1    0    0  501    0  0.00000000000E+00  0.00000000000E+00  0.81243741851E+02  0.81243741851E+02  0.00000000000E+00 0. -1.
         -1   -1    0    0    0  501 -0.00000000000E+00 -0.00000000000E+00 -0.22530719598E+03  0.22530719598E+03  0.00000000000E+00 0.  1.
         25    2    1    2    0    0 -0.55029048114E+02 -0.86063170581E+01 -0.12122643208E+02  0.13744228666E+03  0.12506461872E+03 0.  0.
          5    1    3    3  502    0 -0.15446423348E+02 -0.30049417859E+02  0.50073073327E+02  0.60550347483E+02  0.41800000000E+01 0. -1.
         -5    1    3    3    0  502 -0.39582624766E+02  0.21443100801E+02 -0.62195716535E+02  0.76891939178E+02  0.41800000000E+01 0. -1.
        -11    1    1    2    0    0  0.97982343246E+01 -0.17515086428E+02 -0.11105831747E+03  0.11285713769E+03  0.00000000000E+00 0.  1.
         11    1    1    2    0    0  0.45230813789E+02  0.26121403486E+02 -0.20882493451E+02  0.56251513480E+02  0.00000000000E+00 0. -1.
</event>
<event>
 7    1  0.2873461E-009  0.1057796E+03  0.7561462E-02  0.1268591E+00
          2   -1    0    0  501    0  0.00000000000E+00  0.00000000000E+00  0.87960469311E+03  0.87960469311E+03  0.00000000000E+00 0. -1.
         -2   -1    0    0    0  501 -0.00000000000E+00 -0.00000000000E+00 -0.15024828586E+02  0.15024828586E+02  0.00000000000E+00 0.  1.
         25    2    1    2    0    0 -0.87651677907E+01 -0.38155094406E+02  0.52601566193E+03  0.54209999538E+03  0.12508912425E+03 0.  0.
          5    1    3    3  502    0 -0.11728982301E+02 -0.77534727035E+02  0.22155052485E+03  0.23505597288E+03  0.41800000000E+01 0.  1.
         -5    1    3    3    0  502  0.29638145104E+01  0.39379632629E+02  0.30446513708E+03  0.30704402251E+03  0.41800000000E+01 0.  1.
        -11    1    1    2    0    0 -0.82006127509E+01 -0.25841883015E+02  0.54748845986E+02  0.61094100403E+02  0.00000000000E+00 0. -1.
         11    1    1    2    0    0  0.16965780542E+02  0.63996977422E+02  0.28381535661E+03  0.29143542591E+03  0.00000000000E+00 0.  1.
</event>
<event>
 7    1  0.2873461E-009  0.1792053E+03  0.7561462E-02  0.1168574E+00
         -1   -1    0    0    0  501 -0.00000000000E+00  0.00000000000E+00  0.26643767030E+02  0.26643767030E+02  0.00000000000E+00 0.  1.
          1   -1    0    0  501    0  0.00000000000E+00 -0.00000000000E+00 -0.13144203718E+04  0.13144203718E+04  0.00000000000E+00 0. -1.
         25    2    1    2    0    0  0.85404175936E+02  0.11751667730E+03 -0.83570738777E+03  0.85741634411E+03  0.12510757956E+03 0.  0.
          5    1    3    3  502    0  0.18087276828E+02  0.11858789669E+03 -0.44378014065E+03  0.45972657576E+03  0.41800000000E+01 0. -1.
         -5    1    3    3    0  502  0.67316899108E+02 -0.10712193895E+01 -0.39192724712E+03  0.39768976835E+03  0.41800000000E+01 0. -1.
        -11    1    1    2    0    0 -0.85978806037E+02 -0.13139917195E+03 -0.39894862323E+03  0.42874013278E+03  0.00000000000E+00 0.  1.
         11    1    1    2    0    0  0.57463010111E+00  0.13882494653E+02 -0.53120593797E+02  0.54907661969E+02  0.00000000000E+00 0. -1.
</event>
<event>
 7    1  0.2873461E-009  0.1419749E+03  0.7561462E-02  0.1210696E+00
         -1   -1    0    0    0  501 -0.00000000000E+00  0.00000000000E+00  0.38934917481E+02  0.38934917481E+02  0.00000000000E+00 0.  1.
          1   -1    0    0  501    0  0.00000000000E+00 -0.00000000000E+00 -0.83499710397E+03  0.83499710397E+03  0.00000000000E+00 0. -1.
         25    2    1    2    0    0 -0.23678953997E+02  0.97309793269E+02 -0.66633394992E+03  0.68532969569E+03  0.12508385286E+03 0.  0.
          5    1    3    3  502    0  0.28774357452E+02  0.10252064261E+03 -0.47637608179E+03  0.48814965893E+03  0.41800000000E+01 0.  1.
         -5    1    3    3    0  502 -0.52453311449E+02 -0.52108493389E+01 -0.18995786813E+03  0.19718003676E+03  0.41800000000E+01 0.  1.
        -11    1    1    2    0    0 -0.18087358921E+01 -0.98951580307E+02 -0.63418748374E+02  0.11754413816E+03  0.00000000000E+00 0.  1.
         11    1    1    2    0    0  0.25487689889E+02  0.16417870387E+01 -0.66309488195E+02  0.71058187602E+02  0.00000000000E+00 0. -1.
</event>
<event>
 7    1  0.2873461E-009  0.1500073E+03  0.7561462E-02  0.1200464E+00
          2   -1    0    0  501    0  0.00000000000E+00  0.00000000000E+00  0.83628842157E+03  0.83628842157E+03  0.00000000000E+00 0. -1.
         -2   -1    0    0    0  501 -0.00000000000E+00 -0.00000000000E+00 -0.36899253956E+02  0.36899253956E+02  0.00000000000E+00 0.  1.
         25    2    1    2    0    0  0.61136931582E+02  0.51122204297E+02  0.59842552435E+03  0.61653452017E+03  0.12510196716E+03 0.  0.
          5    1    3    3  502    0  0.84002927532E+02 -0.34618519979E+01  0.27083403141E+03  0.28361421196E+03  0.41800000000E+01 0. -1.
         -5    1    3    3    0  502 -0.22865995950E+02  0.54584056295E+02  0.32759149294E+03  0.33292030821E+03  0.41800000000E+01 0. -1.
        -11    1    1    2    0    0 -0.35683921489E+02  0.44795839389E+02  0.50189339929E+02  0.76151029684E+02  0.00000000000E+00 0.  1.
         11    1    1    2    0    0 -0.25453010093E+02 -0.95918043686E+02  0.15077430333E+03  0.18050212567E+03  0.00000000000E+00 0. -1.
</event>
<event>
 7    1  0.2873461E-009  0.1189849E+03  0.7561462E-02  0.1244781E+00
          1   -1    0    0  501    0  0.00000000000E+00  0.00000000000E+00  0.61077443071E+03  0.61077443071E+03  0.00000000000E+00 0. -1.
         -1   -1    0    0    0  501 -0.00000000000E+00 -0.00000000000E+00 -0.52048768477E+02  0.52048768477E+02  0.00000000000E+00 0.  1.
         25    2    1    2    0    0  0.44731639343E+02 -0.62402449000E+02  0.51288496876E+03  0.53347193408E+03  0.12508528316E+03 0.  0.
          5    1    3    3  502    0 -0.35488196202E+02 -0.53482533400E+02  0.18859218455E+03  0.19925932330E+03  0.41800000000E+01 0.  1.
         -5    1    3    3    0  502  0.80219835545E+02 -0.89199155997E+01  0.32429278421E+03  0.33421261078E+03  0.41800000000E+01 0.  1.
        -11    1    1    2    0    0 -0.39046798293E+02  0.10257090040E+02 -0.20094712393E+02  0.45096095387E+02  0.00000000000E+00 0.  1.
         11    1    1    2    0    0 -0.56848410498E+01  0.52145358960E+02  0.65935405863E+02  0.84255169724E+02  0.00000000000E+00 0. -1.
</event>
<event>
 7    1  0.2873461E-009  0.1137568E+03  0.7561462E-02  0.1253767E+00
          2   -1    0    0  501    0  0.00000000000E+00  0.00000000000E+00  0.30999211535E+03  0.30999211535E+03  0.00000000000E+00 0. -1.
         -2   -1    0    0    0  501 -0.00000000000E+00 -0.00000000000E+00 -0.46723336028E+02  0.46723336028E+02  0.00000000000E+00 0.  1.
         25    2    1    2    0    0 -0.31143532515E+02 -0.41449981956E+02  0.15606188729E+03  0.20661780335E+03  0.12509030088E+03 0.  0.
          5    1    3    3  502    0 -0.20872635165E+02  0.43154801062E+02  0.73744301209E+02  0.88055085681E+02  0.41800000000E+01 0. -1.
         -5    1    3    3    0  502 -0.10270897350E+02 -0.84604783018E+02  0.82317586084E+02  0.11856271767E+03  0.41800000000E+01 0. -1.
        -11    1    1    2    0    0  0.40008019700E+02 -0.10501661433E+02  0.81641027170E+02  0.91521493926E+02  0.00000000000E+00 0. -1.
         11    1    1    2    0    0 -0.88644871847E+01  0.51951643389E+02  0.25565864862E+02  0.58576154107E+02  0.00000000000E+00 0.  1.
</event>
<event>
 7    1  0.2873461E-009  0.3071055E+03  0.7561462E-02  0.1081742E+00
         -2   -1    0    0    0  501 -0.00000000000E+00  0.00000000000E+00  0.83520661184E+02  0.83520661184E+02  0.00000000000E+00 0.  1.
          2   -1    0    0  501    0  0.00000000000E+00 -0.00000000000E+00 -0.13422026081E+04  0.13422026081E+04  0.00000000000E+00 0. -1.
         25    2    1    2    0    0  0.25067574357E+03 -0.16047297096E+03 -0.41132356282E+03  0.52289974796E+03  0.12508864963E+03 0.  0.
          5    1    3    3  502    0  0.18405226945E+03 -0.87744477909E+02 -0.18244322459E+03  0.27363723046E+03  0.41800000000E+01 0. -1.
         -5    1    3    3    0  502  0.66623474121E+02 -0.72728493053E+02 -0.22888033823E+03  0.24926251750E+03  0.41800000000E+01 0. -1.
        -11    1    1    2    0    0 -0.11066714150E+03  0.12533345037E+03 -0.45940075023E+03  0.48888110958E+03  0.00000000000E+00 0. -1.
         11    1    1    2    0    0 -0.14000860208E+03  0.35139520590E+02 -0.38795763386E+03  0.41394241174E+03  0.00000000000E+00 0.  1.
</event>
<event>
 7    1  0.2873461E-009  0.1285236E+03  0.7561462E-02  0.1229663E+00
         -2   -1    0    0    0  501 -0.00000000000E+00  0.00000000000E+00  0.25521716445E+02  0.25521716445E+02  0.00000000000E+00 0. -1.
          2   -1    0    0  501    0  0.00000000000E+00 -0.00000000000E+00 -0.87067352518E+03  0.87067352518E+03  0.00000000000E+00 0.  1.
         25    2    1    2    0    0 -0.54812847233E+02 -0.53332712144E+02 -0.65726549490E+03  0.67342114477E+03  0.12509708640E+03 0.  0.
          5    1    3    3  502    0 -0.35706477981E+02 -0.89390149421E+02 -0.33579589707E+03  0.34934497029E+03  0.41800000000E+01 0.  1.
         -5    1    3    3    0  502 -0.19106369252E+02  0.36057437277E+02 -0.32146959784E+03  0.32407617448E+03  0.41800000000E+01 0.  1.
        -11    1    1    2    0    0 -0.98767180115E+01  0.54090042430E+02 -0.88205546917E+02  0.10393989011E+03  0.00000000000E+00 0.  1.
         11    1    1    2    0    0  0.64689565244E+02 -0.75733028578E+00 -0.99680766918E+02  0.11883420675E+03  0.00000000000E+00 0. -1.
</event>
<event>
 7    1  0.2873461E-009  0.5306104E+02  0.7561462E-02  0.1429497E+00
         -2   -1    0    0    0  501 -0.00000000000E+00  0.00000000000E+00  0.42969235771E+03  0.42969235771E+03  0.00000000000E+00 0.  1.
          2   -1    0    0  501    0  0.00000000000E+00 -0.00000000000E+00 -0.30176299280E+02  0.30176299280E+02  0.00000000000E+00 0. -1.
         25    2    1    2    0    0  0.16565610943E+02  0.29214890954E+02  0.20548575717E+03  0.24289298929E+03  0.12507868933E+03 0.  0.
          5    1    3    3  502    0  0.11369092526E+02  0.12945182091E+02  0.21961908785E+03  0.22033349758E+03  0.41800000000E+01 0.  1.
         -5    1    3    3    0  502  0.51965184162E+01  0.16269708862E+02 -0.14133330682E+02  0.22559491711E+02  0.41800000000E+01 0.  1.
        -11    1    1    2    0    0  0.13231715060E+02 -0.37595879442E+02  0.17743062976E+03  0.18185201899E+03  0.00000000000E+00 0.  1.
         11    1    1    2    0    0 -0.29797326003E+02  0.83809884878E+01  0.16599671500E+02  0.35123648712E+02  0.00000000000E+00 0. -1.
</event>
<event>
 7    1  0.2873461E-009  0.1165775E+03  0.7561462E-02  0.1248852E+00
         -1   -1    0    0    0  501 -0.00000000000E+00  0.00000000000E+00  0.54691681210E+02  0.54691681210E+02  0.00000000000E+00 0.  1.
          1   -1    0    0  501    0  0.00000000000E+00 -0.00000000000E+00 -0.30606712929E+03  0.30606712929E+03  0.00000000000E+00 0. -1.
         25    2    1    2    0    0  0.59693422827E+02  0.11458390866E+02 -0.91388215066E+02  0.16641650659E+03  0.12509215948E+03 0.  0.
          5    1    3    3  502    0  0.89332839232E+02 -0.11579326739E+02 -0.91744944912E+02  0.12864308878E+03  0.41800000000E+01 0.  1.
         -5    1    3    3    0  502 -0.29639416405E+02  0.23037717605E+02  0.35672984637E+00  0.37773417816E+02  0.41800000000E+01 0.  1.
        -11    1    1    2    0    0 -0.46020802133E+01  0.33674754154E+02 -0.81809611402E+02  0.88588829585E+02  0.00000000000E+00 0. -1.
         11    1    1    2    0    0 -0.55091342614E+02 -0.45133145021E+02 -0.78177621613E+02  0.10575347432E+03  0.00000000000E+00 0.  1.
</event>
<event>
 7    1  0.2873461E-009  0.9195070E+02  0.7561462E-02  0.1298195E+00
         -1   -1    0    0    0  501 -0.00000000000E+00  0.00000000000E+00  0.22053338950E+03  0.22053338950E+03  0.00000000000E+00 0.  1.
          1   -1    0    0  501    0  0.00000000000E+00 -0.00000000000E+00 -0.78812662227E+02  0.78812662227E+02  0.00000000000E+00 0. -1.
         25    2    1    2    0    0 -0.46937641656E+02  0.47975815406E+02  0.11255750892E+03  0.18116788740E+03  0.12509112495E+03 0.  0.
          5    1    3    3  502    0 -0.50544603263E+02  0.40281627438E+01 -0.91123716300E+01  0.51686465644E+02  0.41800000000E+01 0.  1.
         -5    1    3    3    0  502  0.36069616061E+01  0.43947652662E+02  0.12166988055E+03  0.12948142175E+03  0.41800000000E+01 0.  1.
        -11    1    1    2    0    0  0.34612368239E+02  0.44309366634E+01  0.49555758357E+02  0.60608765217E+02  0.00000000000E+00 0.  1.
         11    1    1    2    0    0  0.12325273418E+02 -0.52406752070E+02 -0.20392539997E+02  0.57569399118E+02  0.00000000000E+00 0. -1.
</event>
<event>
 7    1  0.2873461E-009  0.9334900E+02  0.7561462E-02  0.1294938E+00
          2   -1    0    0  501    0  0.00000000000E+00  0.00000000000E+00  0.10791411543E+03  0.10791411543E+03  0.00000000000E+00 0. -1.
         -2   -1    0    0    0  501 -0.00000000000E+00 -0.00000000000E+00 -0.18534107690E+03  0.18534107690E+03  0.00000000000E+00 0.  1.
         25    2    1    2    0    0 -0.38870880296E+02 -0.78446362476E+02 -0.65536211229E+02  0.16615442511E+03  0.12509005108E+03 0.  0.
          5    1    3    3  502    0 -0.46590329361E+02 -0.70513802727E+02  0.13977406553E+02  0.85765351156E+02  0.41800000000E+01 0.  1.
         -5    1    3    3    0  502  0.77194490656E+01 -0.79325597493E+01 -0.79513617782E+02  0.80389073951E+02  0.41800000000E+01 0.  1.
        -11    1    1    2    0    0  0.35705292851E+02  0.48985601277E+02  0.36207975640E+02  0.70607893114E+02  0.00000000000E+00 0. -1.
         11    1    1    2    0    0  0.31655874446E+01  0.29460761199E+02 -0.48098725879E+02  0.56492874113E+02  0.00000000000E+00 0.  1.
</event>
<event>
 7    1  0.3530448E-009  0.9815890E+02  0.7561462E-02  0.1284216E+00
          2   -1    0    0  501    0  0.00000000000E+00  0.00000000000E+00  0.52556133999E+03  0.52556133999E+03  0.00000000000E+00 0. -1.
         -2   -1    0    0    0  501 -0.00000000000E+00 -0.00000000000E+00 -0.23389120766E+02  0.23389120766E+02  0.00000000000E+00 0.  1.
         25    2    1    2    0    0  0.22049200364E+00 -0.93686255910E+01  0.34406476059E+03  0.36622095485E+03  0.12509759603E+03 0.  0.
          5    1    3    3  502    0 -0.48648329336E+02  0.34359718093E+02  0.16798399792E+03  0.17827884376E+03  0.41800000000E+01 0.  1.
         -5    1    3    3    0  502  0.48868821339E+02 -0.43728343684E+02  0.17608076267E+03  0.18794211109E+03  0.41800000000E+01 0.  1.
        -11    1    1    2    0    0 -0.26364504148E+02  0.28259070992E+02  0.25611137299E+02  0.46363698364E+02  0.00000000000E+00 0.  1.
         11    1    1    2    0    0  0.26144012144E+02 -0.18890445401E+02  0.13249632134E+03  0.13636580755E+03  0.00000000000E+00 0. -1.
</event>
<event>
 7    1  0.2873461E-009  0.1212175E+03  0.7561462E-02  0.1241102E+00
         -1   -1    0    0    0  501 -0.00000000000E+00  0.00000000000E+00  0.30648718377E+02  0.30648718377E+02  0.00000000000E+00 0.  1.
          1   -1    0    0  501    0  0.00000000000E+00 -0.00000000000E+00 -0.54371419879E+03  0.54371419879E+03  0.00000000000E+00 0. -1.
         25    2    1    2    0    0 -0.10560295792E+02  0.67024195755E+02 -0.25262371194E+03  0.28994861970E+03  0.12509076532E+03 0.  0.
          5    1    3    3  502    0 -0.41675526633E+02  0.89448665631E+02 -0.14350197339E+03  0.17420735366E+03  0.41800000000E+01 0. -1.
         -5    1    3    3    0  502  0.31115230841E+02 -0.22424469876E+02 -0.10912173856E+03  0.11574126604E+03  0.41800000000E+01 0. -1.
        -11    1    1    2    0    0  0.23373055132E+02 -0.82063684129E+02 -0.15312580807E+03  0.17529478331E+03  0.00000000000E+00 0.  1.
         11    1    1    2    0    0 -0.12812759340E+02  0.15039488374E+02 -0.10731596040E+03  0.10911951415E+03  0.00000000000E+00 0. -1.
</event>
<event>
 7    1  0.3964939E-009  0.1144042E+03  0.7561462E-02  0.1252625E+00
          1   -1    0    0  501    0  0.00000000000E+00  0.00000000000E+00  0.78696718714E+03  0.78696718714E+03  0.00000000000E+00 0. -1.
         -1   -1    0    0    0  501 -0.00000000000E+00 -0.00000000000E+00 -0.21871042612E+02  0.21871042612E+02  0.00000000000E+00 0.  1.
         25    2    1    2    0    0  0.48569066752E+02  0.54022745742E+02  0.46054503741E+03  0.48272809953E+03  0.12508906943E+03 0.  0.
          5    1    3    3  502    0  0.71319088395E+02  0.23611249433E+02  0.13175914981E+03  0.15172952721E+03  0.41800000000E+01 0.  1.
         -5    1    3    3    0  502 -0.22750021643E+02  0.30411496309E+02  0.32878588760E+03  0.33099857232E+03  0.41800000000E+01 0.  1.
        -11    1    1    2    0    0  0.60045581328E+01 -0.60142988391E+02  0.18316233854E+03  0.19287736008E+03  0.00000000000E+00 0.  1.
         11    1    1    2    0    0 -0.54573624885E+02  0.61202426487E+01  0.12138876858E+03  0.13323277014E+03  0.00000000000E+00 0. -1.
</event>
<event>
 7    1  0.2873461E-009  0.9358979E+02  0.7561462E-02  0.1294384E+00
          2   -1    0    0  501    0  0.00000000000E+00  0.00000000000E+00  0.13462035790E+04  0.13462035790E+04  0.00000000000E+00 0. -1.
         -2   -1    0    0    0  501 -0.00000000000E+00 -0.00000000000E+00 -0.18293718642E+02  0.18293718642E+02  0.00000000000E+00 0.  1.
         25    2    1    2    0    0 -0.10786578394E+02 -0.56367367837E+02  0.11461962576E+04  0.11544292114E+04  0.12508921944E+03 0.  0.
          5    1    3    3  502    0 -0.42964484570E+02 -0.97515676425E+01  0.92497685926E+03  0.92603493593E+03  0.41800000000E+01 0. -1.
         -5    1    3    3    0  502  0.32177906176E+02 -0.46615800195E+02  0.22121939834E+03  0.22839427549E+03  0.41800000000E+01 0. -1.
        -11    1    1    2    0    0 -0.24799423494E+02  0.79571063181E+01  0.12417833459E+03  0.12688020227E+03  0.00000000000E+00 0. -1.
         11    1    1    2    0    0  0.35586001888E+02  0.48410261519E+02  0.57535268130E+02  0.83187883911E+02  0.00000000000E+00 0.  1.
</event>
<event>
 7    1  0.2873461E-009  0.1106175E+03  0.7561462E-02  0.1259431E+00
         -2   -1    0    0    0  501 -0.00000000000E+00  0.00000000000E+00  0.11096472975E+02  0.11096472975E+02  0.00000000000E+00 0.  1.
          2   -1    0    0  501    0  0.00000000000E+00 -0.00000000000E+00 -0.14653036396E+04  0.14653036396E+04  0.00000000000E+00 0. -1.
         25    2    1    2    0    0  0.33332444489E+02 -0.44956239494E+02 -0.10161819271E+04  0.10253807004E+04  0.12509099294E+03 0.  0.
          5    1    3    3  502    0 -0.25126778065E+02 -0.48896293884E+02 -0.78210662875E+03  0.78404748177E+03  0.41800000000E+01 0. -1.
         -5    1    3    3    0  502  0.58459222554E+02  0.39400543899E+01 -0.23407529837E+03  0.24133321868E+03  0.41800000000E+01 0. -1.
        -11    1    1    2    0    0 -0.48016586387E+02  0.66050286616E+02 -0.34204152302E+03  0.35165414316E+03  0.00000000000E+00 0.  1.
         11    1    1    2    0    0  0.14684141898E+02 -0.21094047121E+02 -0.95983716458E+02  0.99365268944E+02  0.00000000000E+00 0. -1.
</event>
<event>
 7    1  0.2873461E-009  0.9883982E+02  0.7561462E-02  0.1282755E+00
          1   -1    0    0  501    0  0.00000000000E+00  0.00000000000E+00  0.11248754202E+03  0.11248754202E+03  0.00000000000E+00 0. -1.
         -1   -1    0    0    0  501 -0.00000000000E+00 -0.00000000000E+00 -0.17061410812E+03  0.17061410812E+03  0.00000000000E+00 0.  1.
         25    2    1    2    0    0  0.70095227023E+02  0.28066219714E+02 -0.81320558184E+02  0.16721710925E+03  0.12508986730E+03 0.  0.
          5    1    3    3  502    0 -0.74338380133E+01 -0.15356378373E+02  0.23753237467E+02  0.29542663971E+02  0.41800000000E+01 0. -1.
         -5    1    3    3    0  502  0.77529065036E+02  0.43422598087E+02 -0.10507379565E+03  0.13767444528E+03  0.41800000000E+01 0. -1.
        -11    1    1    2    0    0 -0.68303776767E+02 -0.55080353342E+01 -0.16235766572E+02  0.70422613485E+02  0.00000000000E+00 0.  1.
         11    1    1    2    0    0 -0.17914502551E+01 -0.22558184380E+02  0.39429758655E+02  0.45461927413E+02  0.00000000000E+00 0. -1.
</event>
<event>
 7    1  0.2873461E-009  0.1169268E+03  0.7561462E-02  0.1248255E+00
          3   -1    0    0  501    0  0.00000000000E+00  0.00000000000E+00  0.54052480623E+02  0.54052480623E+02  0.00000000000E+00 0. -1.
         -3   -1    0    0    0  501 -0.00000000000E+00 -0.00000000000E+00 -0.32884471665E+03  0.32884471665E+03  0.00000000000E+00 0.  1.
         25    2    1    2    0    0 -0.56615379938E+02  0.37827059690E+02 -0.17419037297E+03  0.22500042857E+03  0.12508684635E+03 0.  0.
          5    1    3    3  502    0 -0.52144976103E+02  0.74634615508E+02 -0.71810204059E+02  0.11603276336E+03  0.41800000000E+01 0. -1.
         -5    1    3    3    0  502 -0.44704038352E+01 -0.36807555818E+02 -0.10238016891E+03  0.10896766521E+03  0.41800000000E+01 0. -1.
        -11    1    1    2    0    0  0.68924061142E+02 -0.35914887949E+01 -0.10000737004E+03  0.12151090099E+03  0.00000000000E+00 0.  1.
         11    1    1    2    0    0 -0.12308681204E+02 -0.34235570895E+02 -0.59449301317E+00  0.36385867716E+02  0.00000000000E+00 0. -1.
</event>
<event>
 7    1  0.2873461E-009  0.9030242E+02  0.7561462E-02  0.1302121E+00
         -1   -1    0    0    0  501 -0.00000000000E+00  0.00000000000E+00  0.86325689952E+01  0.86325689952E+01  0.00000000000E+00 0.  1.
          1   -1    0    0  501    0  0.00000000000E+00 -0.00000000000E+00 -0.12964072700E+04  0.12964072700E+04  0.00000000000E+00 0. -1.
         25    2    1    2    0    0  0.36803871107E+01  0.25874030439E+02 -0.82791892366E+03  0.83772282806E+03  0.12508709684E+03 0.  0.
          5    1    3    3  502    0  0.17317154703E+02  0.58863051578E+02 -0.74260972243E+03  0.74515194084E+03  0.41800000000E+01 0.  1.
         -5    1    3    3    0  502 -0.13636767593E+02 -0.32989021139E+02 -0.85309201231E+02  0.92570887221E+02  0.41800000000E+01 0.  1.
        -11    1    1    2    0    0 -0.12286040560E+02  0.26963682447E+02 -0.16058993336E+03  0.16330068482E+03  0.00000000000E+00 0.  1.
         11    1    1    2    0    0  0.86056534498E+01 -0.52837712886E+02 -0.29926584399E+03  0.30401632613E+03  0.00000000000E+00 0. -1.
</event>
<event>
 7    1  0.2873461E-009  0.3816925E+03  0.7561462E-02  0.1050310E+00
         -2   -1    0    0    0  501 -0.00000000000E+00  0.00000000000E+00  0.73137912494E+02  0.73137912494E+02  0.00000000000E+00 0.  1.
          2   -1    0    0  501    0  0.00000000000E+00 -0.00000000000E+00 -0.20870186593E+04  0.20870186593E+04  0.00000000000E+00 0. -1.
         25    2    1    2    0    0 -0.29750321874E+03  0.22355780898E+03 -0.88722944410E+03  0.97021122970E+03  0.12508990624E+03 0.  0.
          5    1    3    3  502    0 -0.38946981700E+01 -0.12922898442E+02 -0.19203130727E+02  0.23841195601E+02  0.41800000000E+01 0.  1.
         -5    1    3    3    0  502 -0.29360852057E+03  0.23648070742E+03 -0.86802631337E+03  0.94637003409E+03  0.41800000000E+01 0.  1.
        -11    1    1    2    0    0  0.10483536873E+03 -0.73785317677E+02 -0.26462974385E+03  0.29404698429E+03  0.00000000000E+00 0.  1.
         11    1    1    2    0    0  0.19266785000E+03 -0.14977249130E+03 -0.86202155888E+03  0.89589835783E+03  0.00000000000E+00 0. -1.
</event>
<event>
 7    1  0.2873461E-009  0.7896576E+02  0.7561462E-02  0.1332012E+00
          2   -1    0    0  501    0  0.00000000000E+00  0.00000000000E+00  0.23645623748E+02  0.23645623748E+02  0.00000000000E+00 0. -1.
         -2   -1    0    0    0  501 -0.00000000000E+00 -0.00000000000E+00 -0.65974995608E+03  0.65974995608E+03  0.00000000000E+00 0.  1.
         25    2    1    2    0    0  0.36338521676E+02  0.33106612069E+02 -0.24973183386E+03  0.28360081461E+03  0.12508755848E+03 0.  0.
          5    1    3    3  502    0  0.38463640296E+02  0.21918359028E+02 -0.12681440372E+02  0.46240214286E+02  0.41800000000E+01 0.  1.
         -5    1    3    3    0  502 -0.21251186202E+01  0.11188253041E+02 -0.23705039348E+03  0.23736060032E+03  0.41800000000E+01 0.  1.
        -11    1    1    2    0    0  0.29400184681E+02 -0.49313554785E+01 -0.85848235615E+02  0.90876887515E+02  0.00000000000E+00 0. -1.
         11    1    1    2    0    0 -0.65738706357E+02 -0.28175256591E+02 -0.30052426286E+03  0.30891787771E+03  0.00000000000E+00 0.  1.
</event>
<event>
 7    1  0.2873461E-009  0.9287921E+02  0.7561462E-02  0.1296025E+00
         -4   -1    0    0    0  501 -0.00000000000E+00  0.00000000000E+00  0.12921795675E+03  0.12921795675E+03  0.00000000000E+00 0. -1.
          4   -1    0    0  501    0  0.00000000000E+00 -0.00000000000E+00 -0.13302807976E+03  0.13302807976E+03  0.00000000000E+00 0.  1.
         25    2    1    2    0    0 -0.47750786573E+00 -0.72979225346E+02 -0.17899048839E+01  0.14483231641E+03  0.12508797213E+03 0.  0.
          5    1    3    3  502    0 -0.24600349000E+02 -0.13946090494E+02  0.53283921428E+02  0.60467506098E+02  0.41800000000E+01 0. -1.
         -5    1    3    3    0  502  0.24122841135E+02 -0.59033134851E+02 -0.55073826312E+02  0.84364810314E+02  0.41800000000E+01 0. -1.
        -11    1    1    2    0    0  0.58717899346E+01 -0.91967561033E+01  0.27771257342E+02  0.29837911693E+02  0.00000000000E+00 0. -1.
         11    1    1    2    0    0 -0.53942820689E+01  0.82175981449E+02 -0.29791475470E+02  0.87575808399E+02  0.00000000000E+00 0.  1.
</event>
<event>
 7    1  0.2873461E-009  0.1156695E+03  0.7561462E-02  0.1250417E+00
         -2   -1    0    0    0  501 -0.00000000000E+00  0.00000000000E+00  0.11160697401E+03  0.11160697401E+03  0.00000000000E+00 0.  1.
          2   -1    0    0  501    0  0.00000000000E+00 -0.00000000000E+00 -0.19026350702E+03  0.19026350702E+03  0.00000000000E+00 0. -1.
         25    2    1    2    0    0  0.75446682647E+01  0.96975227112E+02 -0.44990008037E+02  0.16471965582E+03  0.12508935806E+03 0.  0.
          5    1    3    3  502    0 -0.37245433515E+02  0.57409400849E+02  0.24649597121E+02  0.72856960283E+02  0.41800000000E+01 0. -1.
         -5    1    3    3    0  502  0.44790101780E+02  0.39565826263E+02 -0.69639605158E+02  0.91862695540E+02  0.41800000000E+01 0. -1.
        -11    1    1    2    0    0  0.12592949048E+02 -0.53421533512E+02  0.25876504737E+02  0.60679783338E+02  0.00000000000E+00 0.  1.
         11    1    1    2    0    0 -0.20137617313E+02 -0.43553693600E+02 -0.59543029708E+02  0.76471041866E+02  0.00000000000E+00 0. -1.
</event>
<event>
 7    1  0.2873461E-009  0.1129849E+03  0.7561462E-02  0.1255140E+00
         -1   -1    0    0    0  501 -0.00000000000E+00  0.00000000000E+00  0.22448988378E+02  0.22448988378E+02  0.00000000000E+00 0.  1.
          1   -1    0    0  501    0  0.00000000000E+00 -0.00000000000E+00 -0.73447143738E+03  0.73447143738E+03  0.00000000000E+00 0. -1.
         25    2    1    2    0    0 -0.26368255484E+02 -0.48396706318E+02 -0.50988753689E+03  0.52789199239E+03  0.12508848575E+03 0.  0.
          5    1    3    3  502    0  0.24530644025E+02  0.29102610869E+02 -0.22590635685E+03  0.22912849870E+03  0.41800000000E+01 0. -1.
         -5    1    3    3    0  502 -0.50898899509E+02 -0.77499317187E+02 -0.28398118005E+03  0.29876349368E+03  0.41800000000E+01 0. -1.
        -11    1    1    2    0    0  0.45038687139E+02  0.58348108785E+02 -0.19181329402E+03  0.20548801644E+03  0.00000000000E+00 0. -1.
         11    1    1    2    0    0 -0.18670431655E+02 -0.99514024676E+01 -0.10321618089E+02  0.23540416929E+02  0.00000000000E+00 0.  1.
</event>
<event>
 7    1  0.2873461E-009  0.2141066E+03  0.7561462E-02  0.1138355E+00
          2   -1    0    0  501    0  0.00000000000E+00  0.00000000000E+00  0.11117867545E+03  0.11117867545E+03  0.00000000000E+00 0.  1.
         -2   -1    0    0    0  501 -0.00000000000E+00 -0.00000000000E+00 -0.55091217560E+03  0.55091217560E+03  0.00000000000E+00 0. -1.
         25    2    1    2    0    0  0.13445231590E+03 -0.13632139856E+03 -0.76651287914E+02  0.24121385935E+03  0.12509099506E+03 0.  0.
          5    1    3    3  502    0  0.14410277585E+03 -0.14319292275E+03 -0.90570138566E+02  0.22246403200E+03  0.41800000000E+01 0.  1.
         -5    1    3    3    0  502 -0.96504599554E+01  0.68715241890E+01  0.13918850652E+02  0.18749827346E+02  0.41800000000E+01 0.  1.
        -11    1    1    2    0    0 -0.78901536248E+02  0.16818069699E+02 -0.12550268037E+03  0.14919525016E+03  0.00000000000E+00 0.  1.
         11    1    1    2    0    0 -0.55550779650E+02  0.11950332886E+03 -0.23757953186E+03  0.27168174154E+03  0.00000000000E+00 0. -1.
</event>
<event>
 7    1  0.2896114E-009  0.2177841E+03  0.7561462E-02  0.1135546E+00
         -1   -1    0    0    0  501 -0.00000000000E+00  0.00000000000E+00  0.17062331960E+03  0.17062331960E+03  0.00000000000E+00 0.  1.
          1   -1    0    0  501    0  0.00000000000E+00 -0.00000000000E+00 -0.36782744680E+03  0.36782744680E+03  0.00000000000E+00 0. -1.
         25    2    1    2    0    0 -0.18250016137E+03 -0.10457471892E+03 -0.14369637076E+02  0.24514434512E+03  0.12508829976E+03 0.  0.
          5    1    3    3  502    0 -0.38279501242E+02  0.28672977940E+01 -0.48551521745E+02  0.62034379788E+02  0.41800000000E+01 0.  1.
         -5    1    3    3    0  502 -0.14422066013E+03 -0.10744201672E+03  0.34181884669E+02  0.18310996533E+03  0.41800000000E+01 0.  1.
        -11    1    1    2    0    0  0.10354863847E+03  0.89108435739E+02 -0.66693142898E+02  0.15202173910E+03  0.00000000000E+00 0.  1.
         11    1    1    2    0    0  0.78951522897E+02  0.15466283185E+02 -0.11614134722E+03  0.14128468217E+03  0.00000000000E+00 0. -1.
</event>
<event>
 7    1  0.2873461E-009  0.1695823E+03  0.7561462E-02  0.1178284E+00
         -1   -1    0    0    0  501 -0.00000000000E+00  0.00000000000E+00  0.58640559417E+02  0.58640559417E+02  0.00000000000E+00 0.  1.
          1   -1    0    0  501    0  0.00000000000E+00 -0.00000000000E+00 -0.60428315551E+03  0.60428315551E+03  0.00000000000E+00 0. -1.
         25    2    1    2    0    0 -0.14030247784E+03 -0.35225049601E+02 -0.19972536500E+03  0.27652485540E+03  0.12510069873E+03 0.  0.
          5    1    3    3  502    0 -0.14038779883E+03 -0.53500758317E+02 -0.20751383096E+03  0.25622358916E+03  0.41800000000E+01 0. -1.
         -5    1    3    3    0  502  0.85320995485E-01  0.18275708716E+02  0.77884659664E+01  0.20301266237E+02  0.41800000000E+01 0. -1.
        -11    1    1    2    0    0  0.60204678093E+02  0.61267306376E+02 -0.14485006038E+03  0.16840375912E+03  0.00000000000E+00 0. -1.
         11    1    1    2    0    0  0.80097799743E+02 -0.26042256775E+02 -0.20106717072E+03  0.21799510041E+03  0.00000000000E+00 0.  1.
</event>
<event>
 7    1  0.2873461E-009  0.1175879E+03  0.7561462E-02  0.1247130E+00
          2   -1    0    0  501    0  0.00000000000E+00  0.00000000000E+00  0.48929313740E+03  0.48929313740E+03  0.00000000000E+00 0. -1.
         -2   -1    0    0    0  501 -0.00000000000E+00 -0.00000000000E+00 -0.28919941038E+02  0.28919941038E+02  0.00000000000E+00 0.  1.
         25    2    1    2    0    0 -0.34923198201E+02 -0.29131741190E+02  0.24412906550E+03  0.27805483769E+03  0.12508878456E+03 0.  0.
          5    1    3    3  502    0  0.21353452642E+02  0.38854805701E+02  0.89337277638E+02  0.99821277499E+02  0.41800000000E+01 0. -1.
         -5    1    3    3    0  502 -0.56276650843E+02 -0.67986546891E+02  0.15479178786E+03  0.17823356019E+03  0.41800000000E+01 0. -1.
        -11    1    1    2    0    0  0.62070489931E+02 -0.53750072683E+00  0.15415749761E+03  0.16618534441E+03  0.00000000000E+00 0.  1.
         11    1    1    2    0    0 -0.27147291731E+02  0.29669241917E+02  0.62086633254E+02  0.73972896341E+02  0.00000000000E+00 0. -1.
</event>
<event>
 7    1  0.4808187E-009  0.1190170E+03  0.7561462E-02  0.1244727E+00
         -1   -1    0    0    0  501 -0.00000000000E+00  0.00000000000E+00  0.17020013412E+03  0.17020013412E+03  0.00000000000E+00 0.  1.
          1   -1    0    0  501    0  0.00000000000E+00 -0.00000000000E+00 -0.15311453758E+03  0.15311453758E+03  0.00000000000E+00 0. -1.
         25    2    1    2    0    0 -0.56074065302E+02 -0.90380535252E+02 -0.44449711844E+02  0.17010707174E+03  0.12509075514E+03 0.  0.
          5    1    3    3  502    0 -0.71324441342E+02 -0.73097827650E+02  0.17657430715E+02  0.10372909717E+03  0.41800000000E+01 0.  1.
         -5    1    3    3    0  502  0.15250376041E+02 -0.17282707602E+02 -0.62107142558E+02  0.66377974571E+02  0.41800000000E+01 0.  1.
        -11    1    1    2    0    0  0.33909700249E+02  0.21780749100E+02  0.69845076770E+02  0.80638722407E+02  0.00000000000E+00 0.  1.
         11    1    1    2    0    0  0.22164365052E+02  0.68599786152E+02 -0.83097683896E+01  0.72568877551E+02  0.00000000000E+00 0. -1.
</event>
<event>
 7    1  0.2873461E-009  0.1464361E+03  0.7561462E-02  0.1204922E+00
          1   -1    0    0  501    0  0.00000000000E+00  0.00000000000E+00  0.45020015043E+02  0.45020015043E+02  0.00000000000E+00 0. -1.
         -1   -1    0    0    0  501 -0.00000000000E+00 -0.00000000000E+00 -0.60353336792E+03  0.60353336792E+03  0.00000000000E+00 0.  1.
         25    2    1    2    0    0  0.32921030870E+02 -0.10791612001E+03 -0.19554655293E+03  0.25810007845E+03  0.12509001918E+03 0.  0.
          5    1    3    3  502    0 -0.27649184098E+02 -0.88532743729E+02 -0.16036214653E+03  0.18529979636E+03  0.41800000000E+01 0. -1.
         -5    1    3    3    0  502  0.60570214967E+02 -0.19383376282E+02 -0.35184406407E+02  0.72800282084E+02  0.41800000000E+01 0. -1.
        -11    1    1    2    0    0 -0.54738505062E+02  0.48990381660E+02 -0.25665166646E+03  0.26695774820E+03  0.00000000000E+00 0.  1.
         11    1    1    2    0    0  0.21817474192E+02  0.58925738351E+02 -0.10631513348E+03  0.12349555631E+03  0.00000000000E+00 0. -1.
</event>
<event>
 7    1  0.2873461E-009  0.1145771E+03  0.7561462E-02  0.1252321E+00
          2   -1    0    0  501    0  0.00000000000E+00  0.00000000000E+00  0.99870230830E+03  0.99870230830E+03  0.00000000000E+00 0. -1.
         -2   -1    0    0    0  501 -0.00000000000E+00 -0.00000000000E+00 -0.14102418933E+02  0.14102418933E+02  0.00000000000E+00 0.  1.
         25    2    1    2    0    0  0.39295284453E+02 -0.17484745412E+02  0.63802518529E+03  0.65159372548E+03  0.12509360626E+03 0.  0.
          5    1    3    3  502    0  0.25938519085E+02 -0.69086538305E+02  0.45330411573E+03  0.45929059460E+03  0.41800000000E+01 0.  1.
         -5    1    3    3    0  502  0.13356765368E+02  0.51601792893E+02  0.18472106955E+03  0.19230313088E+03  0.41800000000E+01 0.  1.
        -11    1    1    2    0    0 -0.54266848570E+01  0.52663163683E+02  0.17823936977E+03  0.18593582402E+03  0.00000000000E+00 0. -1.
         11    1    1    2    0    0 -0.33868599596E+02 -0.35178418271E+02  0.16833533431E+03  0.17527517773E+03  0.00000000000E+00 0.  1.
</event>
<event>
 7    1  0.2873461E-009  0.1079809E+03  0.7561462E-02  0.1264355E+00
          1   -1    0    0  501    0  0.00000000000E+00  0.00000000000E+00  0.51666361233E+03  0.51666361233E+03  0.00000000000E+00 0. -1.
         -1   -1    0    0    0  501 -0.00000000000E+00 -0.00000000000E+00 -0.24293864853E+02  0.24293864853E+02  0.00000000000E+00 0.  1.
         25    2    1    2    0    0  0.11313917524E+02 -0.22470546199E+02  0.30446648468E+03  0.33012106600E+03  0.12508855962E+03 0.  0.
          5    1    3    3  502    0 -0.47336929624E+02 -0.37763747433E+02  0.10158700229E+03  0.11833966774E+03  0.41800000000E+01 0. -1.
         -5    1    3    3    0  502  0.58650847148E+02  0.15293201234E+02  0.20287948239E+03  0.21178139827E+03  0.41800000000E+01 0. -1.
        -11    1    1    2    0    0 -0.35594288039E+02 -0.23406681493E+02  0.10092058166E+03  0.10954355245E+03  0.00000000000E+00 0.  1.
         11    1    1    2    0    0  0.24280370515E+02  0.45877227691E+02  0.86982681127E+02  0.10129285873E+03  0.00000000000E+00 0. -1.
</event>
<event>
 7    1  0.2873461E-009  0.1455638E+03  0.7561462E-02  0.1206033E+00
          2   -1    0    0  501    0  0.00000000000E+00  0.00000000000E+00  0.11641006052E+04  0.11641006052E+04  0.00000000000E+00 0. -1.
         -2   -1    0    0    0  501 -0.00000000000E+00 -0.00000000000E+00 -0.21708394289E+02  0.21708394289E+02  0.00000000000E+00 0.  1.
         25    2    1    2    0    0 -0.52593702618E+02 -0.91925676653E+02  0.78601413073E+03  0.80292084792E+03  0.12508895526E+03 0.  0.
          5    1    3    3  502    0 -0.91191491258E+02 -0.42438123029E+02  0.50827700592E+03  0.51815043136E+03  0.41800000000E+01 0. -1.
         -5    1    3    3    0  502  0.38597788640E+02 -0.49487553625E+02  0.27773712481E+03  0.28477041656E+03  0.41800000000E+01 0. -1.
        -11    1    1    2    0    0  0.26751404110E+02  0.97516175647E+02  0.33151661022E+03  0.34659530433E+03  0.00000000000E+00 0. -1.
         11    1    1    2    0    0  0.25842298508E+02 -0.55904989940E+01  0.24861469919E+02  0.36292847198E+02  0.00000000000E+00 0.  1.
</event>
<event>
 7    1  0.2873461E-009  0.1062174E+03  0.7561462E-02  0.1267740E+00
         -2   -1    0    0    0  501 -0.00000000000E+00  0.00000000000E+00  0.33051885544E+02  0.33051885544E+02  0.00000000000E+00 0. -1.
          2   -1    0    0  501    0  0.00000000000E+00 -0.00000000000E+00 -0.38866334039E+03  0.38866334039E+03  0.00000000000E+00 0.  1.
         25    2    1    2    0    0 -0.79128111275E+01 -0.26885549043E+02 -0.17178601418E+03  0.21437400133E+03  0.12514125000E+03 0.  0.
          5    1    3    3  502    0  0.42969370134E+02  0.24822699639E+02 -0.39970617857E+02  0.63856525735E+02  0.41800000000E+01 0.  1.
         -5    1    3    3    0  502 -0.50882181262E+02 -0.51708248682E+02 -0.13181539633E+03  0.15051747560E+03  0.41800000000E+01 0.  1.
        -11    1    1    2    0    0 -0.13727842610E+02  0.53748859925E+02 -0.14581755805E+03  0.15601331303E+03  0.00000000000E+00 0.  1.
         11    1    1    2    0    0  0.21640653738E+02 -0.26863310882E+02 -0.38007882604E+02  0.51327911566E+02  0.00000000000E+00 0. -1.
</event>
<event>
 7    1  0.2873461E-009  0.1117067E+03  0.7561462E-02  0.1257442E+00
          2   -1    0    0  501    0  0.00000000000E+00  0.00000000000E+00  0.20506981477E+03  0.20506981477E+03  0.00000000000E+00 0. -1.
         -2   -1    0    0    0  501 -0.00000000000E+00 -0.00000000000E+00 -0.72297783309E+02  0.72297783309E+02  0.00000000000E+00 0.  1.
         25    2    1    2    0    0  0.19788082793E+02 -0.45183592679E+02  0.44150920043E+02  0.14151056154E+03  0.12507121979E+03 0.  0.
          5    1    3    3  502    0  0.11157810066E+02  0.36622796412E+02 -0.13679496258E+02  0.40869633720E+02  0.41800000000E+01 0.  1.
         -5    1    3    3    0  502  0.86302727268E+01 -0.81806389091E+02  0.57830416301E+02  0.10064092782E+03  0.41800000000E+01 0.  1.
        -11    1    1    2    0    0 -0.48709158694E+02  0.53587933042E+02  0.56726858968E+02  0.91990136628E+02  0.00000000000E+00 0.  1.
         11    1    1    2    0    0  0.28921075901E+02 -0.84043403631E+01  0.31894252445E+02  0.43866899905E+02  0.00000000000E+00 0. -1.
</event>
<event>
 7    1  0.2873461E-009  0.1110580E+03  0.7561462E-02  0.1258623E+00
          1   -1    0    0  501    0  0.00000000000E+00  0.00000000000E+00  0.68270550396E+03  0.68270550396E+03  0.00000000000E+00 0. -1.
         -1   -1    0    0    0  501 -0.00000000000E+00 -0.00000000000E+00 -0.33512060703E+02  0.33512060703E+02  0.00000000000E+00 0.  1.
         25    2    1    2    0    0 -0.14837586960E+02 -0.92911351521E+02  0.47275098179E+03  0.49798667541E+03  0.12507823500E+03 0.  0.
          5    1    3    3  502    0 -0.11838409047E+02 -0.18795884254E+02  0.34781545409E+01  0.22869262180E+02  0.41800000000E+01 0. -1.
         -5    1    3    3    0  502 -0.29991779132E+01 -0.74115467267E+02  0.46927282725E+03  0.47511741323E+03  0.41800000000E+01 0. -1.
        -11    1    1    2    0    0 -0.30310990425E+02  0.12072200907E+02  0.26633080288E+02  0.42116684828E+02  0.00000000000E+00 0. -1.
         11    1    1    2    0    0  0.45148577385E+02  0.80839150615E+02  0.14980938117E+03  0.17611420442E+03  0.00000000000E+00 0.  1.
</event>
<event>
 7    1  0.2873461E-009  0.1315099E+03  0.7561462E-02  0.1225232E+00
         -1   -1    0    0    0  501 -0.00000000000E+00  0.00000000000E+00  0.58651423945E+02  0.58651423945E+02  0.00000000000E+00 0.  1.
          1   -1    0    0  501    0  0.00000000000E+00 -0.00000000000E+00 -0.33047266819E+03  0.33047266819E+03  0.00000000000E+00 0. -1.
         25    2    1    2    0    0  0.59848395809E+02 -0.58879473943E+02 -0.11874885134E+03  0.19182582938E+03  0.12508891314E+03 0.  0.
          5    1    3    3  502    0  0.33480963802E+02  0.34492339206E+02 -0.64617499904E+02  0.80644839233E+02  0.41800000000E+01 0. -1.
         -5    1    3    3    0  502  0.26367432007E+02 -0.93371813149E+02 -0.54131351434E+02  0.11118099014E+03  0.41800000000E+01 0. -1.
        -11    1    1    2    0    0  0.20522949445E+02  0.18854643944E+02 -0.12605284037E+02  0.30587288828E+02  0.00000000000E+00 0.  1.
         11    1    1    2    0    0 -0.80371345254E+02  0.40024829999E+02 -0.14046710887E+03  0.16671097393E+03  0.00000000000E+00 0. -1.
</event>
<event>
 7    1  0.2873461E-009  0.8176429E+02  0.7561462E-02  0.1324118E+00
         -2   -1    0    0    0  501 -0.00000000000E+00  0.00000000000E+00  0.21020027727E+03  0.21020027727E+03  0.00000000000E+00 0.  1.
          2   -1    0    0  501    0  0.00000000000E+00 -0.00000000000E+00 -0.75808617042E+02  0.75808617042E+02  0.00000000000E+00 0. -1.
         25    2    1    2    0    0 -0.43649761036E+02  0.34728668958E+02  0.38534235922E+02  0.14228258981E+03  0.12509222972E+03 0.  0.
          5    1    3    3  502    0  0.42923949698E+01 -0.71532334521E+01 -0.40015683033E+02  0.41089179744E+02  0.41800000000E+01 0.  1.
         -5    1    3    3    0  502 -0.47942156006E+02  0.41881902410E+02  0.78549918955E+02  0.10119341006E+03  0.41800000000E+01 0.  1.
        -11    1    1    2    0    0  0.60760397948E+02 -0.11970973614E+02  0.23969798753E+02  0.66405432160E+02  0.00000000000E+00 0. -1.
         11    1    1    2    0    0 -0.17110636912E+02 -0.22757695344E+02  0.71887625555E+02  0.77320872349E+02  0.00000000000E+00 0.  1.
</event>
<event>
 7    1  0.2873461E-009  0.8357855E+02  0.7561462E-02  0.1319192E+00
         -2   -1    0    0    0  501 -0.00000000000E+00  0.00000000000E+00  0.16813637890E+02  0.16813637890E+02  0.00000000000E+00 0.  1.
          2   -1    0    0  501    0  0.00000000000E+00 -0.00000000000E+00 -0.88891836707E+03  0.88891836707E+03  0.00000000000E+00 0. -1.
         25    2    1    2    0    0 -0.26574049075E+02  0.51417221830E+02 -0.50693087294E+03  0.52533441206E+03  0.12508966292E+03 0.  0.
          5    1    3    3  502    0 -0.16736150409E+02  0.49283387498E+02 -0.51102886638E+03  0.51368952265E+03  0.41800000000E+01 0.  1.
         -5    1    3    3    0  502 -0.98378986664E+01  0.21338343322E+01  0.40979934352E+01  0.11644889408E+02  0.41800000000E+01 0.  1.
        -11    1    1    2    0    0  0.29930030539E+02  0.17747217254E+02 -0.86197550840E+02  0.92955840156E+02  0.00000000000E+00 0.  1.
         11    1    1    2    0    0 -0.33559814640E+01 -0.69164439085E+02 -0.27897630540E+03  0.28744175274E+03  0.00000000000E+00 0. -1.
</event>
<event>
 7    1  0.2873461E-009  0.1314264E+03  0.7561462E-02  0.1225354E+00
          1   -1    0    0  501    0  0.00000000000E+00  0.00000000000E+00  0.28748917607E+03  0.28748917607E+03  0.00000000000E+00 0. -1.
         -1   -1    0    0    0  501 -0.00000000000E+00 -0.00000000000E+00 -0.94878184680E+02  0.94878184680E+02  0.00000000000E+00 0.  1.
         25    2    1    2    0    0  0.32073970913E+02 -0.10372155842E+03  0.17350549958E+03  0.23987134482E+03  0.12508877804E+03 0.  0.
          5    1    3    3  502    0  0.16172226626E+02  0.21071155268E+02  0.76106841844E+02  0.80717149812E+02  0.41800000000E+01 0.  1.
         -5    1    3    3    0  502  0.15901744287E+02 -0.12479271368E+03  0.97398657736E+02  0.15915419501E+03  0.41800000000E+01 0.  1.
        -11    1    1    2    0    0 -0.16977024952E+02  0.81358286694E+02 -0.28428117139E+02  0.87838192343E+02  0.00000000000E+00 0. -1.
         11    1    1    2    0    0 -0.15096945960E+02  0.22363271722E+02  0.47533608953E+02  0.54657823589E+02  0.00000000000E+00 0.  1.
</event>
<event>
 7    1  0.2873461E-009  0.9237931E+02  0.7561462E-02  0.1297190E+00
          2   -1    0    0  501    0  0.00000000000E+00  0.00000000000E+00  0.93209883167E+02  0.93209883167E+02  0.00000000000E+00 0. -1.
         -2   -1    0    0    0  501 -0.00000000000E+00 -0.00000000000E+00 -0.17087190955E+03  0.17087190955E+03  0.00000000000E+00 0.  1.
         25    2    1    2    0    0  0.53184943051E+02 -0.35772003703E+02 -0.46281374169E+02  0.14798062757E+03  0.12509207059E+03 0.  0.
          5    1    3    3  502    0 -0.39971174852E+01 -0.15943750368E+02 -0.77791586656E+02  0.79618989434E+02  0.41800000000E+01 0.  1.
         -5    1    3    3    0  502  0.57182060536E+02 -0.19828253335E+02  0.31510212487E+02  0.68361638134E+02  0.41800000000E+01 0.  1.
        -11    1    1    2    0    0  0.95119381154E+01  0.42981837141E+02 -0.29444797712E+02  0.52961414285E+02  0.00000000000E+00 0.  1.
         11    1    1    2    0    0 -0.62696881166E+02 -0.72098334377E+01 -0.19358544978E+01  0.63139750861E+02  0.00000000000E+00 0. -1.
</event>
<event>
 7    1  0.2873461E-009  0.3104931E+03  0.7561462E-02  0.1080110E+00
         -3   -1    0    0    0  501 -0.00000000000E+00  0.00000000000E+00  0.31065236438E+03  0.31065236438E+03  0.00000000000E+00 0.  1.
          3   -1    0    0  501    0  0.00000000000E+00 -0.00000000000E+00 -0.32656283246E+03  0.32656283246E+03  0.00000000000E+00 0. -1.
         25    2    1    2    0    0  0.27355627409E+03  0.11939366720E+03  0.15773130631E+02  0.32400478515E+03  0.12506968572E+03 0.  0.
          5    1    3    3  502    0  0.51518554088E+02 -0.17442430267E+02  0.30940149691E+02  0.62714950784E+02  0.41800000000E+01 0.  1.
         -5    1    3    3    0  502  0.22203772000E+03  0.13683609747E+03 -0.15167019059E+02  0.26128983436E+03  0.41800000000E+01 0.  1.
        -11    1    1    2    0    0 -0.83988862500E+02 -0.70900827261E+02 -0.41013593874E+02  0.11731654279E+03  0.00000000000E+00 0. -1.
         11    1    1    2    0    0 -0.18956741159E+03 -0.48492839939E+02  0.93299951690E+01  0.19589386890E+03  0.00000000000E+00 0.  1.
</event>
<event>
 7    1  0.2873461E-009  0.8932020E+02  0.7561462E-02  0.1304506E+00
         -2   -1    0    0    0  501 -0.00000000000E+00  0.00000000000E+00  0.30404342141E+03  0.30404342141E+03  0.00000000000E+00 0.  1.
          2   -1    0    0  501    0  0.00000000000E+00 -0.00000000000E+00 -0.49225797092E+02  0.49225797092E+02  0.00000000000E+00 0. -1.
         25    2    1    2    0    0 -0.56483701330E+01  0.20151708350E+02  0.65841660310E+02  0.14290201354E+03  0.12509142979E+03 0.  0.
          5    1    3    3  502    0 -0.17843961171E+02  0.56651828544E+02 -0.74589216247E+01  0.60007870646E+02  0.41800000000E+01 0.  1.
         -5    1    3    3    0  502  0.12195591038E+02 -0.36500120194E+02  0.73300581935E+02  0.82894142899E+02  0.41800000000E+01 0.  1.
        -11    1    1    2    0    0 -0.16674596725E+02 -0.44400633931E+02  0.15861883680E+03  0.16555782632E+03  0.00000000000E+00 0.  1.
         11    1    1    2    0    0  0.22322966858E+02  0.24248925581E+02  0.30357127210E+02  0.44809378635E+02  0.00000000000E+00 0. -1.
</event>
<event>
 7    1  0.2873461E-009  0.1675811E+03  0.7561462E-02  0.1180394E+00
          2   -1    0    0  501    0  0.00000000000E+00  0.00000000000E+00  0.53845381080E+03  0.53845381080E+03  0.00000000000E+00 0. -1.
         -2   -1    0    0    0  501 -0.00000000000E+00 -0.00000000000E+00 -0.73361885940E+02  0.73361885940E+02  0.00000000000E+00 0.  1.
         25    2    1    2    0    0 -0.77986391889E+01  0.14370440417E+03  0.37019444902E+03  0.41641707822E+03  0.12508988126E+03 0.  0.
          5    1    3    3  502    0 -0.23054631788E+02  0.16309545077E+03  0.30647545666E+03  0.34796022767E+03  0.41800000000E+01 0. -1.
         -5    1    3    3    0  502  0.15255992599E+02 -0.19391046601E+02  0.63718992364E+02  0.68456850543E+02  0.41800000000E+01 0. -1.
        -11    1    1    2    0    0 -0.55970946967E+01 -0.83664198579E+02  0.18711599227E+01  0.83872086133E+02  0.00000000000E+00 0.  1.
         11    1    1    2    0    0  0.13395733886E+02 -0.60040205592E+02  0.93026315915E+02  0.11152653239E+03  0.00000000000E+00 0. -1.
</event>
<event>
 6    1  0.2873461E-009  0.1473623E+03  0.7561462E-02  0.1203752E+00
         -1   -1    0    0    0  501 -0.00000000000E+00  0.00000000000E+00  0.47057452900E+03  0.47057452900E+03  0.00000000000E+00 0.  1.
          1   -1    0    0  501    0  0.00000000000E+00 -0.00000000000E+00 -0.51476571612E+02  0.51476571612E+02  0.00000000000E+00 0. -1.
          5    1    1    2  502    0 -0.58492174198E+02 -0.26055017448E+02  0.12778971064E+03  0.14299608709E+03  0.41800000000E+01 0.  1.
         -5    1    1    2    0  502 -0.13344326527E+02  0.94605292607E+02  0.18126092887E+03  0.20494201417E+03  0.41800000000E+01 0.  1.
        -11    1    1    2    0    0  0.52402978881E+02  0.10563111269E+02  0.44202281518E+02  0.69364927786E+02  0.00000000000E+00 0.  1.
         11    1    1    2    0    0  0.19433521844E+02 -0.79113386429E+02  0.65845036367E+02  0.10474807157E+03  0.00000000000E+00 0. -1.
</event>
<event>
 7    1  0.2873461E-009  0.1103018E+03  0.7561462E-02  0.1260012E+00
          1   -1    0    0  501    0  0.00000000000E+00  0.00000000000E+00  0.21874886727E+03  0.21874886727E+03  0.00000000000E+00 0. -1.
         -1   -1    0    0    0  501 -0.00000000000E+00 -0.00000000000E+00 -0.57811092241E+02  0.57811092241E+02  0.00000000000E+00 0.  1.
         25    2    1    2    0    0  0.14227795788E+02  0.45467660835E+01  0.67806516106E+02  0.14307318849E+03  0.12509640436E+03 0.  0.
          5    1    3    3  502    0  0.13822179195E+02 -0.59719669888E+02  0.36486233802E+02  0.71457744621E+02  0.41800000000E+01 0. -1.
         -5    1    3    3    0  502  0.40561659303E+00  0.64266435972E+02  0.31320282304E+02  0.71615443872E+02  0.41800000000E+01 0. -1.
        -11    1    1    2    0    0  0.36601296139E+02 -0.19901106195E+02  0.49973991596E+02  0.65062345046E+02  0.00000000000E+00 0. -1.
         11    1    1    2    0    0 -0.50829091927E+02  0.15354340111E+02  0.43157267327E+02  0.68424425972E+02  0.00000000000E+00 0.  1.
</event>
<event>
 7    1  0.2873461E-009  0.1417411E+03  0.7561462E-02  0.1211005E+00
          1   -1    0    0  501    0  0.00000000000E+00  0.00000000000E+00  0.91024350857E+02  0.91024350857E+02  0.00000000000E+00 0. -1.
         -1   -1    0    0    0  501 -0.00000000000E+00 -0.00000000000E+00 -0.27070080191E+03  0.27070080191E+03  0.00000000000E+00 0.  1.
         25    2    1    2    0    0  0.95594823758E+02 -0.64698202800E+01 -0.16610910915E+03  0.22895626621E+03  0.12509399183E+03 0.  0.
          5    1    3    3  502    0 -0.20143214511E+02  0.28011589231E+02 -0.53400809103E+02  0.63714339320E+02  0.41800000000E+01 0. -1.
         -5    1    3    3    0  502  0.11573803827E+03 -0.34481409511E+02 -0.11270830004E+03  0.16524192689E+03  0.41800000000E+01 0. -1.
        -11    1    1    2    0    0 -0.83288726134E+02  0.39837339215E+02  0.53606954701E+01  0.92481147012E+02  0.00000000000E+00 0. -1.
         11    1    1    2    0    0 -0.12306097624E+02 -0.33367518935E+02 -0.18928037375E+02  0.40287739543E+02  0.00000000000E+00 0.  1.
</event>
<event>
 7    1  0.2873461E-009  0.1641184E+03  0.7561462E-02  0.1184124E+00
          2   -1    0    0  501    0  0.00000000000E+00  0.00000000000E+00  0.43614660657E+03  0.43614660657E+03  0.00000000000E+00 0.  1.
         -2   -1    0    0    0  501 -0.00000000000E+00 -0.00000000000E+00 -0.79231345405E+02  0.79231345405E+02  0.00000000000E+00 0. -1.
         25    2    1    2    0    0 -0.33946046691E+02 -0.11874224028E+03  0.30588207824E+03  0.35279413380E+03  0.12509117212E+03 0.  0.
          5    1    3    3  502    0 -0.81454615307E+02 -0.80165401265E+02  0.20412393100E+03  0.23397734404E+03  0.41800000000E+01 0.  1.
         -5    1    3    3    0  502  0.47508568616E+02 -0.38576839011E+02  0.10175814724E+03  0.11881678976E+03  0.41800000000E+01 0.  1.
        -11    1    1    2    0    0  0.21332766915E+02  0.13230382600E+03  0.52669292580E+02  0.14399112368E+03  0.00000000000E+00 0. -1.
         11    1    1    2    0    0  0.12613279776E+02 -0.13561585720E+02 -0.16361096528E+01  0.18592694500E+02  0.00000000000E+00 0.  1.
</event>
<event>
 7    1  0.2873461E-009  0.1184253E+03  0.7561462E-02  0.1245718E+00
         -1   -1    0    0    0  501 -0.00000000000E+00  0.00000000000E+00  0.32118608621E+03  0.32118608621E+03  0.00000000000E+00 0.  1.
          1   -1    0    0  501    0  0.00000000000E+00 -0.00000000000E+00 -0.61127122593E+02  0.61127122593E+02  0.00000000000E+00 0. -1.
         25    2    1    2    0    0  0.52839085580E+02  0.61755082882E+02  0.88790972055E+02  0.17360448169E+03  0.12509604358E+03 0.  0.
          5    1    3    3  502    0  0.62551881457E+02  0.84739710779E+01 -0.68324107720E+01  0.63629398053E+02  0.41800000000E+01 0. -1.
         -5    1    3    3    0  502 -0.97127958775E+01  0.53281111804E+02  0.95623382827E+02  0.10997508364E+03  0.41800000000E+01 0. -1.
        -11    1    1    2    0    0  0.22233699186E+02 -0.30981027082E+02  0.53753960588E+02  0.65906370689E+02  0.00000000000E+00 0. -1.
         11    1    1    2    0    0 -0.75072784766E+02 -0.30774055800E+02  0.11751403097E+03  0.14280235642E+03  0.00000000000E+00 0.  1.
</event>
<event>
 7    1  0.2873461E-009  0.3975719E+03  0.7561462E-02  0.1044624E+00
          1   -1    0    0  501    0  0.00000000000E+00  0.00000000000E+00  0.94971775722E+03  0.94971775722E+03  0.00000000000E+00 0. -1.
         -1   -1    0    0    0  501 -0.00000000000E+00 -0.00000000000E+00 -0.23435760333E+03  0.23435760333E+03  0.00000000000E+00 0.  1.
         25    2    1    2    0    0  0.55926974550E+02  0.38794577407E+03  0.65989410296E+03  0.77764915967E+03  0.12509291873E+03 0.  0.
          5    1    3    3  502    0  0.40130532709E+01  0.93822831446E+01  0.95049714128E+02  0.95687263465E+02  0.41800000000E+01 0. -1.
         -5    1    3    3    0  502  0.51913921279E+02  0.37856349092E+03  0.56484438884E+03  0.68196189621E+03  0.41800000000E+01 0. -1.
        -11    1    1    2    0    0 -0.16973941779E+02 -0.33903746335E+03  0.38486748977E+02  0.34163686291E+03  0.00000000000E+00 0.  1.
         11    1    1    2    0    0 -0.38953032771E+02 -0.48908310719E+02  0.16979301949E+02  0.64789337967E+02  0.00000000000E+00 0. -1.
</event>
<event>
 7    1  0.2873461E-009  0.8286322E+02  0.7561462E-02  0.1321117E+00
         -4   -1    0    0    0  501 -0.00000000000E+00  0.00000000000E+00  0.68441736033E+02  0.68441736033E+02  0.00000000000E+00 0.  1.
          4   -1    0    0  501    0  0.00000000000E+00 -0.00000000000E+00 -0.19279325014E+03  0.19279325014E+03  0.00000000000E+00 0. -1.
         25    2    1    2    0    0  0.17525092662E+02 -0.19464648259E+02 -0.10183633500E+03  0.16341508906E+03  0.12509136982E+03 0.  0.
          5    1    3    3  502    0  0.26850697366E+02 -0.59270684776E+02 -0.10345291200E+03  0.12228635011E+03  0.41800000000E+01 0. -1.
         -5    1    3    3    0  502 -0.93256047043E+01  0.39806036517E+02  0.16165769992E+01  0.41128738949E+02  0.41800000000E+01 0. -1.
        -11    1    1    2    0    0 -0.28083332863E+02 -0.86575137646E+01  0.26998505236E+02  0.39906708888E+02  0.00000000000E+00 0.  1.
         11    1    1    2    0    0  0.10558240201E+02  0.28122162024E+02 -0.49513684346E+02  0.57913188227E+02  0.00000000000E+00 0. -1.
</event>
<event>
 7    1  0.2873461E-009  0.4359664E+03  0.7561462E-02  0.1031992E+00
          1   -1    0    0  501    0  0.00000000000E+00  0.00000000000E+00  0.14818733592E+04  0.14818733592E+04  0.00000000000E+00 0. -1.
         -1   -1    0    0    0  501 -0.00000000000E+00 -0.00000000000E+00 -0.22123584696E+03  0.22123584696E+03  0.00000000000E+00 0.  1.
         25    2    1    2    0    0  0.34687378783E+03 -0.25467424217E+03  0.96594991872E+02  0.45842825786E+03  0.12508189656E+03 0.  0.
          5    1    3    3  502    0  0.13199330261E+03 -0.12371919219E+03 -0.18077795601E+02  0.18185969741E+03  0.41800000000E+01 0.  1.
         -5    1    3    3    0  502  0.21488048522E+03 -0.13095504998E+03  0.11467278747E+03  0.27656856045E+03  0.41800000000E+01 0.  1.
        -11    1    1    2    0    0 -0.19943656453E+03  0.19889411533E+03  0.69733163412E+03  0.75206729774E+03  0.00000000000E+00 0.  1.
         11    1    1    2    0    0 -0.14743722330E+03  0.55780126837E+02  0.46671088623E+03  0.49261365053E+03  0.00000000000E+00 0. -1.
</event>
<event>
 7    1  0.2873461E-009  0.1239779E+03  0.7561462E-02  0.1236675E+00
          4   -1    0    0  501    0  0.00000000000E+00  0.00000000000E+00  0.44962188642E+03  0.44962188642E+03  0.00000000000E+00 0. -1.
         -4   -1    0    0    0  501 -0.00000000000E+00 -0.00000000000E+00 -0.55315211470E+02  0.55315211470E+02  0.00000000000E+00 0.  1.
         25    2    1    2    0    0  0.78665108922E+02  0.67819091176E+02  0.29106336672E+03  0.33339414448E+03  0.12508454595E+03 0.  0.
          5    1    3    3  502    0  0.74185481480E+02  0.43971868130E+02  0.29595446861E+03  0.30829130825E+03  0.41800000000E+01 0.  1.
         -5    1    3    3    0  502  0.44796274412E+01  0.23847223046E+02 -0.48911018914E+01  0.25102836229E+02  0.41800000000E+01 0.  1.
        -11    1    1    2    0    0 -0.33610405223E+02 -0.82923084942E+02  0.67129094004E+02  0.11185800203E+03  0.00000000000E+00 0.  1.
         11    1    1    2    0    0 -0.45054703698E+02  0.15103993766E+02  0.36114214225E+02  0.59684951387E+02  0.00000000000E+00 0. -1.
</event>
<event>
 7    1  0.2873461E-009  0.1083834E+03  0.7561462E-02  0.1263593E+00
          1   -1    0    0  501    0  0.00000000000E+00  0.00000000000E+00  0.31780489197E+03  0.31780489197E+03  0.00000000000E+00 0. -1.
         -1   -1    0    0    0  501 -0.00000000000E+00 -0.00000000000E+00 -0.59263287355E+02  0.59263287355E+02  0.00000000000E+00 0.  1.
         25    2    1    2    0    0 -0.34542919564E+02 -0.63218453266E+02  0.19082834383E+03  0.23927604152E+03  0.12509109124E+03 0.  0.
          5    1    3    3  502    0  0.59353898272E+01  0.35859112595E+02  0.39066282847E+02  0.53523374931E+02  0.41800000000E+01 0. -1.
         -5    1    3    3    0  502 -0.40478309391E+02 -0.99077565862E+02  0.15176206099E+03  0.18575266658E+03  0.41800000000E+01 0. -1.
        -11    1    1    2    0    0  0.20539680770E+02  0.48924007087E+02  0.92072579067E+02  0.10626757159E+03  0.00000000000E+00 0. -1.
         11    1    1    2    0    0  0.14003238794E+02  0.14294446179E+02 -0.24359318284E+02  0.31524566223E+02  0.00000000000E+00 0.  1.
</event>
<event>
 7    1  0.2873461E-009  0.8229737E+02  0.7561462E-02  0.1322655E+00
          1   -1    0    0  501    0  0.00000000000E+00  0.00000000000E+00  0.24485068284E+03  0.24485068284E+03  0.00000000000E+00 0. -1.
         -1   -1    0    0    0  501 -0.00000000000E+00 -0.00000000000E+00 -0.49214033126E+02  0.49214033126E+02  0.00000000000E+00 0.  1.
         25    2    1    2    0    0 -0.36707779357E+01  0.18084788074E+02  0.12640465350E+03  0.17878811490E+03  0.12508604811E+03 0.  0.
          5    1    3    3  502    0 -0.37503290268E+02 -0.20174625873E+02  0.11968710641E+03  0.12710620815E+03  0.41800000000E+01 0. -1.
         -5    1    3    3    0  502  0.33832512333E+02  0.38259413948E+02  0.67175470939E+01  0.51681906750E+02  0.41800000000E+01 0. -1.
        -11    1    1    2    0    0  0.25584622103E+02  0.15900787089E+02  0.68501186194E+02  0.74831947911E+02  0.00000000000E+00 0. -1.
         11    1    1    2    0    0 -0.21913844168E+02 -0.33985575163E+02  0.73081001705E+00  0.40444653153E+02  0.00000000000E+00 0.  1.
</event>
<event>
 7    1  0.3032857E-009  0.1448144E+03  0.7561462E-02  0.1206994E+00
          2   -1    0    0  501    0  0.00000000000E+00  0.00000000000E+00  0.31724111567E+03  0.31724111567E+03  0.00000000000E+00 0. -1.
         -2   -1    0    0    0  501 -0.00000000000E+00 -0.00000000000E+00 -0.10669148518E+03  0.10669148518E+03  0.00000000000E+00 0.  1.
         25    2    1    2    0    0  0.10484766797E+03 -0.58010939614E+02  0.10614043703E+02  0.17354915289E+03  0.12509335694E+03 0.  0.
          5    1    3    3  502    0  0.11359942386E+03 -0.13879695852E+02  0.38063408774E+02  0.12068044807E+03  0.41800000000E+01 0.  1.
         -5    1    3    3    0  502 -0.87517558859E+01 -0.44131243761E+02 -0.27449365072E+02  0.52868704825E+02  0.41800000000E+01 0.  1.
        -11    1    1    2    0    0 -0.72996589154E+02  0.64509659657E+02  0.79803637625E+02  0.12593100808E+03  0.00000000000E+00 0.  1.
         11    1    1    2    0    0 -0.31851078818E+02 -0.64987200435E+01  0.12013194916E+03  0.12445243989E+03  0.00000000000E+00 0. -1.
</event>
<event>
 7    1  0.2873461E-009  0.1525120E+03  0.7561462E-02  0.1197420E+00
          1   -1    0    0  501    0  0.00000000000E+00  0.00000000000E+00  0.85447088732E+03  0.85447088732E+03  0.00000000000E+00 0. -1.
         -1   -1    0    0    0  501 -0.00000000000E+00 -0.00000000000E+00 -0.47829202143E+02  0.47829202143E+02  0.00000000000E+00 0.  1.
         25    2    1    2    0    0  0.10551533161E+03  0.10476537610E+03  0.61266022557E+03  0.64273556124E+03  0.12508869034E+03 0.  0.
          5    1    3    3  502    0  0.81674129625E+02  0.99588111485E+02  0.60225145784E+03  0.61588371164E+03  0.41800000000E+01 0.  1.
         -5    1    3    3    0  502  0.23841201985E+02  0.51772646194E+01  0.10408767731E+02  0.26851849595E+02  0.41800000000E+01 0.  1.
        -11    1    1    2    0    0 -0.50824505179E+02 -0.30835176392E+02  0.19905647830E+02  0.62691093828E+02  0.00000000000E+00 0.  1.
         11    1    1    2    0    0 -0.54690826431E+02 -0.73930199712E+02  0.17407581178E+03  0.19687343440E+03  0.00000000000E+00 0. -1.
</event>
<event>
 7    1  0.2873461E-009  0.1106089E+03  0.7561462E-02  0.1259446E+00
         -2   -1    0    0    0  501 -0.00000000000E+00  0.00000000000E+00  0.10727746838E+03  0.10727746838E+03  0.00000000000E+00 0. -1.
          2   -1    0    0  501    0  0.00000000000E+00 -0.00000000000E+00 -0.15659244434E+03  0.15659244434E+03  0.00000000000E+00 0.  1.
         25    2    1    2    0    0  0.16901253885E+02  0.62685883356E+02 -0.48587966730E+02  0.14907562888E+03  0.12509028843E+03 0.  0.
          5    1    3    3  502    0  0.68017397780E+02  0.51095445949E+02 -0.14464701416E+02  0.86393350349E+02  0.41800000000E+01 0. -1.
         -5    1    3    3    0  502 -0.51116143895E+02  0.11590437407E+02 -0.34123265314E+02  0.62682278529E+02  0.41800000000E+01 0. -1.
        -11    1    1    2    0    0 -0.16529677090E+02  0.38131561909E+01 -0.35797241737E+02  0.39613291971E+02  0.00000000000E+00 0.  1.
         11    1    1    2    0    0 -0.37157679491E+00 -0.66499039547E+02  0.35070232507E+02  0.75180991867E+02  0.00000000000E+00 0. -1.
</event>
<event>
 7    1  0.2873461E-009  0.1605058E+03  0.7561462E-02  0.1188127E+00
         -1   -1    0    0    0  501 -0.00000000000E+00  0.00000000000E+00  0.98936430693E+03  0.98936430693E+03  0.00000000000E+00 0.  1.
          1   -1    0    0  501    0  0.00000000000E+00 -0.00000000000E+00 -0.33921332226E+02  0.33921332226E+02  0.00000000000E+00 0. -1.
         25    2    1    2    0    0 -0.85238162453E+02  0.10656277489E+03  0.66562960960E+03  0.69089155320E+03  0.12508873564E+03 0.  0.
          5    1    3    3  502    0 -0.26641781077E+02 -0.26645052931E+02  0.17802118997E+03  0.18201307597E+03  0.41800000000E+01 0.  1.
         -5    1    3    3    0  502 -0.58596381376E+02  0.13320782782E+03  0.48760841962E+03  0.50887847723E+03  0.41800000000E+01 0.  1.
        -11    1    1    2    0    0  0.74632672124E+01 -0.18920594813E+02  0.60325377016E+00  0.20348296751E+02  0.00000000000E+00 0. -1.
         11    1    1    2    0    0  0.77774895241E+02 -0.87642180076E+02  0.28921011133E+03  0.31204578920E+03  0.00000000000E+00 0.  1.
</event>
<event>
 7    1  0.2873461E-009  0.1781533E+03  0.7561462E-02  0.1169602E+00
         -2   -1    0    0    0  501 -0.00000000000E+00  0.00000000000E+00  0.22811748218E+03  0.22811748218E+03  0.00000000000E+00 0.  1.
          2   -1    0    0  501    0  0.00000000000E+00 -0.00000000000E+00 -0.15171330991E+03  0.15171330991E+03  0.00000000000E+00 0. -1.
         25    2    1    2    0    0 -0.87681256381E+02  0.12724782118E+03  0.35098156214E+02  0.20188960547E+03  0.12509005361E+03 0.  0.
          5    1    3    3  502    0 -0.33120031142E+02 -0.17252464037E+02 -0.13474833328E+02  0.39920264421E+02  0.41800000000E+01 0.  1.
         -5    1    3    3    0  502 -0.54561225239E+02  0.14450028522E+03  0.48572989542E+02  0.16196934105E+03  0.41800000000E+01 0.  1.
        -11    1    1    2    0    0  0.60082144760E+01 -0.54531114296E+02 -0.12196946967E+02  0.56200592372E+02  0.00000000000E+00 0. -1.
         11    1    1    2    0    0  0.81673041905E+02 -0.72716706884E+02  0.53502963025E+02  0.12174059424E+03  0.00000000000E+00 0.  1.
</event>
<event>
 7    1  0.2873461E-009  0.1036059E+03  0.7561462E-02  0.1272891E+00
          2   -1    0    0  501    0  0.00000000000E+00  0.00000000000E+00  0.40467383859E+02  0.40467383859E+02  0.00000000000E+00 0. -1.
         -2   -1    0    0    0  501 -0.00000000000E+00 -0.00000000000E+00 -0.34306830383E+03  0.34306830383E+03  0.00000000000E+00 0.  1.
         25    2    1    2    0    0  0.11890195873E+02  0.11879642095E+02 -0.21370215035E+03  0.24819496627E+03  0.12509847946E+03 0.  0.
          5    1    3    3  502    0 -0.43496078059E+02 -0.13354351127E+02 -0.30081305091E+02  0.54704705615E+02  0.41800000000E+01 0. -1.
         -5    1    3    3    0  502  0.55386273932E+02  0.25233993222E+02 -0.18362084526E+03  0.19349026065E+03  0.41800000000E+01 0. -1.
        -11    1    1    2    0    0 -0.23894248523E+02 -0.52753696832E+02 -0.62584821068E+02  0.85268678130E+02  0.00000000000E+00 0. -1.
         11    1    1    2    0    0  0.12004052651E+02  0.40874054737E+02 -0.26313948550E+02  0.50072043287E+02  0.00000000000E+00 0.  1.
</event>
<event>
 7    1  0.2873461E-009  0.8750004E+02  0.7561462E-02  0.1309021E+00
         -2   -1    0    0    0  501 -0.00000000000E+00  0.00000000000E+00  0.43778853976E+03  0.43778853976E+03  0.00000000000E+00 0. -1.
          2   -1    0    0  501    0  0.00000000000E+00 -0.00000000000E+00 -0.31789597839E+02  0.31789597839E+02  0.00000000000E+00 0.  1.
         25    2    1    2    0    0 -0.40520324160E+01  0.40456732204E+02  0.24619668541E+03  0.27912948086E+03  0.12508914035E+03 0.  0.
          5    1    3    3  502    0 -0.20053038090E+02 -0.32157541159E+02  0.24653481596E+02  0.45403726111E+02  0.41800000000E+01 0.  1.
         -5    1    3    3    0  502  0.16001005674E+02  0.72614273362E+02  0.22154320381E+03  0.23372575475E+03  0.41800000000E+01 0.  1.
        -11    1    1    2    0    0  0.23619376796E+02 -0.88451030068E+01  0.14985593869E+03  0.15196352578E+03  0.00000000000E+00 0. -1.
         11    1    1    2    0    0 -0.19567344380E+02 -0.31611629197E+02  0.99463178271E+01  0.38485130959E+02  0.00000000000E+00 0.  1.
</event>
<event>
 7    1  0.2873461E-009  0.1035284E+03  0.7561462E-02  0.1273046E+00
         -1   -1    0    0    0  501 -0.00000000000E+00  0.00000000000E+00  0.35662605545E+02  0.35662605545E+02  0.00000000000E+00 0.  1.
          1   -1    0    0  501    0  0.00000000000E+00 -0.00000000000E+00 -0.56538472008E+03  0.56538472008E+03  0.00000000000E+00 0. -1.
         25    2    1    2    0    0  0.28936910149E+02  0.52544674082E+02 -0.14304862047E+03  0.19927246118E+03  0.12509323892E+03 0.  0.
          5    1    3    3  502    0  0.63345110906E+02  0.29635561316E+02 -0.14126812172E+03  0.15768647433E+03  0.41800000000E+01 0.  1.
         -5    1    3    3    0  502 -0.34408200757E+02  0.22909112766E+02 -0.17804987520E+01  0.41585986857E+02  0.41800000000E+01 0.  1.
        -11    1    1    2    0    0 -0.30879272970E+02  0.10317430392E+02 -0.52809967547E+02  0.62039274184E+02  0.00000000000E+00 0.  1.
         11    1    1    2    0    0  0.19423628211E+01 -0.62862104474E+02 -0.33386352651E+03  0.33973559026E+03  0.00000000000E+00 0. -1.
</event>
<event>
 7    1  0.2873461E-009  0.1193560E+03  0.7561462E-02  0.1244163E+00
          3   -1    0    0  501    0  0.00000000000E+00  0.00000000000E+00  0.48343101027E+02  0.48343101027E+02  0.00000000000E+00 0. -1.
         -3   -1    0    0    0  501 -0.00000000000E+00 -0.00000000000E+00 -0.32625146239E+03  0.32625146239E+03  0.00000000000E+00 0.  1.
         25    2    1    2    0    0 -0.47688732228E+01 -0.63100937661E+02 -0.13814547073E+03  0.19681410821E+03  0.12508857510E+03 0.  0.
          5    1    3    3  502    0  0.44782933670E+02 -0.65818426734E+02 -0.45912880574E+02  0.91994790334E+02  0.41800000000E+01 0. -1.
         -5    1    3    3    0  502 -0.49551806893E+02  0.27174890737E+01 -0.92232590154E+02  0.10481931787E+03  0.41800000000E+01 0. -1.
        -11    1    1    2    0    0  0.83972685844E+00  0.85976609859E+02 -0.10143835327E+03  0.13297526874E+03  0.00000000000E+00 0.  1.
         11    1    1    2    0    0  0.39291463644E+01 -0.22875672198E+02 -0.38324537368E+02  0.44805186465E+02  0.00000000000E+00 0. -1.
</event>
<event>
 7    1  0.2873461E-009  0.8972208E+02  0.7561462E-02  0.1303526E+00
          1   -1    0    0  501    0  0.00000000000E+00  0.00000000000E+00  0.60897460195E+02  0.60897460195E+02  0.00000000000E+00 0. -1.
         -1   -1    0    0    0  501 -0.00000000000E+00 -0.00000000000E+00 -0.19214152548E+03  0.19214152548E+03  0.00000000000E+00 0.  1.
         25    2    1    2    0    0 -0.65041385067E+01 -0.11156114089E+02 -0.85893331229E+02  0.15229035114E+03  0.12509166240E+03 0.  0.
          5    1    3    3  502    0  0.45934180776E+02 -0.32257560530E+02 -0.93650389912E+01  0.57058527235E+02  0.41800000000E+01 0.  1.
         -5    1    3    3    0  502 -0.52438319283E+02  0.21101446441E+02 -0.76528292238E+02  0.95231823903E+02  0.41800000000E+01 0.  1.
        -11    1    1    2    0    0  0.29063853025E+02  0.26391155375E+02  0.87173230240E+01  0.40214330225E+02  0.00000000000E+00 0. -1.
         11    1    1    2    0    0 -0.22559714519E+02 -0.15235041286E+02 -0.54068057078E+02  0.60534304310E+02  0.00000000000E+00 0.  1.
</event>
<event>
 7    1  0.3286349E-009  0.1105500E+03  0.7561462E-02  0.1259555E+00
         -2   -1    0    0    0  501 -0.00000000000E+00  0.00000000000E+00  0.20439821103E+02  0.20439821103E+02  0.00000000000E+00 0.  1.
          2   -1    0    0  501    0  0.00000000000E+00 -0.00000000000E+00 -0.10024464544E+04  0.10024464544E+04  0.00000000000E+00 0. -1.
         25    2    1    2    0    0 -0.87876316907E+01 -0.85624408612E+02 -0.65796075762E+03  0.67525426570E+03  0.12508878028E+03 0.  0.
          5    1    3    3  502    0  0.43276111180E+02 -0.13916252251E+02 -0.39722387410E+03  0.39983842040E+03  0.41800000000E+01 0.  1.
         -5    1    3    3    0  502 -0.52063742871E+02 -0.71708156361E+02 -0.26073688353E+03  0.27541584530E+03  0.41800000000E+01 0.  1.
        -11    1    1    2    0    0  0.72215769342E+01  0.23344017059E+02 -0.83122769199E+01  0.25810622880E+02  0.00000000000E+00 0.  1.
         11    1    1    2    0    0  0.15660547565E+01  0.62280391553E+02 -0.31573359876E+03  0.32182138693E+03  0.00000000000E+00 0. -1.
</event>
<event>
 7    1  0.2873461E-009  0.1150733E+03  0.7561462E-02  0.1251453E+00
          1   -1    0    0  501    0  0.00000000000E+00  0.00000000000E+00  0.20390241851E+03  0.20390241851E+03  0.00000000000E+00 0. -1.
         -1   -1    0    0    0  501 -0.00000000000E+00 -0.00000000000E+00 -0.11371569339E+03  0.11371569339E+03  0.00000000000E+00 0.  1.
         25    2    1    2    0    0 -0.68238565972E+02  0.62455849566E+02  0.10371560232E+03  0.18698164796E+03  0.12509186816E+03 0.  0.
          5    1    3    3  502    0 -0.37194025687E+02 -0.12643509731E+02 -0.15672285667E+02  0.42501139081E+02  0.41800000000E+01 0. -1.
         -5    1    3    3    0  502 -0.31044540285E+02  0.75099359297E+02  0.11938788799E+03  0.14448050888E+03  0.41800000000E+01 0. -1.
        -11    1    1    2    0    0 -0.10135518791E+02 -0.21037617883E+01 -0.28747202822E+02  0.30554152335E+02  0.00000000000E+00 0.  1.
         11    1    1    2    0    0  0.78374084763E+02 -0.60352087777E+02  0.15218325622E+02  0.10008231161E+03  0.00000000000E+00 0. -1.
</event>
<event>
 7    1  0.2873461E-009  0.1168878E+03  0.7561462E-02  0.1248321E+00
          1   -1    0    0  501    0  0.00000000000E+00  0.00000000000E+00  0.98532025396E+01  0.98532025396E+01  0.00000000000E+00 0. -1.
         -1   -1    0    0    0  501 -0.00000000000E+00 -0.00000000000E+00 -0.14953819067E+04  0.14953819067E+04  0.00000000000E+00 0.  1.
         25    2    1    2    0    0  0.33374840428E+02  0.41283212138E+02 -0.92641857660E+03  0.93633134916E+03  0.12508730055E+03 0.  0.
          5    1    3    3  502    0  0.13008178448E+01  0.79134179793E+02 -0.70179275921E+03  0.70625382110E+03  0.41800000000E+01 0. -1.
         -5    1    3    3    0  502  0.32074022583E+02 -0.37850967655E+02 -0.22462581739E+03  0.23007752806E+03  0.41800000000E+01 0. -1.
        -11    1    1    2    0    0 -0.53530838849E+02  0.54790214129E+01 -0.31119960790E+03  0.31581761563E+03  0.00000000000E+00 0. -1.
         11    1    1    2    0    0  0.20155998421E+02 -0.46762233551E+02 -0.24791051968E+03  0.25308614448E+03  0.00000000000E+00 0.  1.
</event>
<event>
 7    1  0.2873461E-009  0.1328889E+03  0.7561462E-02  0.1223231E+00
          2   -1    0    0  501    0  0.00000000000E+00  0.00000000000E+00  0.19875147913E+03  0.19875147913E+03  0.00000000000E+00 0. -1.
         -2   -1    0    0    0  501 -0.00000000000E+00 -0.00000000000E+00 -0.93366912709E+02  0.93366912709E+02  0.00000000000E+00 0.  1.
         25    2    1    2    0    0 -0.61529379379E+02  0.47183292649E+02  0.85621474485E+02  0.17026834086E+03  0.12509253925E+03 0.  0.
          5    1    3    3  502    0  0.21085361679E+02 -0.27846652640E+02  0.25379251513E+02  0.43377498173E+02  0.41800000000E+01 0. -1.
         -5    1    3    3    0  502 -0.82614741058E+02  0.75029945289E+02  0.60242222972E+02  0.12689084269E+03  0.41800000000E+01 0. -1.
        -11    1    1    2    0    0 -0.12146028344E+02  0.17214561479E+02  0.10557226592E+02  0.23565274553E+02  0.00000000000E+00 0.  1.
         11    1    1    2    0    0  0.73675407723E+02 -0.64397854128E+02  0.92058653434E+01  0.98284776421E+02  0.00000000000E+00 0. -1.
</event>
<event>
 7    1  0.2873461E-009  0.1341431E+03  0.7561462E-02  0.1221434E+00
          1   -1    0    0  501    0  0.00000000000E+00  0.00000000000E+00  0.62366021430E+03  0.62366021430E+03  0.00000000000E+00 0. -1.
         -1   -1    0    0    0  501 -0.00000000000E+00 -0.00000000000E+00 -0.46553269537E+02  0.46553269537E+02  0.00000000000E+00 0.  1.
         25    2    1    2    0    0  0.12783660626E+02  0.80797342092E+02  0.10541595459E+03  0.18289368037E+03  0.12508374143E+03 0.  0.
          5    1    3    3  502    0 -0.14865000219E+00  0.11213560462E+03  0.63902358294E+02  0.12913326339E+03  0.41800000000E+01 0.  1.
         -5    1    3    3    0  502  0.12932310629E+02 -0.31338262524E+02  0.41513596296E+02  0.53760416978E+02  0.41800000000E+01 0.  1.
        -11    1    1    2    0    0 -0.18845129992E+02  0.16125103230E+02  0.79163876829E+02  0.82958286344E+02  0.00000000000E+00 0. -1.
         11    1    1    2    0    0  0.60614693651E+01 -0.96922445321E+02  0.39252711334E+03  0.40436151712E+03  0.00000000000E+00 0.  1.
</event>
<event>
 7    1  0.2873461E-009  0.9689453E+02  0.7561462E-02  0.1286965E+00
         -2   -1    0    0    0  501 -0.00000000000E+00  0.00000000000E+00  0.16786274528E+03  0.16786274528E+03  0.00000000000E+00 0.  1.
          2   -1    0    0  501    0  0.00000000000E+00 -0.00000000000E+00 -0.12513502203E+03  0.12513502203E+03  0.00000000000E+00 0. -1.
         25    2    1    2    0    0 -0.58157962520E+02 -0.27081684773E+02 -0.48691148007E+02  0.14877574016E+03  0.12509047410E+03 0.  0.
          5    1    3    3  502    0 -0.74462721048E+02  0.42771537253E+01 -0.73964262168E+02  0.10512457062E+03  0.41800000000E+01 0.  1.
         -5    1    3    3    0  502  0.16304758528E+02 -0.31358838499E+02  0.25273114161E+02  0.43651169538E+02  0.41800000000E+01 0.  1.
        -11    1    1    2    0    0  0.21349610398E+02  0.39289929673E+02  0.95279143729E+02  0.10525027158E+03  0.00000000000E+00 0.  1.
         11    1    1    2    0    0  0.36808352122E+02 -0.12208244900E+02 -0.38602724706E+01  0.38971755580E+02  0.00000000000E+00 0. -1.
</event>
<event>
 7    1  0.2873461E-009  0.1929633E+03  0.7561462E-02  0.1155815E+00
         -2   -1    0    0    0  501 -0.00000000000E+00  0.00000000000E+00  0.70887446842E+02  0.70887446842E+02  0.00000000000E+00 0.  1.
          2   -1    0    0  501    0  0.00000000000E+00 -0.00000000000E+00 -0.68948800835E+03  0.68948800835E+03  0.00000000000E+00 0. -1.
         25    2    1    2    0    0  0.10076243098E+03  0.14230845701E+03 -0.17890880067E+03  0.27939245005E+03  0.12508804000E+03 0.  0.
          5    1    3    3  502    0  0.14404401435E+02  0.12153441994E+03 -0.12703899681E+03  0.17644965605E+03  0.41800000000E+01 0. -1.
         -5    1    3    3    0  502  0.86358029540E+02  0.20774037078E+02 -0.51869803862E+02  0.10294279399E+03  0.41800000000E+01 0. -1.
        -11    1    1    2    0    0 -0.57395268995E+02 -0.87787771717E+02 -0.36079558078E+03  0.37573176720E+03  0.00000000000E+00 0. -1.
         11    1    1    2    0    0 -0.43367161981E+02 -0.54520685298E+02 -0.78896180051E+02  0.10525123795E+03  0.00000000000E+00 0.  1.
</event>
<event>
 7    1  0.2873461E-009  0.1262237E+03  0.7561462E-02  0.1233169E+00
          3   -1    0    0  501    0  0.00000000000E+00  0.00000000000E+00  0.29367576782E+03  0.29367576782E+03  0.00000000000E+00 0. -1.
         -3   -1    0    0    0  501 -0.00000000000E+00 -0.00000000000E+00 -0.85871571380E+02  0.85871571380E+02  0.00000000000E+00 0.  1.
         25    2    1    2    0    0 -0.65771201609E+02  0.90963469441E+02  0.14397816746E+03  0.22131159820E+03  0.12509559167E+03 0.  0.
          5    1    3    3  502    0 -0.16388731651E+02  0.28092286724E+02  0.13709357937E+03  0.14096059379E+03  0.41800000000E+01 0.  1.
         -5    1    3    3    0  502 -0.49382469959E+02  0.62871182717E+02  0.68845880965E+01  0.80351004404E+02  0.41800000000E+01 0.  1.
        -11    1    1    2    0    0  0.74471917745E+02 -0.10152941725E+03  0.42495641541E+02  0.13289156726E+03  0.00000000000E+00 0.  1.
         11    1    1    2    0    0 -0.87007161354E+01  0.10565947810E+02  0.21330387439E+02  0.25344173742E+02  0.00000000000E+00 0. -1.
</event>
<event>
 7    1  0.2873461E-009  0.1395587E+03  0.7561462E-02  0.1213924E+00
         -2   -1    0    0    0  501 -0.00000000000E+00  0.00000000000E+00  0.29742203582E+02  0.29742203582E+02  0.00000000000E+00 0.  1.
          2   -1    0    0  501    0  0.00000000000E+00 -0.00000000000E+00 -0.92942647127E+03  0.92942647127E+03  0.00000000000E+00 0. -1.
         25    2    1    2    0    0  0.10669577676E+03 -0.36595473671E+02 -0.68922702386E+03  0.70951044071E+03  0.12509179661E+03 0.  0.
          5    1    3    3  502    0  0.61882296609E+02 -0.68152397000E+02 -0.24257161944E+03  0.25948531906E+03  0.41800000000E+01 0. -1.
         -5    1    3    3    0  502  0.44813480146E+02  0.31556923329E+02 -0.44665540443E+03  0.45002512165E+03  0.41800000000E+01 0. -1.
        -11    1    1    2    0    0 -0.64679512257E+02 -0.14055583793E+02 -0.12853967263E+03  0.14458024132E+03  0.00000000000E+00 0. -1.
         11    1    1    2    0    0 -0.42016264498E+02  0.50651057464E+02 -0.81917571201E+02  0.10507799282E+03  0.00000000000E+00 0.  1.
</event>
<event>
 7    1  0.2873461E-009  0.1847901E+03  0.7561462E-02  0.1163246E+00
         -1   -1    0    0    0  501 -0.00000000000E+00  0.00000000000E+00  0.24427293110E+03  0.24427293110E+03  0.00000000000E+00 0.  1.
          1   -1    0    0  501    0  0.00000000000E+00 -0.00000000000E+00 -0.17739121868E+03  0.17739121868E+03  0.00000000000E+00 0. -1.
         25    2    1    2    0    0  0.16501045581E+03 -0.34736352771E+01 -0.32370920067E+02  0.20960871510E+03  0.12508964910E+03 0.  0.
          5    1    3    3  502    0  0.93132958849E+02 -0.61818424862E+02 -0.13016281820E+01  0.11186792352E+03  0.41800000000E+01 0.  1.
         -5    1    3    3    0  502  0.71877496958E+02  0.58344789585E+02 -0.31069291885E+02  0.97740791581E+02  0.41800000000E+01 0.  1.
        -11    1    1    2    0    0 -0.43051923797E+02  0.58410861701E+00 -0.14324395657E+02  0.45376179174E+02  0.00000000000E+00 0. -1.
         11    1    1    2    0    0 -0.12195853201E+03  0.28895266601E+01  0.11357702815E+03  0.16667925551E+03  0.00000000000E+00 0.  1.
</event>
<event>
 7    1  0.2873461E-009  0.1049978E+03  0.7561462E-02  0.1270124E+00
         -2   -1    0    0    0  501 -0.00000000000E+00  0.00000000000E+00  0.10852271329E+03  0.10852271329E+03  0.00000000000E+00 0.  1.
          2   -1    0    0  501    0  0.00000000000E+00 -0.00000000000E+00 -0.11823259505E+03  0.11823259505E+03  0.00000000000E+00 0. -1.
         25    2    1    2    0    0  0.60447153778E+01  0.30469524052E+02  0.20452293627E+00  0.12889003744E+03  0.12509064490E+03 0.  0.
          5    1    3    3  502    0 -0.39670407938E+02 -0.26481390914E+02  0.21815639639E+02  0.52615585747E+02  0.41800000000E+01 0.  1.
         -5    1    3    3    0  502  0.45715123315E+02  0.56950914966E+02 -0.21611116703E+02  0.76274451688E+02  0.41800000000E+01 0.  1.
        -11    1    1    2    0    0 -0.43827954244E+02 -0.67217125049E+01  0.14933225654E+02  0.46787522061E+02  0.00000000000E+00 0.  1.
         11    1    1    2    0    0  0.37783238866E+02 -0.23747811547E+02 -0.24847630349E+02  0.51077748839E+02  0.00000000000E+00 0. -1.
</event>
<event>
 6    1  0.2873461E-009  0.4756104E+03  0.7561462E-02  0.1020349E+00
         -2   -1    0    0    0  501 -0.00000000000E+00  0.00000000000E+00  0.57421424689E+03  0.57421424689E+03  0.00000000000E+00 0.  1.
          2   -1    0    0  501    0  0.00000000000E+00 -0.00000000000E+00 -0.56146748112E+03  0.56146748112E+03  0.00000000000E+00 0. -1.
          5    1    1    2  502    0  0.24399205172E+03  0.31183137613E+03  0.24543005598E+03  0.46585868375E+03  0.41800000000E+01 0. -1.
         -5    1    1    2    0  502 -0.10018059822E+01  0.87419319086E+02  0.64269978744E+02  0.10858749252E+03  0.41800000000E+01 0. -1.
        -11    1    1    2    0    0 -0.22136824628E+03 -0.37275680331E+03 -0.29952656389E+03  0.52694183489E+03  0.00000000000E+00 0. -1.
         11    1    1    2    0    0 -0.21621999455E+02 -0.26493891912E+02  0.25732949408E+01  0.34293716858E+02  0.00000000000E+00 0.  1.
</event>
<event>
 7    1  0.2873461E-009  0.1810063E+03  0.7561462E-02  0.1166833E+00
         -2   -1    0    0    0  501 -0.00000000000E+00  0.00000000000E+00  0.61583592203E+02  0.61583592203E+02  0.00000000000E+00 0.  1.
          2   -1    0    0  501    0  0.00000000000E+00 -0.00000000000E+00 -0.62297671135E+03  0.62297671135E+03  0.00000000000E+00 0. -1.
         25    2    1    2    0    0 -0.15397197523E+03 -0.47467578841E+02 -0.31133697870E+03  0.37220590306E+03  0.12508389092E+03 0.  0.
          5    1    3    3  502    0 -0.33515364134E+02 -0.63535811780E+02 -0.17669284151E+03  0.19078236725E+03  0.41800000000E+01 0.  1.
         -5    1    3    3    0  502 -0.12045661110E+03  0.16068232939E+02 -0.13464413719E+03  0.18142353581E+03  0.41800000000E+01 0.  1.
        -11    1    1    2    0    0  0.42365413821E+02 -0.91101030953E+01 -0.13709340816E+03  0.14377908341E+03  0.00000000000E+00 0. -1.
         11    1    1    2    0    0  0.11160656141E+03  0.56577681937E+02 -0.11296273229E+03  0.16857531708E+03  0.00000000000E+00 0.  1.
</event>
<event>
 7    1  0.2873461E-009  0.8670535E+02  0.7561462E-02  0.1311032E+00
         -2   -1    0    0    0  501 -0.00000000000E+00  0.00000000000E+00  0.22803430085E+02  0.22803430085E+02  0.00000000000E+00 0.  1.
          2   -1    0    0  501    0  0.00000000000E+00 -0.00000000000E+00 -0.64242044682E+03  0.64242044682E+03  0.00000000000E+00 0. -1.
         25    2    1    2    0    0  0.53304095995E+02 -0.13388152041E+02 -0.37358000726E+03  0.39777547109E+03  0.12507091714E+03 0.  0.
          5    1    3    3  502    0  0.35902704816E+02 -0.27877635507E+02 -0.37189647638E+03  0.37468737411E+03  0.41800000000E+01 0.  1.
         -5    1    3    3    0  502  0.17401391179E+02  0.14489483466E+02 -0.16835308812E+01  0.23088096983E+02  0.41800000000E+01 0.  1.
        -11    1    1    2    0    0 -0.15479507942E+02 -0.37940762574E+02 -0.10248821850E+03  0.11037640854E+03  0.00000000000E+00 0.  1.
         11    1    1    2    0    0 -0.37824588053E+02  0.51328914615E+02 -0.14354879098E+03  0.15707199728E+03  0.00000000000E+00 0. -1.
</event>
<event>
 7    1  0.2873461E-009  0.9876263E+02  0.7561462E-02  0.1282920E+00
         -4   -1    0    0    0  501 -0.00000000000E+00  0.00000000000E+00  0.57553275311E+02  0.57553275311E+02  0.00000000000E+00 0.  1.
          4   -1    0    0  501    0  0.00000000000E+00 -0.00000000000E+00 -0.35104334196E+03  0.35104334196E+03  0.00000000000E+00 0. -1.
         25    2    1    2    0    0 -0.37024450127E+02  0.48608697212E+02 -0.25760155803E+03  0.29281313133E+03  0.12508937536E+03 0.  0.
          5    1    3    3  502    0  0.13244523878E+02  0.33274892731E+02 -0.23093180152E+03  0.23372976971E+03  0.41800000000E+01 0. -1.
         -5    1    3    3    0  502 -0.50268974005E+02  0.15333804481E+02 -0.26669756518E+02  0.59083361618E+02  0.41800000000E+01 0. -1.
        -11    1    1    2    0    0 -0.77292213305E+01 -0.61649148778E+02 -0.29339875628E+02  0.68710892218E+02  0.00000000000E+00 0. -1.
         11    1    1    2    0    0  0.44753671458E+02  0.13040451567E+02 -0.65486329930E+01  0.47072593726E+02  0.00000000000E+00 0.  1.
</event>
<event>
 7    1  0.2873461E-009  0.1053368E+03  0.7561462E-02  0.1269457E+00
          2   -1    0    0  501    0  0.00000000000E+00  0.00000000000E+00  0.29835306859E+03  0.29835306859E+03  0.00000000000E+00 0. -1.
         -2   -1    0    0    0  501 -0.00000000000E+00 -0.00000000000E+00 -0.62903539373E+02  0.62903539373E+02  0.00000000000E+00 0.  1.
         25    2    1    2    0    0 -0.75467039083E+02  0.37738121004E+02  0.12341976172E+03  0.19493424482E+03  0.12508989750E+03 0.  0.
          5    1    3    3  502    0 -0.88861482659E+02  0.53539413714E+02  0.13541226613E+03  0.17063641504E+03  0.41800000000E+01 0. -1.
         -5    1    3    3    0  502  0.13394443577E+02 -0.15801292710E+02 -0.11992504407E+02  0.24297829779E+02  0.41800000000E+01 0. -1.
        -11    1    1    2    0    0  0.45963106506E+02 -0.14624479560E+02  0.11881620915E+03  0.12823328008E+03  0.00000000000E+00 0. -1.
         11    1    1    2    0    0  0.29503932576E+02 -0.23113641444E+02 -0.67864416556E+01  0.38089083063E+02  0.00000000000E+00 0.  1.
</event>
<event>
 7    1  0.2873461E-009  0.1449388E+03  0.7561462E-02  0.1206834E+00
          2   -1    0    0  501    0  0.00000000000E+00  0.00000000000E+00  0.14753119815E+04  0.14753119815E+04  0.00000000000E+00 0. -1.
         -2   -1    0    0    0  501 -0.00000000000E+00 -0.00000000000E+00 -0.25714630812E+02  0.25714630812E+02  0.00000000000E+00 0.  1.
         25    2    1    2    0    0 -0.22120733250E+02 -0.10774677063E+03  0.12022215151E+04  0.12137063117E+04  0.12509095155E+03 0.  0.
          5    1    3    3  502    0  0.34522739083E+02 -0.18336759268E+02  0.11916680638E+03  0.12548408822E+03  0.41800000000E+01 0. -1.
         -5    1    3    3    0  502 -0.56643472333E+02 -0.89410011357E+02  0.10830547087E+04  0.10882222234E+04  0.41800000000E+01 0. -1.
        -11    1    1    2    0    0 -0.32257379761E+02  0.73782430318E+02  0.11700126837E+03  0.14203408877E+03  0.00000000000E+00 0. -1.
         11    1    1    2    0    0  0.54378113011E+02  0.33964340307E+02  0.13037456722E+03  0.14528621188E+03  0.00000000000E+00 0.  1.
</event>
<event>
 7    1  0.2873461E-009  0.8472486E+02  0.7561462E-02  0.1316154E+00
         -1   -1    0    0    0  501 -0.00000000000E+00  0.00000000000E+00  0.17677969481E+03  0.17677969481E+03  0.00000000000E+00 0.  1.
          1   -1    0    0  501    0  0.00000000000E+00 -0.00000000000E+00 -0.11602298854E+03  0.11602298854E+03  0.00000000000E+00 0. -1.
         25    2    1    2    0    0 -0.54846106796E+02 -0.48746642055E+02 -0.22626712296E+02  0.14678131575E+03  0.12509378882E+03 0.  0.
          5    1    3    3  502    0 -0.48439210456E+02 -0.20064519907E+02 -0.72003765983E+02  0.89168137720E+02  0.41800000000E+01 0. -1.
         -5    1    3    3    0  502 -0.64068963394E+01 -0.28682122148E+02  0.49377053687E+02  0.57613178027E+02  0.41800000000E+01 0. -1.
        -11    1    1    2    0    0  0.50405187350E+02  0.58037708657E+02  0.10020760643E+03  0.12629577556E+03  0.00000000000E+00 0.  1.
         11    1    1    2    0    0  0.44409194457E+01 -0.92910666019E+01 -0.16824187859E+02  0.19725592038E+02  0.00000000000E+00 0. -1.
</event>
<event>
 7    1  0.2873461E-009  0.1329414E+03  0.7561462E-02  0.1223155E+00
          1   -1    0    0  501    0  0.00000000000E+00  0.00000000000E+00  0.16956843769E+04  0.16956843769E+04  0.00000000000E+00 0. -1.
         -1   -1    0    0    0  501 -0.00000000000E+00 -0.00000000000E+00 -0.17783603561E+02  0.17783603561E+02  0.00000000000E+00 0.  1.
         25    2    1    2    0    0  0.27303247522E+02  0.12203452766E+03  0.11523123807E+04  0.11658061935E+04  0.12506944044E+03 0.  0.
          5    1    3    3  502    0  0.25936483031E+02  0.50033490600E+02  0.14069118162E+03  0.15161639859E+03  0.41800000000E+01 0. -1.
         -5    1    3    3    0  502  0.13667644910E+01  0.72001037063E+02  0.10116211991E+04  0.10141897950E+04  0.41800000000E+01 0. -1.
        -11    1    1    2    0    0 -0.33642733479E+02 -0.30279133939E+02  0.73547849870E+02  0.86359398380E+02  0.00000000000E+00 0.  1.
         11    1    1    2    0    0  0.63394859574E+01 -0.91755393724E+02  0.45204054274E+03  0.46130238850E+03  0.00000000000E+00 0. -1.
</event>
<event>
 7    1  0.2873461E-009  0.1245531E+03  0.7561462E-02  0.1235769E+00
         -1   -1    0    0    0  501 -0.00000000000E+00  0.00000000000E+00  0.27467464209E+02  0.27467464209E+02  0.00000000000E+00 0.  1.
          1   -1    0    0  501    0  0.00000000000E+00 -0.00000000000E+00 -0.64383189519E+03  0.64383189519E+03  0.00000000000E+00 0. -1.
         25    2    1    2    0    0 -0.26371259747E+02  0.66349309626E+02 -0.26906214178E+03  0.30520020443E+03  0.12512015992E+03 0.  0.
          5    1    3    3  502    0 -0.71307337018E+02  0.10856340767E+02 -0.12568699949E+03  0.14497341373E+03  0.41800000000E+01 0. -1.
         -5    1    3    3    0  502  0.44936077271E+02  0.55492968859E+02 -0.14337514229E+03  0.16022679070E+03  0.41800000000E+01 0. -1.
        -11    1    1    2    0    0 -0.22183243059E+02 -0.48965351301E+02 -0.10057668880E+03  0.11404109886E+03  0.00000000000E+00 0.  1.
         11    1    1    2    0    0  0.48554502806E+02 -0.17383958325E+02 -0.24672560041E+03  0.25205805611E+03  0.00000000000E+00 0. -1.
</event>
<event>
 7    1  0.2873461E-009  0.8595162E+02  0.7561462E-02  0.1312963E+00
          2   -1    0    0  501    0  0.00000000000E+00  0.00000000000E+00  0.45954709875E+03  0.45954709875E+03  0.00000000000E+00 0. -1.
         -2   -1    0    0    0  501 -0.00000000000E+00 -0.00000000000E+00 -0.71569371758E+02  0.71569371758E+02  0.00000000000E+00 0.  1.
         25    2    1    2    0    0  0.66135894349E+01  0.53511532441E+02  0.39549717780E+03  0.41829654356E+03  0.12508699787E+03 0.  0.
          5    1    3    3  502    0 -0.44122089883E+02  0.47253576572E+02  0.32334621576E+03  0.32977250789E+03  0.41800000000E+01 0. -1.
         -5    1    3    3    0  502  0.50735679318E+02  0.62579558691E+01  0.72150962042E+02  0.88524035669E+02  0.41800000000E+01 0. -1.
        -11    1    1    2    0    0 -0.98587499241E+01 -0.21511670131E+02 -0.52463112839E+02  0.57552802804E+02  0.00000000000E+00 0.  1.
         11    1    1    2    0    0  0.32451604892E+01 -0.31999862310E+02  0.44943662027E+02  0.55267124142E+02  0.00000000000E+00 0. -1.
</event>
<event>
 7    1  0.2873461E-009  0.1901194E+03  0.7561462E-02  0.1158354E+00
         -1   -1    0    0    0  501 -0.00000000000E+00  0.00000000000E+00  0.59086379084E+02  0.59086379084E+02  0.00000000000E+00 0. -1.
          1   -1    0    0  501    0  0.00000000000E+00 -0.00000000000E+00 -0.66039243499E+03  0.66039243499E+03  0.00000000000E+00 0.  1.
         25    2    1    2    0    0 -0.64897484354E+02 -0.15038658758E+03 -0.28688027052E+03  0.35323642956E+03  0.12509147195E+03 0.  0.
          5    1    3    3  502    0  0.19713048386E+02  0.11628248681E+02 -0.31617230449E+02  0.39254835439E+02  0.41800000000E+01 0. -1.
         -5    1    3    3    0  502 -0.84610532740E+02 -0.16201483627E+03 -0.25526304007E+03  0.31398159412E+03  0.41800000000E+01 0. -1.
        -11    1    1    2    0    0  0.49593813343E+02  0.15089433980E+03 -0.31283472857E+03  0.35084785236E+03  0.00000000000E+00 0.  1.
         11    1    1    2    0    0  0.15303671011E+02 -0.50775221887E+00 -0.15910568276E+01  0.15394532164E+02  0.00000000000E+00 0. -1.
</event>
<event>
 7    1  0.2873461E-009  0.1350012E+03  0.7561462E-02  0.1220218E+00
         -1   -1    0    0    0  501 -0.00000000000E+00  0.00000000000E+00  0.69311144912E+02  0.69311144912E+02  0.00000000000E+00 0.  1.
          1   -1    0    0  501    0  0.00000000000E+00 -0.00000000000E+00 -0.26689804629E+03  0.26689804629E+03  0.00000000000E+00 0. -1.
         25    2    1    2    0    0 -0.34382572097E+02 -0.74339100733E+02 -0.10931168412E+03  0.18521676130E+03  0.12509093180E+03 0.  0.
          5    1    3    3  502    0 -0.81304738218E+02 -0.54286538399E+02 -0.64686238874E+02  0.11729991734E+03  0.41800000000E+01 0.  1.
         -5    1    3    3    0  502  0.46922166121E+02 -0.20052562334E+02 -0.44625445245E+02  0.67916843956E+02  0.41800000000E+01 0.  1.
        -11    1    1    2    0    0  0.56343593214E+02  0.15931674873E+02 -0.30812852583E+02  0.66165328117E+02  0.00000000000E+00 0.  1.
         11    1    1    2    0    0 -0.21961021117E+02  0.58407425860E+02 -0.57462364676E+02  0.84827101791E+02  0.00000000000E+00 0. -1.
</event>
<event>
 7    1  0.2873461E-009  0.1256142E+03  0.7561462E-02  0.1234112E+00
          2   -1    0    0  501    0  0.00000000000E+00  0.00000000000E+00  0.91574280160E+03  0.91574280160E+03  0.00000000000E+00 0. -1.
         -2   -1    0    0    0  501 -0.00000000000E+00 -0.00000000000E+00 -0.17540058655E+02  0.17540058655E+02  0.00000000000E+00 0.  1.
         25    2    1    2    0    0  0.46344485555E+02 -0.47698081632E+02  0.52704233449E+03  0.54575463618E+03  0.12510628377E+03 0.  0.
          5    1    3    3  502    0  0.60864718973E+02  0.25459973859E+02  0.27785688315E+03  0.28561275216E+03  0.41800000000E+01 0. -1.
         -5    1    3    3    0  502 -0.14520233418E+02 -0.73158055491E+02  0.24918545134E+03  0.26014188402E+03  0.41800000000E+01 0. -1.
        -11    1    1    2    0    0 -0.11033340001E+02  0.68535476182E+02  0.20721003784E+03  0.21852882160E+03  0.00000000000E+00 0.  1.
         11    1    1    2    0    0 -0.35311145554E+02 -0.20837394549E+02  0.16395037062E+03  0.16899940248E+03  0.00000000000E+00 0. -1.
</event>
<event>
 7    1  0.2873461E-009  0.1096390E+03  0.7561462E-02  0.1261240E+00
          2   -1    0    0  501    0  0.00000000000E+00  0.00000000000E+00  0.13738503073E+04  0.13738503073E+04  0.00000000000E+00 0. -1.
         -2   -1    0    0    0  501 -0.00000000000E+00 -0.00000000000E+00 -0.11790801990E+02  0.11790801990E+02  0.00000000000E+00 0.  1.
         25    2    1    2    0    0  0.37367521389E+02  0.37248753527E+02  0.10055404654E+04  0.10146650739E+04  0.12509909422E+03 0.  0.
          5    1    3    3  502    0 -0.35696316073E+02 -0.15749600255E+02  0.46218082227E+03  0.46384357467E+03  0.41800000000E+01 0.  1.
         -5    1    3    3    0  502  0.73063837461E+02  0.52998353782E+02  0.54335964315E+03  0.55082149926E+03  0.41800000000E+01 0.  1.
        -11    1    1    2    0    0  0.85555887200E+01 -0.42595961051E+02  0.84078451562E+02  0.94640372005E+02  0.00000000000E+00 0. -1.
         11    1    1    2    0    0 -0.45923110109E+02  0.53472075244E+01  0.27244058834E+03  0.27633566336E+03  0.00000000000E+00 0.  1.
</event>
<event>
 7    1  0.2873461E-009  0.1056087E+03  0.7561462E-02  0.1268925E+00
         -1   -1    0    0    0  501 -0.00000000000E+00  0.00000000000E+00  0.37800623982E+02  0.37800623982E+02  0.00000000000E+00 0.  1.
          1   -1    0    0  501    0  0.00000000000E+00 -0.00000000000E+00 -0.47113425099E+03  0.47113425099E+03  0.00000000000E+00 0. -1.
         25    2    1    2    0    0  0.27103923915E+02  0.71527992086E+02 -0.21039415193E+03  0.25644385502E+03  0.12508747046E+03 0.  0.
          5    1    3    3  502    0 -0.27731080792E+02  0.40534690771E+02 -0.15636542110E+02  0.51711196533E+02  0.41800000000E+01 0.  1.
         -5    1    3    3    0  502  0.54835004707E+02  0.30993301315E+02 -0.19475760982E+03  0.20473265849E+03  0.41800000000E+01 0.  1.
        -11    1    1    2    0    0 -0.25841826129E+02  0.13829554419E+01 -0.10576319514E+02  0.27956592745E+02  0.00000000000E+00 0.  1.
         11    1    1    2    0    0 -0.12620977857E+01 -0.72910947528E+02 -0.21236315556E+03  0.22453442720E+03  0.00000000000E+00 0. -1.
</event>
<event>
 7    1  0.2873461E-009  0.1144963E+03  0.7561462E-02  0.1252463E+00
          1   -1    0    0  501    0  0.00000000000E+00  0.00000000000E+00  0.32804988570E+03  0.32804988570E+03  0.00000000000E+00 0. -1.
         -1   -1    0    0    0  501 -0.00000000000E+00 -0.00000000000E+00 -0.63036974116E+02  0.63036974116E+02  0.00000000000E+00 0.  1.
         25    2    1    2    0    0 -0.52468745795E+02 -0.72246995642E+02  0.11828645605E+03  0.19393941083E+03  0.12509281244E+03 0.  0.
          5    1    3    3  502    0 -0.20890105078E+02  0.27517246056E+02  0.70922831102E+02  0.79000732226E+02  0.41800000000E+01 0.  1.
         -5    1    3    3    0  502 -0.31578640717E+02 -0.99764241698E+02  0.47363624946E+02  0.11493867860E+03  0.41800000000E+01 0.  1.
        -11    1    1    2    0    0  0.25367884798E+02  0.39703814977E+02  0.14744646282E+03  0.15479141417E+03  0.00000000000E+00 0. -1.
         11    1    1    2    0    0  0.27100860997E+02  0.32543180665E+02 -0.72000728613E+00  0.42356034813E+02  0.00000000000E+00 0.  1.
</event>
<event>
 7    1  0.2873461E-009  0.8426958E+02  0.7561462E-02  0.1317354E+00
         -2   -1    0    0    0  501 -0.00000000000E+00  0.00000000000E+00  0.63898888222E+02  0.63898888222E+02  0.00000000000E+00 0.  1.
          2   -1    0    0  501    0  0.00000000000E+00 -0.00000000000E+00 -0.23646295943E+03  0.23646295943E+03  0.00000000000E+00 0. -1.
         25    2    1    2    0    0  0.35496004317E+02  0.19752812040E+02 -0.44941224704E+02  0.13898711311E+03  0.12509022355E+03 0.  0.
          5    1    3    3  502    0  0.63540650965E+01 -0.43132288955E+02 -0.53371729898E+02  0.69041889068E+02  0.41800000000E+01 0.  1.
         -5    1    3    3    0  502  0.29141939221E+02  0.62885100995E+02  0.84305051945E+01  0.69945224044E+02  0.41800000000E+01 0.  1.
        -11    1    1    2    0    0 -0.28181266717E+01 -0.22348364271E+02 -0.12658917682E+03  0.12857764546E+03  0.00000000000E+00 0. -1.
         11    1    1    2    0    0 -0.32677877645E+02  0.25955522313E+01 -0.10336696766E+01  0.32797089075E+02  0.00000000000E+00 0.  1.
</event>
<event>
 7    1  0.2873461E-009  0.1457817E+03  0.7561462E-02  0.1205754E+00
         -1   -1    0    0    0  501 -0.00000000000E+00  0.00000000000E+00  0.24856588691E+03  0.24856588691E+03  0.00000000000E+00 0.  1.
          1   -1    0    0  501    0  0.00000000000E+00 -0.00000000000E+00 -0.11220114233E+03  0.11220114233E+03  0.00000000000E+00 0. -1.
         25    2    1    2    0    0  0.62045992788E+02  0.10815031156E+03  0.48206519159E+02  0.18307326981E+03  0.12508300652E+03 0.  0.
          5    1    3    3  502    0  0.81313654761E+02  0.42689071990E+02  0.65102853486E+02  0.11265043830E+03  0.41800000000E+01 0. -1.
         -5    1    3    3    0  502 -0.19267661973E+02  0.65461239574E+02 -0.16896334327E+02  0.70422831511E+02  0.41800000000E+01 0. -1.
        -11    1    1    2    0    0 -0.66026880906E+02 -0.84277763970E+02  0.24837452955E+02  0.10990536643E+03  0.00000000000E+00 0. -1.
         11    1    1    2    0    0  0.39808881178E+01 -0.23872547593E+02  0.63320772469E+02  0.67788392996E+02  0.00000000000E+00 0.  1.
</event>
<event>
 7    1  0.2873461E-009  0.1139692E+03  0.7561462E-02  0.1253391E+00
         -2   -1    0    0    0  501 -0.00000000000E+00  0.00000000000E+00  0.37181790126E+02  0.37181790126E+02  0.00000000000E+00 0. -1.
          2   -1    0    0  501    0  0.00000000000E+00 -0.00000000000E+00 -0.40936225400E+03  0.40936225400E+03  0.00000000000E+00 0.  1.
         25    2    1    2    0    0  0.52376011107E+02  0.28354257128E+02 -0.20270154640E+03  0.24552845841E+03  0.12509634902E+03 0.  0.
          5    1    3    3  502    0 -0.27467026038E+02 -0.22752332165E+02 -0.23989484204E+02  0.43186501256E+02  0.41800000000E+01 0.  1.
         -5    1    3    3    0  502  0.79843037145E+02  0.51106589294E+02 -0.17871206220E+03  0.20234195716E+03  0.41800000000E+01 0.  1.
        -11    1    1    2    0    0 -0.55018914698E+02  0.12316185548E+02 -0.52117864868E+02  0.76779171911E+02  0.00000000000E+00 0. -1.
         11    1    1    2    0    0  0.26429035910E+01 -0.40670442677E+02 -0.11736105260E+03  0.12423641380E+03  0.00000000000E+00 0.  1.
</event>
<event>
 7    1  0.2873461E-009  0.1355086E+03  0.7561462E-02  0.1219503E+00
         -1   -1    0    0    0  501 -0.00000000000E+00  0.00000000000E+00  0.39048699069E+02  0.39048699069E+02  0.00000000000E+00 0.  1.
          1   -1    0    0  501    0  0.00000000000E+00 -0.00000000000E+00 -0.57455790124E+03  0.57455790124E+03  0.00000000000E+00 0. -1.
         25    2    1    2    0    0  0.80062967159E+02  0.26814264409E+02 -0.16604287959E+03  0.22438482172E+03  0.12509686995E+03 0.  0.
          5    1    3    3  502    0 -0.31560363470E+02 -0.98057806438E+01 -0.39366008793E+02  0.51569030674E+02  0.41800000000E+01 0.  1.
         -5    1    3    3    0  502  0.11162333063E+03  0.36620045053E+02 -0.12667687080E+03  0.17281579105E+03  0.41800000000E+01 0.  1.
        -11    1    1    2    0    0 -0.46667670615E+01 -0.42823545025E+02 -0.98529397539E+02  0.10753453819E+03  0.00000000000E+00 0.  1.
         11    1    1    2    0    0 -0.75396200097E+02  0.16009280616E+02 -0.27093692504E+03  0.28168724040E+03  0.00000000000E+00 0. -1.
</event>
<event>
 7    1  0.2873461E-009  0.1168626E+03  0.7561462E-02  0.1248364E+00
          2   -1    0    0  501    0  0.00000000000E+00  0.00000000000E+00  0.61947654741E+02  0.61947654741E+02  0.00000000000E+00 0. -1.
         -2   -1    0    0    0  501 -0.00000000000E+00 -0.00000000000E+00 -0.40760912585E+03  0.40760912585E+03  0.00000000000E+00 0.  1.
         25    2    1    2    0    0  0.68188719877E+02  0.35519272772E+02 -0.65158895463E+02  0.16063813876E+03  0.12509040614E+03 0.  0.
          5    1    3    3  502    0 -0.35892628470E+02  0.20615488236E+02 -0.18164871696E+02  0.45395088913E+02  0.41800000000E+01 0. -1.
         -5    1    3    3    0  502  0.10408134835E+03  0.14903784536E+02 -0.46994023767E+02  0.11524304984E+03  0.41800000000E+01 0. -1.
        -11    1    1    2    0    0 -0.66291864842E+02 -0.17209654796E+02 -0.28223827022E+03  0.29042937995E+03  0.00000000000E+00 0.  1.
         11    1    1    2    0    0 -0.18968550345E+01 -0.18309617976E+02  0.17356945716E+01  0.18489261887E+02  0.00000000000E+00 0. -1.
</event>
<event>
 7    1  0.2916410E-009  0.1712645E+03  0.7561462E-02  0.1176536E+00
          1   -1    0    0  501    0  0.00000000000E+00  0.00000000000E+00  0.16808970778E+03  0.16808970778E+03  0.00000000000E+00 0. -1.
         -1   -1    0    0    0  501 -0.00000000000E+00 -0.00000000000E+00 -0.20409294955E+03  0.20409294955E+03  0.00000000000E+00 0.  1.
         25    2    1    2    0    0  0.14685374802E+03  0.21252294189E+01 -0.49024814685E+02  0.19905741151E+03  0.12509948327E+03 0.  0.
          5    1    3    3  502    0  0.13180576631E+03 -0.32149111142E+02  0.18628489935E+01  0.13574707358E+03  0.41800000000E+01 0. -1.
         -5    1    3    3    0  502  0.15047981712E+02  0.34274340561E+02 -0.50887663678E+02  0.63310337932E+02  0.41800000000E+01 0. -1.
        -11    1    1    2    0    0 -0.68674707462E+02  0.40861883905E+02  0.23495970708E+02  0.83294475452E+02  0.00000000000E+00 0. -1.
         11    1    1    2    0    0 -0.78179040556E+02 -0.42987113324E+02 -0.10474397795E+02  0.89830770359E+02  0.00000000000E+00 0.  1.
</event>
<event>
 7    1  0.2873461E-009  0.1159697E+03  0.7561462E-02  0.1249898E+00
         -2   -1    0    0    0  501 -0.00000000000E+00  0.00000000000E+00  0.19308812579E+02  0.19308812579E+02  0.00000000000E+00 0.  1.
          2   -1    0    0  501    0  0.00000000000E+00 -0.00000000000E+00 -0.75444476178E+03  0.75444476178E+03  0.00000000000E+00 0. -1.
         25    2    1    2    0    0 -0.50448981600E+02 -0.17629706849E+02 -0.43524019762E+03  0.45600019192E+03  0.12508492754E+03 0.  0.
          5    1    3    3  502    0 -0.91843043214E+02 -0.14501775323E+02 -0.32731836507E+03  0.34029432934E+03  0.41800000000E+01 0.  1.
         -5    1    3    3    0  502  0.41394061615E+02 -0.31279315260E+01 -0.10792183256E+03  0.11570586258E+03  0.41800000000E+01 0.  1.
        -11    1    1    2    0    0  0.72988809260E+02  0.13645418740E+02 -0.27044729340E+03  0.28045552631E+03  0.00000000000E+00 0.  1.
         11    1    1    2    0    0 -0.22539827661E+02  0.39842881095E+01 -0.29448458187E+02  0.37297856135E+02  0.00000000000E+00 0. -1.
</event>
<event>
 7    1  0.4247579E-009  0.8040223E+02  0.7561462E-02  0.1327914E+00
         -2   -1    0    0    0  501 -0.00000000000E+00  0.00000000000E+00  0.18706204373E+02  0.18706204373E+02  0.00000000000E+00 0.  1.
          2   -1    0    0  501    0  0.00000000000E+00 -0.00000000000E+00 -0.89625504812E+03  0.89625504812E+03  0.00000000000E+00 0. -1.
         25    2    1    2    0    0  0.50692412421E+02  0.27047024619E+01 -0.65055464158E+03  0.66441363750E+03  0.12508838445E+03 0.  0.
          5    1    3    3  502    0  0.21642305031E+02  0.23425591735E+02 -0.60744536303E+03  0.60829638268E+03  0.41800000000E+01 0.  1.
         -5    1    3    3    0  502  0.29050107390E+02 -0.20720889273E+02 -0.43109278550E+02  0.56117254821E+02  0.41800000000E+01 0.  1.
        -11    1    1    2    0    0  0.93477098520E+01 -0.26521533383E+02 -0.22255881432E+02  0.35862176047E+02  0.00000000000E+00 0.  1.
         11    1    1    2    0    0 -0.60040122273E+02  0.23816830922E+02 -0.20473832074E+03  0.21468543895E+03  0.00000000000E+00 0. -1.
</event>
<event>
 7    1  0.2873461E-009  0.1218585E+03  0.7561462E-02  0.1240062E+00
          3   -1    0    0  501    0  0.00000000000E+00  0.00000000000E+00  0.35101001192E+02  0.35101001192E+02  0.00000000000E+00 0. -1.
         -3   -1    0    0    0  501 -0.00000000000E+00 -0.00000000000E+00 -0.57922556625E+03  0.57922556625E+03  0.00000000000E+00 0.  1.
         25    2    1    2    0    0  0.53072783578E+01  0.91855483046E+02 -0.28856225583E+03  0.32769164860E+03  0.12509214246E+03 0.  0.
          5    1    3    3  502    0  0.33166330704E+02  0.11199543371E+03 -0.18837213851E+03  0.22168562793E+03  0.41800000000E+01 0. -1.
         -5    1    3    3    0  502 -0.27859052347E+02 -0.20139950664E+02 -0.10019011732E+03  0.10600602067E+03  0.41800000000E+01 0. -1.
        -11    1    1    2    0    0 -0.42272973980E+01 -0.25726504211E+02 -0.38202101850E+01  0.26349896927E+02  0.00000000000E+00 0. -1.
         11    1    1    2    0    0 -0.10799809598E+01 -0.66128978834E+02 -0.25174209904E+03  0.26028502191E+03  0.00000000000E+00 0.  1.
</event>
<event>
 7    1  0.2873461E-009  0.2057859E+03  0.7561462E-02  0.1144947E+00
          1   -1    0    0  501    0  0.00000000000E+00  0.00000000000E+00  0.11369636108E+03  0.11369636108E+03  0.00000000000E+00 0. -1.
         -1   -1    0    0    0  501 -0.00000000000E+00 -0.00000000000E+00 -0.44957361378E+03  0.44957361378E+03  0.00000000000E+00 0.  1.
         25    2    1    2    0    0 -0.16169858720E+03  0.64583920835E+02 -0.28882176298E+03  0.35970717698E+03  0.12511485308E+03 0.  0.
          5    1    3    3  502    0 -0.34933144075E+02  0.78417931801E+02 -0.10056819569E+03  0.13229184014E+03  0.41800000000E+01 0. -1.
         -5    1    3    3    0  502 -0.12676544312E+03 -0.13834010966E+02 -0.18825356729E+03  0.22741533684E+03  0.41800000000E+01 0. -1.
        -11    1    1    2    0    0  0.30463026919E+02 -0.59332645846E+02 -0.16945555689E+02  0.68815047263E+02  0.00000000000E+00 0. -1.
         11    1    1    2    0    0  0.13123556028E+03 -0.52512749885E+01 -0.30109934023E+02  0.13474775062E+03  0.00000000000E+00 0.  1.
</event>
<event>
 7    1  0.2873461E-009  0.2047473E+03  0.7561462E-02  0.1145794E+00
          2   -1    0    0  501    0  0.00000000000E+00  0.00000000000E+00  0.12065210260E+04  0.12065210260E+04  0.00000000000E+00 0. -1.
         -2   -1    0    0    0  501 -0.00000000000E+00 -0.00000000000E+00 -0.49956194206E+02  0.49956194206E+02  0.00000000000E+00 0.  1.
         25    2    1    2    0    0 -0.18548298065E+03  0.75692155658E+02  0.38668331135E+03  0.45310555764E+03  0.12508966604E+03 0.  0.
          5    1    3    3  502    0 -0.54678981233E+02  0.43267922969E+02  0.25592236178E+03  0.26528405871E+03  0.41800000000E+01 0. -1.
         -5    1    3    3    0  502 -0.13080399942E+03  0.32424232689E+02  0.13076094958E+03  0.18782149894E+03  0.41800000000E+01 0. -1.
        -11    1    1    2    0    0  0.13512621260E+03 -0.74804040256E+02  0.70232587855E+03  0.71910804296E+03  0.00000000000E+00 0. -1.
         11    1    1    2    0    0  0.50356768053E+02 -0.88811540209E+00  0.67555641898E+02  0.84263619611E+02  0.00000000000E+00 0.  1.
</event>
<event>
 7    1  0.2873461E-009  0.1373059E+03  0.7561462E-02  0.1217001E+00
          2   -1    0    0  501    0  0.00000000000E+00  0.00000000000E+00  0.98307461262E+03  0.98307461262E+03  0.00000000000E+00 0. -1.
         -2   -1    0    0    0  501 -0.00000000000E+00 -0.00000000000E+00 -0.21381335595E+02  0.21381335595E+02  0.00000000000E+00 0.  1.
         25    2    1    2    0    0 -0.84543035309E+02  0.47039978338E+02  0.50620460474E+03  0.53033067860E+03  0.12508893802E+03 0.  0.
          5    1    3    3  502    0 -0.10392874589E+03  0.62710766856E+02  0.47442781131E+03  0.48972752122E+03  0.41800000000E+01 0. -1.
         -5    1    3    3    0  502  0.19385710579E+02 -0.15670788518E+02  0.31776793435E+02  0.40603157371E+02  0.41800000000E+01 0. -1.
        -11    1    1    2    0    0  0.40865032721E+02 -0.68077641173E+02  0.33428130529E+03  0.34358187844E+03  0.00000000000E+00 0.  1.
         11    1    1    2    0    0  0.43678002588E+02  0.21037662835E+02  0.12120736699E+03  0.13054339117E+03  0.00000000000E+00 0. -1.
</event>
<event>
 7    1  0.2873461E-009  0.1083833E+03  0.7561462E-02  0.1263593E+00
         -1   -1    0    0    0  501 -0.00000000000E+00  0.00000000000E+00  0.52645411295E+02  0.52645411295E+02  0.00000000000E+00 0.  1.
          1   -1    0    0  501    0  0.00000000000E+00 -0.00000000000E+00 -0.25485393167E+03  0.25485393167E+03  0.00000000000E+00 0. -1.
         25    2    1    2    0    0 -0.12555062307E+02  0.17943505934E+02 -0.67431086303E+02  0.14378566980E+03  0.12509104062E+03 0.  0.
          5    1    3    3  502    0  0.20675648515E+02 -0.46585241550E+02 -0.43820003169E+02  0.67344875451E+02  0.41800000000E+01 0. -1.
         -5    1    3    3    0  502 -0.33230710823E+02  0.64528747484E+02 -0.23611083133E+02  0.76440794347E+02  0.41800000000E+01 0. -1.
        -11    1    1    2    0    0  0.55763491092E+01 -0.54967289775E+02 -0.78870486807E+02  0.96296688955E+02  0.00000000000E+00 0.  1.
         11    1    1    2    0    0  0.69787131981E+01  0.37023783840E+02 -0.55906947270E+02  0.67416984216E+02  0.00000000000E+00 0. -1.
</event>
<event>
 7    1  0.2873461E-009  0.1178388E+03  0.7561462E-02  0.1246705E+00
          1   -1    0    0  501    0  0.00000000000E+00  0.00000000000E+00  0.56945699271E+03  0.56945699271E+03  0.00000000000E+00 0. -1.
         -1   -1    0    0    0  501 -0.00000000000E+00 -0.00000000000E+00 -0.31072628196E+02  0.31072628196E+02  0.00000000000E+00 0.  1.
         25    2    1    2    0    0 -0.59245138731E+02 -0.19611196724E+02  0.30259276394E+03  0.33332261048E+03  0.12508795452E+03 0.  0.
          5    1    3    3  502    0 -0.90485886961E+02  0.34148772056E+01  0.14528408630E+03  0.17124338019E+03  0.41800000000E+01 0.  1.
         -5    1    3    3    0  502  0.31240748230E+02 -0.23026073930E+02  0.15730867764E+03  0.16207923029E+03  0.41800000000E+01 0.  1.
        -11    1    1    2    0    0  0.57151134333E+02  0.49758437890E+02  0.86984128649E+02  0.11536200819E+03  0.00000000000E+00 0.  1.
         11    1    1    2    0    0  0.20940043977E+01 -0.30147241165E+02  0.14880747193E+03  0.15184500224E+03  0.00000000000E+00 0. -1.
</event>
<event>
 7    1  0.2873461E-009  0.1089956E+03  0.7561462E-02  0.1262441E+00
         -1   -1    0    0    0  501 -0.00000000000E+00  0.00000000000E+00  0.33261318521E+02  0.33261318521E+02  0.00000000000E+00 0.  1.
          1   -1    0    0  501    0  0.00000000000E+00 -0.00000000000E+00 -0.61200344643E+03  0.61200344643E+03  0.00000000000E+00 0. -1.
         25    2    1    2    0    0  0.18994608715E+02 -0.19924496252E+01 -0.51841246121E+03  0.53363233416E+03  0.12508886084E+03 0.  0.
          5    1    3    3  502    0  0.37151698068E+02  0.53824856942E+02 -0.32168061439E+03  0.32828837014E+03  0.41800000000E+01 0. -1.
         -5    1    3    3    0  502 -0.18157089352E+02 -0.55817306568E+02 -0.19673184681E+03  0.20534396401E+03  0.41800000000E+01 0. -1.
        -11    1    1    2    0    0  0.32352347169E+02  0.21321865449E+02 -0.29504932363E+02  0.48701512782E+02  0.00000000000E+00 0. -1.
         11    1    1    2    0    0 -0.51346955885E+02 -0.19329415823E+02 -0.30824734339E+02  0.62930918011E+02  0.00000000000E+00 0.  1.
</event>
<event>
 7    1  0.2873461E-009  0.1739230E+03  0.7561462E-02  0.1173817E+00
         -2   -1    0    0    0  501 -0.00000000000E+00  0.00000000000E+00  0.21352396574E+03  0.21352396574E+03  0.00000000000E+00 0.  1.
          2   -1    0    0  501    0  0.00000000000E+00 -0.00000000000E+00 -0.19679218637E+03  0.19679218637E+03  0.00000000000E+00 0. -1.
         25    2    1    2    0    0  0.33351989100E+02  0.13410305884E+03  0.11351003351E+03  0.21823573146E+03  0.12508525578E+03 0.  0.
          5    1    3    3  502    0  0.74361907676E+02  0.45058024007E+02  0.65850624211E+02  0.10914987838E+03  0.41800000000E+01 0.  1.
         -5    1    3    3    0  502 -0.41009918576E+02  0.89045034830E+02  0.47659409297E+02  0.10908585309E+03  0.41800000000E+01 0.  1.
        -11    1    1    2    0    0  0.28983117644E+02 -0.52714119249E+02 -0.18003223881E+02  0.62792639271E+02  0.00000000000E+00 0.  1.
         11    1    1    2    0    0 -0.62335106744E+02 -0.81388939588E+02 -0.78775030258E+02  0.12928778137E+03  0.00000000000E+00 0. -1.
</event>
<event>
 7    1  0.2873461E-009  0.1748716E+03  0.7561462E-02  0.1172861E+00
          2   -1    0    0  501    0  0.00000000000E+00  0.00000000000E+00  0.11236403329E+04  0.11236403329E+04  0.00000000000E+00 0. -1.
         -2   -1    0    0    0  501 -0.00000000000E+00 -0.00000000000E+00 -0.30090029478E+02  0.30090029478E+02  0.00000000000E+00 0.  1.
         25    2    1    2    0    0  0.11736166583E+03 -0.89846684127E+02  0.58219995276E+03  0.61355582342E+03  0.12509107165E+03 0.  0.
          5    1    3    3  502    0  0.12124293619E+03 -0.10628240024E+03  0.41161739449E+03  0.44208839617E+03  0.41800000000E+01 0. -1.
         -5    1    3    3    0  502 -0.38812703614E+01  0.16435716117E+02  0.17058255827E+03  0.17146742725E+03  0.41800000000E+01 0. -1.
        -11    1    1    2    0    0  0.12928587933E+02  0.18333241640E+02  0.10818077863E+03  0.11048229269E+03  0.00000000000E+00 0. -1.
         11    1    1    2    0    0 -0.13029025376E+03  0.71513442488E+02  0.40316957208E+03  0.42969224630E+03  0.00000000000E+00 0.  1.
</event>
<event>
 7    1  0.2873461E-009  0.8804534E+02  0.7561462E-02  0.1307655E+00
          1   -1    0    0  501    0  0.00000000000E+00  0.00000000000E+00  0.14205833459E+03  0.14205833459E+03  0.00000000000E+00 0. -1.
         -1   -1    0    0    0  501 -0.00000000000E+00 -0.00000000000E+00 -0.10489551485E+03  0.10489551485E+03  0.00000000000E+00 0.  1.
         25    2    1    2    0    0  0.79957277669E+01 -0.36500722748E+02 -0.21852096322E+02  0.13236875098E+03  0.12509091773E+03 0.  0.
          5    1    3    3  502    0 -0.37631124529E+02 -0.61518891986E+01  0.35977115082E+02  0.52590612124E+02  0.41800000000E+01 0.  1.
         -5    1    3    3    0  502  0.45626852296E+02 -0.30348833549E+02 -0.57829211404E+02  0.79778138859E+02  0.41800000000E+01 0.  1.
        -11    1    1    2    0    0  0.20508490769E+00 -0.22854267443E+02 -0.84372369049E+01  0.24362811143E+02  0.00000000000E+00 0.  1.
         11    1    1    2    0    0 -0.82008126746E+01  0.59354990191E+02  0.67452152968E+02  0.90222287319E+02  0.00000000000E+00 0. -1.
</event>
<event>
 7    1  0.2902552E-009  0.9833204E+02  0.7561462E-02  0.1283843E+00
         -2   -1    0    0    0  501 -0.00000000000E+00  0.00000000000E+00  0.50565811516E+03  0.50565811516E+03  0.00000000000E+00 0.  1.
          2   -1    0    0  501    0  0.00000000000E+00 -0.00000000000E+00 -0.39945388160E+02  0.39945388160E+02  0.00000000000E+00 0. -1.
         25    2    1    2    0    0  0.61813100932E+02 -0.48347269233E+02  0.34398722354E+03  0.37434329485E+03  0.12508946620E+03 0.  0.
          5    1    3    3  502    0  0.82020772692E+02 -0.26684509287E+02  0.33037476999E+03  0.34147391004E+03  0.41800000000E+01 0. -1.
         -5    1    3    3    0  502 -0.20207671760E+02 -0.21662759946E+02  0.13612453545E+02  0.32869384813E+02  0.41800000000E+01 0. -1.
        -11    1    1    2    0    0 -0.21873111417E+02  0.28111192541E+02  0.12136618530E+03  0.12648487294E+03  0.00000000000E+00 0.  1.
         11    1    1    2    0    0 -0.39939989515E+02  0.20236076692E+02  0.35931816623E+00  0.44775335530E+02  0.00000000000E+00 0. -1.
</event>
<event>
 7    1  0.2873461E-009  0.1164119E+03  0.7561462E-02  0.1249136E+00
          4   -1    0    0  501    0  0.00000000000E+00  0.00000000000E+00  0.80822954912E+02  0.80822954912E+02  0.00000000000E+00 0. -1.
         -4   -1    0    0    0  501 -0.00000000000E+00 -0.00000000000E+00 -0.26217345362E+03  0.26217345362E+03  0.00000000000E+00 0.  1.
         25    2    1    2    0    0  0.72549598122E+02 -0.33418904362E+02 -0.33152500305E+02  0.15207485489E+03  0.12508959132E+03 0.  0.
          5    1    3    3  502    0  0.99580281819E+00  0.22352773695E+02 -0.54255962178E+02  0.58837232659E+02  0.41800000000E+01 0.  1.
         -5    1    3    3    0  502  0.71553795304E+02 -0.55771678057E+02  0.21103461873E+02  0.93237622228E+02  0.41800000000E+01 0.  1.
        -11    1    1    2    0    0  0.26331080323E+01  0.43330722905E+02 -0.41792623281E+02  0.60258677102E+02  0.00000000000E+00 0. -1.
         11    1    1    2    0    0 -0.75182706155E+02 -0.99118185431E+01 -0.10640537513E+03  0.13066287655E+03  0.00000000000E+00 0.  1.
</event>
<event>
 7    1  0.2873461E-009  0.1289883E+03  0.7561462E-02  0.1228965E+00
         -1   -1    0    0    0  501 -0.00000000000E+00  0.00000000000E+00  0.34333687483E+02  0.34333687483E+02  0.00000000000E+00 0. -1.
          1   -1    0    0  501    0  0.00000000000E+00 -0.00000000000E+00 -0.70181052046E+03  0.70181052046E+03  0.00000000000E+00 0.  1.
         25    2    1    2    0    0  0.10472959860E+03 -0.36241660897E+02 -0.34011031947E+03  0.37895615034E+03  0.12510390748E+03 0.  0.
          5    1    3    3  502    0  0.12238578364E+03 -0.23537607795E+02 -0.33317491032E+03  0.35574610649E+03  0.41800000000E+01 0. -1.
         -5    1    3    3    0  502 -0.17656185042E+02 -0.12704053101E+02 -0.69354091471E+01  0.23210043849E+02  0.41800000000E+01 0. -1.
        -11    1    1    2    0    0 -0.16397267095E+02  0.25786360420E+01 -0.15903773957E+00  0.16599548941E+02  0.00000000000E+00 0. -1.
         11    1    1    2    0    0 -0.88332331504E+02  0.33663024855E+02 -0.32720747578E+03  0.34058850867E+03  0.00000000000E+00 0.  1.
</event>
<event>
 7    1  0.2873461E-009  0.1326880E+03  0.7561462E-02  0.1223521E+00
          1   -1    0    0  501    0  0.00000000000E+00  0.00000000000E+00  0.69949917072E+03  0.69949917072E+03  0.00000000000E+00 0. -1.
         -1   -1    0    0    0  501 -0.00000000000E+00 -0.00000000000E+00 -0.38906379999E+02  0.38906379999E+02  0.00000000000E+00 0.  1.
         25    2    1    2    0    0  0.20864407593E+02  0.11579554904E+03  0.43689349749E+03  0.46943336152E+03  0.12509124698E+03 0.  0.
          5    1    3    3  502    0  0.15955870276E+02  0.11192352313E+03  0.44453904243E+03  0.45870894636E+03  0.41800000000E+01 0. -1.
         -5    1    3    3    0  502  0.49085373162E+01  0.38720259063E+01 -0.76455449319E+01  0.10724415159E+02  0.41800000000E+01 0. -1.
        -11    1    1    2    0    0 -0.52951441003E+02 -0.85650916896E+02  0.18370141636E+03  0.20949020273E+03  0.00000000000E+00 0.  1.
         11    1    1    2    0    0  0.32087033410E+02 -0.30144632144E+02  0.39997876864E+02  0.59481986465E+02  0.00000000000E+00 0. -1.
</event>
<event>
 7    1  0.2873461E-009  0.1395593E+03  0.7561462E-02  0.1213923E+00
         -2   -1    0    0    0  501 -0.00000000000E+00  0.00000000000E+00  0.51630576363E+02  0.51630576363E+02  0.00000000000E+00 0.  1.
          2   -1    0    0  501    0  0.00000000000E+00 -0.00000000000E+00 -0.62891056483E+03  0.62891056483E+03  0.00000000000E+00 0. -1.
         25    2    1    2    0    0 -0.10581016698E+03  0.44917481945E+02 -0.46680653885E+03  0.49676273915E+03  0.12510596578E+03 0.  0.
          5    1    3    3  502    0  0.69102165804E+01  0.12646248183E+02 -0.24828188177E+03  0.24873488678E+03  0.41800000000E+01 0.  1.
         -5    1    3    3    0  502 -0.11272038356E+03  0.32271233762E+02 -0.21852465708E+03  0.24802785237E+03  0.41800000000E+01 0.  1.
        -11    1    1    2    0    0  0.59092019618E+01  0.24458818428E+02 -0.16723910110E+02  0.30213269206E+02  0.00000000000E+00 0. -1.
         11    1    1    2    0    0  0.99900965021E+02 -0.69376300373E+02 -0.93749539508E+02  0.15356513284E+03  0.00000000000E+00 0.  1.
</event>
<event>
 7    1  0.2873461E-009  0.2327219E+03  0.7561462E-02  0.1124738E+00
          3   -1    0    0  501    0  0.00000000000E+00  0.00000000000E+00  0.21504579287E+03  0.21504579287E+03  0.00000000000E+00 0. -1.
         -3   -1    0    0    0  501 -0.00000000000E+00 -0.00000000000E+00 -0.37975165012E+03  0.37975165012E+03  0.00000000000E+00 0.  1.
         25    2    1    2    0    0 -0.19525166190E+03 -0.10050037724E+03  0.67763332812E+02  0.26165439400E+03  0.12509042860E+03 0.  0.
          5    1    3    3  502    0 -0.10724843780E+03 -0.20228988965E+02 -0.23279915484E+02  0.11167303287E+03  0.41800000000E+01 0. -1.
         -5    1    3    3    0  502 -0.88003224099E+02 -0.80271388272E+02  0.91043248296E+02  0.14998136113E+03  0.41800000000E+01 0. -1.
        -11    1    1    2    0    0  0.96434109271E+02  0.48030511574E+00 -0.11372169552E+03  0.14910530559E+03  0.00000000000E+00 0. -1.
         11    1    1    2    0    0  0.98817552626E+02  0.10002007212E+03 -0.11874749454E+03  0.18403774339E+03  0.00000000000E+00 0.  1.
</event>
<event>
 7    1  0.2873461E-009  0.1853785E+03  0.7561462E-02  0.1162697E+00
         -2   -1    0    0    0  501 -0.00000000000E+00  0.00000000000E+00  0.37213643896E+03  0.37213643896E+03  0.00000000000E+00 0.  1.
          2   -1    0    0  501    0  0.00000000000E+00 -0.00000000000E+00 -0.11429912150E+03  0.11429912150E+03  0.00000000000E+00 0. -1.
         25    2    1    2    0    0  0.10954799211E+03 -0.10589043647E+03  0.23436481332E+03  0.30624934256E+03  0.12509295339E+03 0.  0.
          5    1    3    3  502    0 -0.24883479384E+02 -0.60677070456E+01  0.14096354759E+02  0.29532765406E+02  0.41800000000E+01 0. -1.
         -5    1    3    3    0  502  0.13443147149E+03 -0.99822729424E+02  0.22026845856E+03  0.27671657716E+03  0.41800000000E+01 0. -1.
        -11    1    1    2    0    0 -0.11558388506E+03  0.58510219473E+02  0.26854101510E+02  0.13230352616E+03  0.00000000000E+00 0. -1.
         11    1    1    2    0    0  0.60358929487E+01  0.47380216997E+02 -0.33815973725E+01  0.47882691728E+02  0.00000000000E+00 0.  1.
</event>
<event>
 7    1  0.2873461E-009  0.1597259E+03  0.7561462E-02  0.1189007E+00
         -1   -1    0    0    0  501 -0.00000000000E+00  0.00000000000E+00  0.54302308942E+03  0.54302308942E+03  0.00000000000E+00 0.  1.
          1   -1    0    0  501    0  0.00000000000E+00 -0.00000000000E+00 -0.97112953829E+02  0.97112953829E+02  0.00000000000E+00 0. -1.
         25    2    1    2    0    0  0.30795878605E+02  0.13245168967E+03  0.43940370660E+03  0.47667179043E+03  0.12509413329E+03 0.  0.
          5    1    3    3  502    0 -0.40304331706E+02  0.20785666824E+02  0.63690787073E+02  0.78297329824E+02  0.41800000000E+01 0.  1.
         -5    1    3    3    0  502  0.71100210311E+02  0.11166602284E+03  0.37571291953E+03  0.39837446061E+03  0.41800000000E+01 0.  1.
        -11    1    1    2    0    0  0.33921591732E+01 -0.71494579713E+02  0.44135036337E+02  0.84088543242E+02  0.00000000000E+00 0.  1.
         11    1    1    2    0    0 -0.34188037778E+02 -0.60957109954E+02 -0.37628607342E+02  0.79375709582E+02  0.00000000000E+00 0. -1.
</event>
<event>
 7    1  0.2873461E-009  0.1074780E+03  0.7561462E-02  0.1265313E+00
         -2   -1    0    0    0  501 -0.00000000000E+00  0.00000000000E+00  0.33626636945E+02  0.33626636945E+02  0.00000000000E+00 0.  1.
          2   -1    0    0  501    0  0.00000000000E+00 -0.00000000000E+00 -0.83918287448E+03  0.83918287448E+03  0.00000000000E+00 0. -1.
         25    2    1    2    0    0 -0.56282564815E+02  0.73280156539E+02 -0.64761850868E+03  0.66602949011E+03  0.12509132849E+03 0.  0.
          5    1    3    3  502    0 -0.17191886537E+02  0.58507767341E+02 -0.59759934050E+03  0.60071720798E+03  0.41800000000E+01 0.  1.
         -5    1    3    3    0  502 -0.39090678278E+02  0.14772389198E+02 -0.50019168181E+02  0.65312282125E+02  0.41800000000E+01 0.  1.
        -11    1    1    2    0    0  0.70308727820E+02 -0.58562794933E+02 -0.66516398311E+02  0.11312537029E+03  0.00000000000E+00 0.  1.
         11    1    1    2    0    0 -0.14026163005E+02 -0.14717361606E+02 -0.91421330548E+02  0.93654651035E+02  0.00000000000E+00 0. -1.
</event>
<event>
 7    1  0.2873461E-009  0.1101176E+03  0.7561462E-02  0.1260352E+00
         -3   -1    0    0    0  501 -0.00000000000E+00  0.00000000000E+00  0.34224892890E+02  0.34224892890E+02  0.00000000000E+00 0.  1.
          3   -1    0    0  501    0  0.00000000000E+00 -0.00000000000E+00 -0.52809512844E+03  0.52809512844E+03  0.00000000000E+00 0. -1.
         25    2    1    2    0    0 -0.66082891233E+02 -0.51278067717E+02 -0.35116248656E+03  0.38204512689E+03  0.12508796212E+03 0.  0.
          5    1    3    3  502    0 -0.51341109586E+02 -0.84954598481E+02 -0.31504969822E+03  0.33034372717E+03  0.41800000000E+01 0.  1.
         -5    1    3    3    0  502 -0.14741781647E+02  0.33676530764E+02 -0.36112788344E+02  0.51701399714E+02  0.41800000000E+01 0.  1.
        -11    1    1    2    0    0  0.42061276223E+02  0.28711409216E+02 -0.22579945113E+02  0.55707718478E+02  0.00000000000E+00 0.  1.
         11    1    1    2    0    0  0.24021615011E+02  0.22566658501E+02 -0.12012780388E+03  0.12456717597E+03  0.00000000000E+00 0. -1.
</event>
<event>
 7    1  0.2873461E-009  0.1534611E+03  0.7561462E-02  0.1196283E+00
         -2   -1    0    0    0  501 -0.00000000000E+00  0.00000000000E+00  0.49272105638E+02  0.49272105638E+02  0.00000000000E+00 0. -1.
          2   -1    0    0  501    0  0.00000000000E+00 -0.00000000000E+00 -0.58218258333E+03  0.58218258333E+03  0.00000000000E+00 0.  1.
         25    2    1    2    0    0  0.97193076637E+02 -0.82633705968E+02 -0.28944412909E+03  0.34014743991E+03  0.12509018149E+03 0.  0.
          5    1    3    3  502    0  0.72600494034E+01 -0.76564914158E+02 -0.19434806935E+03  0.20905391376E+03  0.41800000000E+01 0. -1.
         -5    1    3    3    0  502  0.89933027234E+02 -0.60687918100E+01 -0.95096059737E+02  0.13109352615E+03  0.41800000000E+01 0. -1.
        -11    1    1    2    0    0 -0.15210991486E+02  0.48556741895E+02 -0.27578568242E+02  0.57876669494E+02  0.00000000000E+00 0.  1.
         11    1    1    2    0    0 -0.81982085151E+02  0.34076964073E+02 -0.21588778035E+03  0.23343057956E+03  0.00000000000E+00 0. -1.
</event>
<event>
 7    1  0.2873461E-009  0.9065269E+02  0.7561462E-02  0.1301279E+00
          1   -1    0    0  501    0  0.00000000000E+00  0.00000000000E+00  0.26189448006E+03  0.26189448006E+03  0.00000000000E+00 0. -1.
         -1   -1    0    0    0  501 -0.00000000000E+00 -0.00000000000E+00 -0.58267216561E+02  0.58267216561E+02  0.00000000000E+00 0.  1.
         25    2    1    2    0    0  0.26315684793E+02 -0.48560985000E+01  0.42417985892E+02  0.13477112762E+03  0.12509146395E+03 0.  0.
          5    1    3    3  502    0 -0.58752243792E+01 -0.49858021727E+02 -0.17289547643E+02  0.53261068800E+02  0.41800000000E+01 0.  1.
         -5    1    3    3    0  502  0.32190909172E+02  0.45001923227E+02  0.59707533534E+02  0.81510058816E+02  0.41800000000E+01 0.  1.
        -11    1    1    2    0    0 -0.44823627934E+02  0.22249993158E+02  0.47909013954E+02  0.69278376386E+02  0.00000000000E+00 0.  1.
         11    1    1    2    0    0  0.18507943141E+02 -0.17393894658E+02  0.11330026365E+03  0.11611219262E+03  0.00000000000E+00 0. -1.
</event>
<event>
 7    1  0.2873461E-009  0.9980855E+02  0.7561462E-02  0.1280699E+00
         -2   -1    0    0    0  501 -0.00000000000E+00  0.00000000000E+00  0.41196192396E+02  0.41196192396E+02  0.00000000000E+00 0.  1.
          2   -1    0    0  501    0  0.00000000000E+00 -0.00000000000E+00 -0.29809560456E+03  0.29809560456E+03  0.00000000000E+00 0. -1.
         25    2    1    2    0    0  0.91690281094E+00 -0.24057162496E+02 -0.14324331538E+03  0.19169108022E+03  0.12508890862E+03 0.  0.
          5    1    3    3  502    0  0.56642450025E+02  0.12420822746E+02 -0.85779771529E+02  0.10362569945E+03  0.41800000000E+01 0.  1.
         -5    1    3    3    0  502 -0.55725547214E+02 -0.36477985242E+02 -0.57463543846E+02  0.88065380775E+02  0.41800000000E+01 0.  1.
        -11    1    1    2    0    0 -0.24880484871E+02  0.39176587066E+02 -0.10954376388E+03  0.11896923849E+03  0.00000000000E+00 0. -1.
         11    1    1    2    0    0  0.23963582060E+02 -0.15119424570E+02 -0.41123329069E+01  0.28631478243E+02  0.00000000000E+00 0.  1.
</event>
<event>
 7    1  0.2873461E-009  0.1161222E+03  0.7561462E-02  0.1249635E+00
         -1   -1    0    0    0  501 -0.00000000000E+00  0.00000000000E+00  0.45437688819E+02  0.45437688819E+02  0.00000000000E+00 0.  1.
          1   -1    0    0  501    0  0.00000000000E+00 -0.00000000000E+00 -0.32682253750E+03  0.32682253750E+03  0.00000000000E+00 0. -1.
         25    2    1    2    0    0  0.48760463700E+02 -0.24899344521E+02 -0.14475062388E+03  0.19899425428E+03  0.12509360474E+03 0.  0.
          5    1    3    3  502    0  0.87115845662E+02 -0.23394826900E+02 -0.67867315924E+02  0.11295987545E+03  0.41800000000E+01 0. -1.
         -5    1    3    3    0  502 -0.38355381962E+02 -0.15045176210E+01 -0.76883307952E+02  0.86034378828E+02  0.41800000000E+01 0. -1.
        -11    1    1    2    0    0 -0.72485792539E+02  0.30999403628E+02 -0.83944906716E+02  0.11516032524E+03  0.00000000000E+00 0.  1.
         11    1    1    2    0    0  0.23725328839E+02 -0.61000591074E+01 -0.52689318092E+02  0.58105646805E+02  0.00000000000E+00 0. -1.
</event>
<event>
 7    1  0.2873461E-009  0.9136893E+02  0.7561462E-02  0.1299570E+00
          1   -1    0    0  501    0  0.00000000000E+00  0.00000000000E+00  0.20488634692E+04  0.20488634692E+04  0.00000000000E+00 0. -1.
         -1   -1    0    0    0  501 -0.00000000000E+00 -0.00000000000E+00 -0.10420758698E+02  0.10420758698E+02  0.00000000000E+00 0.  1.
         25    2    1    2    0    0  0.33029539132E+02 -0.54066372646E+01  0.17476177993E+04  0.17524081371E+04  0.12508446940E+03 0.  0.
          5    1    3    3  502    0  0.13991591433E+02 -0.45343255333E+02  0.15050202520E+04  0.15057739561E+04  0.41800000000E+01 0.  1.
         -5    1    3    3    0  502  0.19037947699E+02  0.39936618069E+02  0.24259754724E+03  0.24663418101E+03  0.41800000000E+01 0.  1.
        -11    1    1    2    0    0  0.26416038463E+02 -0.11571542345E+02  0.45408135214E+02  0.53792252452E+02  0.00000000000E+00 0.  1.
         11    1    1    2    0    0 -0.59445577594E+02  0.16978179609E+02  0.24541677601E+03  0.25308383833E+03  0.00000000000E+00 0. -1.
</event>
<event>
 7    1  0.2873461E-009  0.1771728E+03  0.7561462E-02  0.1170568E+00
          2   -1    0    0  501    0  0.00000000000E+00  0.00000000000E+00  0.57420344766E+03  0.57420344766E+03  0.00000000000E+00 0. -1.
         -2   -1    0    0    0  501 -0.00000000000E+00 -0.00000000000E+00 -0.59160462267E+02  0.59160462267E+02  0.00000000000E+00 0.  1.
         25    2    1    2    0    0  0.13794911935E+03  0.47916435083E+02  0.22617826896E+03  0.29686719245E+03  0.12509027270E+03 0.  0.
          5    1    3    3  502    0  0.85696705923E+02 -0.27518406552E+02  0.64135746529E+02  0.11059861883E+03  0.41800000000E+01 0. -1.
         -5    1    3    3    0  502  0.52252413429E+02  0.75434841635E+02  0.16204252243E+03  0.18626857362E+03  0.41800000000E+01 0. -1.
        -11    1    1    2    0    0 -0.22011307603E+02 -0.51901428505E+02  0.86851898090E+02  0.10354471568E+03  0.00000000000E+00 0.  1.
         11    1    1    2    0    0 -0.11593781175E+03  0.39849934226E+01  0.20201281834E+03  0.23295200179E+03  0.00000000000E+00 0. -1.
</event>
<event>
 7    1  0.2873461E-009  0.1638791E+03  0.7561462E-02  0.1184386E+00
         -2   -1    0    0    0  501 -0.00000000000E+00  0.00000000000E+00  0.21493247104E+02  0.21493247104E+02  0.00000000000E+00 0. -1.
          2   -1    0    0  501    0  0.00000000000E+00 -0.00000000000E+00 -0.16333843461E+04  0.16333843461E+04  0.00000000000E+00 0.  1.
         25    2    1    2    0    0 -0.12128290390E+03 -0.75064765206E+02 -0.10813747950E+04  0.10978904605E+04  0.12509098433E+03 0.  0.
          5    1    3    3  502    0  0.51543105936E+01  0.22820754479E+02 -0.69502140263E+02  0.73453207239E+02  0.41800000000E+01 0. -1.
         -5    1    3    3    0  502 -0.12643721449E+03 -0.97885519685E+02 -0.10118726547E+04  0.10244372533E+04  0.41800000000E+01 0. -1.
        -11    1    1    2    0    0  0.50441127313E+02  0.42978972769E+02 -0.39683628621E+03  0.40233137769E+03  0.00000000000E+00 0.  1.
         11    1    1    2    0    0  0.70841776583E+02  0.32085792437E+02 -0.13368001779E+03  0.15465575496E+03  0.00000000000E+00 0. -1.
</event>
<event>
 7    1  0.2873461E-009  0.1474545E+03  0.7561462E-02  0.1203636E+00
         -1   -1    0    0    0  501 -0.00000000000E+00  0.00000000000E+00  0.29076518702E+02  0.29076518702E+02  0.00000000000E+00 0.  1.
          1   -1    0    0  501    0  0.00000000000E+00 -0.00000000000E+00 -0.98730206636E+03  0.98730206636E+03  0.00000000000E+00 0. -1.
         25    2    1    2    0    0 -0.60000252740E+02 -0.10343607789E+03 -0.64958106490E+03  0.67223659671E+03  0.12508968598E+03 0.  0.
          5    1    3    3  502    0 -0.50599229798E+01 -0.91413426962E+02 -0.55178933706E+03  0.55934869478E+03  0.41800000000E+01 0.  1.
         -5    1    3    3    0  502 -0.54940329760E+02 -0.12022650927E+02 -0.97791727838E+02  0.11288790193E+03  0.41800000000E+01 0.  1.
        -11    1    1    2    0    0  0.39819648999E+02 -0.16546353050E+01 -0.48021794264E+02  0.62405408329E+02  0.00000000000E+00 0. -1.
         11    1    1    2    0    0  0.20180603741E+02  0.10509071319E+03 -0.26062268849E+03  0.28173658002E+03  0.00000000000E+00 0.  1.
</event>
<event>
 7    1  0.2873461E-009  0.9021792E+02  0.7561462E-02  0.1302325E+00
         -3   -1    0    0    0  501 -0.00000000000E+00  0.00000000000E+00  0.66549086843E+02  0.66549086843E+02  0.00000000000E+00 0.  1.
          3   -1    0    0  501    0  0.00000000000E+00 -0.00000000000E+00 -0.23953552710E+03  0.23953552710E+03  0.00000000000E+00 0. -1.
         25    2    1    2    0    0 -0.54018904577E+02  0.10313523596E+02 -0.97154156349E+02  0.16766519204E+03  0.12509306817E+03 0.  0.
          5    1    3    3  502    0 -0.31271112051E+02 -0.45462377141E+02 -0.91615205846E+02  0.10703050279E+03  0.41800000000E+01 0. -1.
         -5    1    3    3    0  502 -0.22747792526E+02  0.55775900737E+02 -0.55389505027E+01  0.60634689251E+02  0.41800000000E+01 0. -1.
        -11    1    1    2    0    0  0.19880450852E+02  0.12659775949E+02  0.22027679744E+02  0.32260206572E+02  0.00000000000E+00 0.  1.
         11    1    1    2    0    0  0.34138453725E+02 -0.22973299545E+02 -0.97859963648E+02  0.10615921533E+03  0.00000000000E+00 0. -1.
</event>
<event>
 7    1  0.2873461E-009  0.1464377E+03  0.7561462E-02  0.1204920E+00
         -1   -1    0    0    0  501 -0.00000000000E+00  0.00000000000E+00  0.68377196880E+03  0.68377196880E+03  0.00000000000E+00 0.  1.
          1   -1    0    0  501    0  0.00000000000E+00 -0.00000000000E+00 -0.35157735328E+02  0.35157735328E+02  0.00000000000E+00 0. -1.
         25    2    1    2    0    0  0.32899515485E+02  0.10230927003E+03  0.40867907202E+03  0.44069909975E+03  0.12509015854E+03 0.  0.
          5    1    3    3  502    0 -0.44704492863E+02  0.45163948079E+02  0.11335525438E+03  0.13001984458E+03  0.41800000000E+01 0.  1.
         -5    1    3    3    0  502  0.77604008348E+02  0.57145321952E+02  0.29532381763E+03  0.31067925517E+03  0.41800000000E+01 0.  1.
        -11    1    1    2    0    0 -0.53101722878E+02 -0.37945138484E+02  0.71605855500E+02  0.96886660842E+02  0.00000000000E+00 0.  1.
         11    1    1    2    0    0  0.20202207393E+02 -0.64364131547E+02  0.16832930595E+03  0.18134394353E+03  0.00000000000E+00 0. -1.
</event>
<event>
 7    1  0.2873461E-009  0.1036643E+03  0.7561462E-02  0.1272774E+00
          2   -1    0    0  501    0  0.00000000000E+00  0.00000000000E+00  0.34273546599E+03  0.34273546599E+03  0.00000000000E+00 0. -1.
         -2   -1    0    0    0  501 -0.00000000000E+00 -0.00000000000E+00 -0.53196879703E+02  0.53196879703E+02  0.00000000000E+00 0.  1.
         25    2    1    2    0    0  0.30121584159E+02 -0.19262782527E+02  0.54140231367E+02  0.14091130226E+03  0.12508583385E+03 0.  0.
          5    1    3    3  502    0  0.66948953950E+02 -0.45688018394E+02  0.49716212919E+02  0.95177369614E+02  0.41800000000E+01 0. -1.
         -5    1    3    3    0  502 -0.36827369791E+02  0.26425235867E+02  0.44240184486E+01  0.45733932649E+02  0.41800000000E+01 0. -1.
        -11    1    1    2    0    0  0.64532342765E+01 -0.23504726448E+02  0.17585321126E+02  0.30055946452E+02  0.00000000000E+00 0.  1.
         11    1    1    2    0    0 -0.36574818436E+02  0.42767508975E+02  0.21781303379E+03  0.22496509697E+03  0.00000000000E+00 0. -1.
</event>
<event>
 7    1  0.2873461E-009  0.1201179E+03  0.7561462E-02  0.1242903E+00
         -2   -1    0    0    0  501 -0.00000000000E+00  0.00000000000E+00  0.18119831934E+03  0.18119831934E+03  0.00000000000E+00 0.  1.
          2   -1    0    0  501    0  0.00000000000E+00 -0.00000000000E+00 -0.13488197145E+03  0.13488197145E+03  0.00000000000E+00 0. -1.
         25    2    1    2    0    0  0.74437472641E+02 -0.14443260946E+02  0.10783912505E+03  0.18173137740E+03  0.12508985378E+03 0.  0.
          5    1    3    3  502    0  0.42780050245E+02  0.53177304903E+02  0.32963084439E+02  0.75907811136E+02  0.41800000000E+01 0. -1.
         -5    1    3    3    0  502  0.31657422397E+02 -0.67620565849E+02  0.74876040614E+02  0.10582356626E+03  0.41800000000E+01 0. -1.
        -11    1    1    2    0    0  0.61545314222E+01 -0.10965914874E+02 -0.46942528895E+02  0.48597639501E+02  0.00000000000E+00 0. -1.
         11    1    1    2    0    0 -0.80592004064E+02  0.25409175819E+02 -0.14580248273E+02  0.85751273894E+02  0.00000000000E+00 0.  1.
</event>
<event>
 7    1  0.2873461E-009  0.1588285E+03  0.7561462E-02  0.1190026E+00
         -2   -1    0    0    0  501 -0.00000000000E+00  0.00000000000E+00  0.13425873056E+03  0.13425873056E+03  0.00000000000E+00 0.  1.
          2   -1    0    0  501    0  0.00000000000E+00 -0.00000000000E+00 -0.28158440338E+03  0.28158440338E+03  0.00000000000E+00 0. -1.
         25    2    1    2    0    0 -0.13705220150E+03 -0.27201210866E+02 -0.15967372022E+03  0.24630581395E+03  0.12509054820E+03 0.  0.
          5    1    3    3  502    0 -0.13421307878E+03  0.14595037534E+02 -0.82153978800E+02  0.15809147437E+03  0.41800000000E+01 0.  1.
         -5    1    3    3    0  502 -0.28391227204E+01 -0.41796248400E+02 -0.77519741418E+02  0.88214339581E+02  0.41800000000E+01 0.  1.
        -11    1    1    2    0    0  0.12487956360E+03  0.28945680671E+02  0.44039107308E+02  0.13554409174E+03  0.00000000000E+00 0.  1.
         11    1    1    2    0    0  0.12172637901E+02 -0.17444698046E+01 -0.31691059914E+02  0.33993228250E+02  0.00000000000E+00 0. -1.
</event>
<event>
 6    1  0.2873461E-009  0.1761672E+03  0.7561462E-02  0.1171565E+00
         -1   -1    0    0    0  501 -0.00000000000E+00  0.00000000000E+00  0.15440120624E+03  0.15440120624E+03  0.00000000000E+00 0.  1.
          1   -1    0    0  501    0  0.00000000000E+00 -0.00000000000E+00 -0.29261994758E+03  0.29261994758E+03  0.00000000000E+00 0. -1.
          5    1    1    2  502    0  0.31392529913E+02 -0.19586320218E+02 -0.53365151822E+02  0.65072472698E+02  0.41800000000E+01 0.  1.
         -5    1    1    2    0  502  0.10549054305E+03 -0.73378991454E+02  0.61340515437E+02  0.14245301785E+03  0.41800000000E+01 0.  1.
        -11    1    1    2    0    0 -0.32630575517E+02  0.73576297800E+02 -0.85019216081E+02  0.11707473322E+03  0.00000000000E+00 0.  1.
         11    1    1    2    0    0 -0.10425249745E+03  0.19389013872E+02 -0.61174888878E+02  0.12242093004E+03  0.00000000000E+00 0. -1.
</event>
<event>
 7    1  0.2873461E-009  0.1678308E+03  0.7561462E-02  0.1180129E+00
          2   -1    0    0  501    0  0.00000000000E+00  0.00000000000E+00  0.73116153224E+03  0.73116153224E+03  0.00000000000E+00 0. -1.
         -2   -1    0    0    0  501 -0.00000000000E+00 -0.00000000000E+00 -0.66010839635E+02  0.66010839635E+02  0.00000000000E+00 0.  1.
         25    2    1    2    0    0  0.47814564627E+02  0.15554010347E+03  0.52789663344E+03  0.56639295835E+03  0.12508865372E+03 0.  0.
          5    1    3    3  502    0  0.14081534278E+02  0.44089623731E+02  0.35419506332E+03  0.35723073749E+03  0.41800000000E+01 0. -1.
         -5    1    3    3    0  502  0.33733030350E+02  0.11145047974E+03  0.17370157012E+03  0.20916222085E+03  0.41800000000E+01 0. -1.
        -11    1    1    2    0    0  0.12712878286E+01 -0.93741209027E+02  0.31660103129E+02  0.98951465744E+02  0.00000000000E+00 0.  1.
         11    1    1    2    0    0 -0.49085852456E+02 -0.61798894444E+02  0.10559395604E+03  0.13182794778E+03  0.00000000000E+00 0. -1.
</event>
<event>
 7    1  0.2873461E-009  0.2460221E+03  0.7561462E-02  0.1115845E+00
          1   -1    0    0  501    0  0.00000000000E+00  0.00000000000E+00  0.13406466439E+04  0.13406466439E+04  0.00000000000E+00 0. -1.
         -1   -1    0    0    0  501 -0.00000000000E+00 -0.00000000000E+00 -0.54568345257E+02  0.54568345257E+02  0.00000000000E+00 0.  1.
         25    2    1    2    0    0  0.59349972810E+02  0.22944344422E+03  0.48287028607E+03  0.55224899950E+03  0.12509408826E+03 0.  0.
          5    1    3    3  502    0 -0.11405950440E+02  0.33512287331E+02  0.12461374983E+02  0.37761453548E+02  0.41800000000E+01 0.  1.
         -5    1    3    3    0  502  0.70755923251E+02  0.19593115689E+03  0.47040891108E+03  0.51448754595E+03  0.41800000000E+01 0.  1.
        -11    1    1    2    0    0  0.20673015535E+01 -0.13723381465E+03  0.33921853703E+03  0.36593252039E+03  0.00000000000E+00 0.  1.
         11    1    1    2    0    0 -0.61417274364E+02 -0.92209629570E+02  0.46398947553E+03  0.47703346924E+03  0.00000000000E+00 0. -1.
</event>
<event>
 7    1  0.2873461E-009  0.1428734E+03  0.7561462E-02  0.1209514E+00
          1   -1    0    0  501    0  0.00000000000E+00  0.00000000000E+00  0.56113745860E+03  0.56113745860E+03  0.00000000000E+00 0. -1.
         -1   -1    0    0    0  501 -0.00000000000E+00 -0.00000000000E+00 -0.68305402579E+02  0.68305402579E+02  0.00000000000E+00 0.  1.
         25    2    1    2    0    0 -0.13327360872E+02 -0.95236581802E+02  0.46834309347E+03  0.49420721612E+03  0.12509154327E+03 0.  0.
          5    1    3    3  502    0 -0.63659921330E+02 -0.21557751943E+02  0.23080578425E+03  0.24042900137E+03  0.41800000000E+01 0. -1.
         -5    1    3    3    0  502  0.50332560458E+02 -0.73678829859E+02  0.23753730922E+03  0.25377821475E+03  0.41800000000E+01 0. -1.
        -11    1    1    2    0    0  0.40745492388E+02  0.93041813828E+02  0.32399768154E+02  0.10661481720E+03  0.00000000000E+00 0.  1.
         11    1    1    2    0    0 -0.27418131516E+02  0.21947679733E+01 -0.79108056026E+01  0.28620827863E+02  0.00000000000E+00 0. -1.
</event>
<event>
 7    1  0.2873461E-009  0.1848193E+03  0.7561462E-02  0.1163219E+00
         -1   -1    0    0    0  501 -0.00000000000E+00  0.00000000000E+00  0.30850695993E+03  0.30850695993E+03  0.00000000000E+00 0.  1.
          1   -1    0    0  501    0  0.00000000000E+00 -0.00000000000E+00 -0.12314012648E+03  0.12314012648E+03  0.00000000000E+00 0. -1.
         25    2    1    2    0    0 -0.67760540968E+02  0.14427948579E+03  0.67777608995E+02  0.21365808020E+03  0.12509160652E+03 0.  0.
          5    1    3    3  502    0 -0.25771922076E+02  0.14809004032E+03  0.78953427849E+02  0.16984100853E+03  0.41800000000E+01 0.  1.
         -5    1    3    3    0  502 -0.41988618892E+02 -0.38105545362E+01 -0.11175818854E+02  0.43817071666E+02  0.41800000000E+01 0.  1.
        -11    1    1    2    0    0  0.90562544006E+01 -0.10694181376E+03  0.41983317634E+02  0.11524394228E+03  0.00000000000E+00 0.  1.
         11    1    1    2    0    0  0.58704286567E+02 -0.37337672029E+02  0.75605906825E+02  0.10274506392E+03  0.00000000000E+00 0. -1.
</event>
<event>
 7    1  0.2873461E-009  0.1363150E+03  0.7561462E-02  0.1218375E+00
         -2   -1    0    0    0  501 -0.00000000000E+00  0.00000000000E+00  0.76763369041E+02  0.76763369041E+02  0.00000000000E+00 0.  1.
          2   -1    0    0  501    0  0.00000000000E+00 -0.00000000000E+00 -0.41641382108E+03  0.41641382108E+03  0.00000000000E+00 0. -1.
         25    2    1    2    0    0 -0.90147091707E+02 -0.61198716581E+02 -0.30386467957E+03  0.34619785261E+03  0.12508968228E+03 0.  0.
          5    1    3    3  502    0 -0.16659609046E+02  0.33906416923E+02 -0.35026654645E+02  0.51686812803E+02  0.41800000000E+01 0.  1.
         -5    1    3    3    0  502 -0.73487482661E+02 -0.95105133504E+02 -0.26883802492E+03  0.29451103981E+03  0.41800000000E+01 0.  1.
        -11    1    1    2    0    0  0.32056836553E+02  0.31077505015E+01  0.28231726112E+02  0.42829070060E+02  0.00000000000E+00 0.  1.
         11    1    1    2    0    0  0.58090255154E+02  0.58090966080E+02 -0.64017498581E+02  0.10415026744E+03  0.00000000000E+00 0. -1.
</event>
<event>
 7    1  0.2873461E-009  0.1709817E+03  0.7561462E-02  0.1176828E+00
         -1   -1    0    0    0  501 -0.00000000000E+00  0.00000000000E+00  0.32503799804E+03  0.32503799804E+03  0.00000000000E+00 0.  1.
          1   -1    0    0  501    0  0.00000000000E+00 -0.00000000000E+00 -0.18562794667E+03  0.18562794667E+03  0.00000000000E+00 0. -1.
         25    2    1    2    0    0 -0.60337717447E+02 -0.14106924229E+03  0.23566416416E+03  0.30777594433E+03  0.12508901777E+03 0.  0.
          5    1    3    3  502    0 -0.20700029486E+02 -0.14537063320E+03  0.22042511556E+03  0.26488830890E+03  0.41800000000E+01 0. -1.
         -5    1    3    3    0  502 -0.39637687960E+02  0.43013909081E+01  0.15239048599E+02  0.42887635430E+02  0.41800000000E+01 0. -1.
        -11    1    1    2    0    0  0.54668315192E+02  0.10414838178E+03 -0.21851240803E+02  0.11963689580E+03  0.00000000000E+00 0.  1.
         11    1    1    2    0    0  0.56694022544E+01  0.36920860513E+02 -0.74402871988E+02  0.83253104585E+02  0.00000000000E+00 0. -1.
</event>
<event>
 7    1  0.2873461E-009  0.1345762E+03  0.7561462E-02  0.1220819E+00
         -3   -1    0    0    0  501 -0.00000000000E+00  0.00000000000E+00  0.32266155642E+02  0.32266155642E+02  0.00000000000E+00 0.  1.
          3   -1    0    0  501    0  0.00000000000E+00 -0.00000000000E+00 -0.14546673399E+04  0.14546673399E+04  0.00000000000E+00 0. -1.
         25    2    1    2    0    0  0.85971405092E+02 -0.30267241961E+02 -0.12982035738E+04  0.13073969120E+04  0.12508788097E+03 0.  0.
          5    1    3    3  502    0  0.10450211541E+03 -0.55844326388E+02 -0.11299859685E+04  0.11361888234E+04  0.41800000000E+01 0. -1.
         -5    1    3    3    0  502 -0.18530710316E+02  0.25577084427E+02 -0.16821760529E+03  0.17120808860E+03  0.41800000000E+01 0. -1.
        -11    1    1    2    0    0 -0.69379230718E+02 -0.14596233444E+02 -0.36738386857E+02  0.79851341596E+02  0.00000000000E+00 0. -1.
         11    1    1    2    0    0 -0.16592174375E+02  0.44863475405E+02 -0.87459223606E+02  0.99685241985E+02  0.00000000000E+00 0.  1.
</event>
<event>
 7    1  0.2873461E-009  0.1147509E+03  0.7561462E-02  0.1252017E+00
         -1   -1    0    0    0  501 -0.00000000000E+00  0.00000000000E+00  0.47103649156E+03  0.47103649156E+03  0.00000000000E+00 0.  1.
          1   -1    0    0  501    0  0.00000000000E+00 -0.00000000000E+00 -0.35361679042E+02  0.35361679042E+02  0.00000000000E+00 0. -1.
         25    2    1    2    0    0 -0.29068998329E+02 -0.63152118908E+02  0.25198975014E+03  0.28979268535E+03  0.12509104492E+03 0.  0.
          5    1    3    3  502    0  0.31163015342E+02 -0.25622335628E+01  0.99423065715E+01  0.33075979592E+02  0.41800000000E+01 0.  1.
         -5    1    3    3    0  502 -0.60232013670E+02 -0.60589885346E+02  0.24204744357E+03  0.25671670576E+03  0.41800000000E+01 0.  1.
        -11    1    1    2    0    0 -0.31873669749E+02  0.18333274138E+02  0.82003853164E+02  0.89870304871E+02  0.00000000000E+00 0.  1.
         11    1    1    2    0    0  0.60942668078E+02  0.44818844770E+02  0.10168120921E+03  0.12673518038E+03  0.00000000000E+00 0. -1.
</event>
<event>
 7    1  0.2873461E-009  0.1024840E+03  0.7561462E-02  0.1275158E+00
          3   -1    0    0  501    0  0.00000000000E+00  0.00000000000E+00  0.11104036563E+03  0.11104036563E+03  0.00000000000E+00 0. -1.
         -3   -1    0    0    0  501 -0.00000000000E+00 -0.00000000000E+00 -0.12093302616E+03  0.12093302616E+03  0.00000000000E+00 0.  1.
         25    2    1    2    0    0 -0.18016691467E+02  0.30025424253E+02 -0.26208713835E+02  0.13251518335E+03  0.12508896780E+03 0.  0.
          5    1    3    3  502    0 -0.15269261395E+02  0.67434675448E+02 -0.52161121915E+02  0.86711249765E+02  0.41800000000E+01 0. -1.
         -5    1    3    3    0  502 -0.27474300726E+01 -0.37409251195E+02  0.25952408080E+02  0.45803933587E+02  0.41800000000E+01 0. -1.
        -11    1    1    2    0    0  0.55516444069E+02 -0.21253440992E+02  0.71832452813E+01  0.59878070517E+02  0.00000000000E+00 0.  1.
         11    1    1    2    0    0 -0.37499752602E+02 -0.87719832607E+01  0.91328080170E+01  0.39580137921E+02  0.00000000000E+00 0. -1.
</event>
<event>
 7    1  0.2873461E-009  0.9837692E+02  0.7561462E-02  0.1283747E+00
         -3   -1    0    0    0  501 -0.00000000000E+00  0.00000000000E+00  0.39585981587E+02  0.39585981587E+02  0.00000000000E+00 0.  1.
          3   -1    0    0  501    0  0.00000000000E+00 -0.00000000000E+00 -0.34585399445E+03  0.34585399445E+03  0.00000000000E+00 0. -1.
         25    2    1    2    0    0  0.36999638125E+01  0.28022390101E+02 -0.21360190625E+03  0.24914273395E+03  0.12508950174E+03 0.  0.
          5    1    3    3  502    0  0.26520151116E+02  0.72408024576E+02 -0.14391531608E+03  0.16332584315E+03  0.41800000000E+01 0.  1.
         -5    1    3    3    0  502 -0.22820187304E+02 -0.44385634476E+02 -0.69686590173E+02  0.85816890799E+02  0.41800000000E+01 0.  1.
        -11    1    1    2    0    0 -0.33160938199E+02 -0.89411502983E+01  0.29210813793E+01  0.34469184895E+02  0.00000000000E+00 0.  1.
         11    1    1    2    0    0  0.29460974387E+02 -0.19081239802E+02 -0.95587187994E+02  0.10182805720E+03  0.00000000000E+00 0. -1.
</event>
<event>
 7    1  0.2873461E-009  0.1763766E+03  0.7561462E-02  0.1171357E+00
          1   -1    0    0  501    0  0.00000000000E+00  0.00000000000E+00  0.83306720480E+03  0.83306720480E+03  0.00000000000E+00 0. -1.
         -1   -1    0    0    0  501 -0.00000000000E+00 -0.00000000000E+00 -0.41518608005E+02  0.41518608005E+02  0.00000000000E+00 0.  1.
         25    2    1    2    0    0 -0.92513734369E+02  0.10793740186E+03  0.30324626472E+03  0.35750741137E+03  0.12507589036E+03 0.  0.
          5    1    3    3  502    0 -0.49394818538E+02  0.12913483164E+03  0.19577198372E+03  0.23970772797E+03  0.41800000000E+01 0.  1.
         -5    1    3    3    0  502 -0.43118915830E+02 -0.21197429774E+02  0.10747428100E+03  0.11779968340E+03  0.41800000000E+01 0.  1.
        -11    1    1    2    0    0  0.64530325903E+02 -0.11958963634E+03  0.34913195241E+03  0.37464511778E+03  0.00000000000E+00 0.  1.
         11    1    1    2    0    0  0.27983408466E+02  0.11652234482E+02  0.13917037966E+03  0.14243328366E+03  0.00000000000E+00 0. -1.
</event>
<event>
 7    1  0.2873461E-009  0.1029379E+03  0.7561462E-02  0.1274236E+00
         -1   -1    0    0    0  501 -0.00000000000E+00  0.00000000000E+00  0.68079371374E+03  0.68079371374E+03  0.00000000000E+00 0.  1.
          1   -1    0    0  501    0  0.00000000000E+00 -0.00000000000E+00 -0.25906452579E+02  0.25906452579E+02  0.00000000000E+00 0. -1.
         25    2    1    2    0    0  0.12111335057E+02  0.66807540087E+02  0.45777595519E+03  0.47939080993E+03  0.12508713622E+03 0.  0.
          5    1    3    3  502    0  0.17308634744E+02 -0.16186788563E+02  0.13934676398E+02  0.27807347356E+02  0.41800000000E+01 0. -1.
         -5    1    3    3    0  502 -0.51972996867E+01  0.82994328650E+02  0.44384127879E+03  0.45158346258E+03  0.41800000000E+01 0. -1.
        -11    1    1    2    0    0  0.29854907660E+02 -0.21486242806E+02  0.13418016492E+03  0.13913048120E+03  0.00000000000E+00 0.  1.
         11    1    1    2    0    0 -0.41966242718E+02 -0.45321297280E+02  0.62931141054E+02  0.88178875188E+02  0.00000000000E+00 0. -1.
</event>
<event>
 7    1  0.2873461E-009  0.1159775E+03  0.7561462E-02  0.1249884E+00
         -4   -1    0    0    0  501 -0.00000000000E+00  0.00000000000E+00  0.45898584150E+02  0.45898584150E+02  0.00000000000E+00 0. -1.
          4   -1    0    0  501    0  0.00000000000E+00 -0.00000000000E+00 -0.37063611824E+03  0.37063611824E+03  0.00000000000E+00 0.  1.
         25    2    1    2    0    0 -0.88205967991E+01  0.35423514512E+02 -0.87852396585E+02  0.15715611806E+03  0.12508946218E+03 0.  0.
          5    1    3    3  502    0 -0.38997545519E+01 -0.45639044836E+02 -0.48408205884E+02  0.66775424342E+02  0.41800000000E+01 0.  1.
         -5    1    3    3    0  502 -0.49208422472E+01  0.81062559348E+02 -0.39444190701E+02  0.90380693715E+02  0.41800000000E+01 0.  1.
        -11    1    1    2    0    0  0.42951653271E+02  0.13468009359E+02 -0.84470215201E+02  0.95715458787E+02  0.00000000000E+00 0. -1.
         11    1    1    2    0    0 -0.34131056472E+02 -0.48891523871E+02 -0.15241492231E+03  0.16366312555E+03  0.00000000000E+00 0.  1.
</event>
<event>
 7    1  0.2873461E-009  0.1117554E+03  0.7561462E-02  0.1257353E+00
          1   -1    0    0  501    0  0.00000000000E+00  0.00000000000E+00  0.14357790504E+03  0.14357790504E+03  0.00000000000E+00 0. -1.
         -1   -1    0    0    0  501 -0.00000000000E+00 -0.00000000000E+00 -0.11894855895E+03  0.11894855895E+03  0.00000000000E+00 0.  1.
         25    2    1    2    0    0  0.37716258061E+02 -0.18214951037E+02  0.78240319162E+02  0.15337181947E+03  0.12508823646E+03 0.  0.
          5    1    3    3  502    0  0.82434273674E+02 -0.75950445338E+01  0.34487380491E+02  0.89777201954E+02  0.41800000000E+01 0. -1.
         -5    1    3    3    0  502 -0.44718015613E+02 -0.10619906504E+02  0.43752938671E+02  0.63594617515E+02  0.41800000000E+01 0. -1.
        -11    1    1    2    0    0 -0.61734739115E+02 -0.38508685337E+01 -0.29114720677E+02  0.68364275482E+02  0.00000000000E+00 0.  1.
         11    1    1    2    0    0  0.24018481054E+02  0.22065819571E+02 -0.24496252396E+02  0.40790369046E+02  0.00000000000E+00 0. -1.
</event>
<event>
 7    1  0.2873461E-009  0.1422145E+03  0.7561462E-02  0.1210380E+00
          2   -1    0    0  501    0  0.00000000000E+00  0.00000000000E+00  0.13384892356E+04  0.13384892356E+04  0.00000000000E+00 0. -1.
         -2   -1    0    0    0  501 -0.00000000000E+00 -0.00000000000E+00 -0.23131713356E+02  0.23131713356E+02  0.00000000000E+00 0.  1.
         25    2    1    2    0    0  0.15115448806E+02 -0.11048666589E+03  0.10156984459E+04  0.10294325151E+04  0.12510871249E+03 0.  0.
          5    1    3    3  502    0  0.27655633112E+02  0.18386702179E+01  0.51591843403E+02  0.58714610250E+02  0.41800000000E+01 0. -1.
         -5    1    3    3    0  502 -0.12540184306E+02 -0.11232533611E+03  0.96410660250E+03  0.97071790482E+03  0.41800000000E+01 0. -1.
        -11    1    1    2    0    0 -0.43787800600E+02  0.19559553549E+02  0.10511826249E+03  0.11554132042E+03  0.00000000000E+00 0.  1.
         11    1    1    2    0    0  0.28672351794E+02  0.90927112345E+02  0.19454081383E+03  0.21664711344E+03  0.00000000000E+00 0. -1.
</event>
<event>
 7    1  0.3842493E-009  0.1511366E+03  0.7561462E-02  0.1199083E+00
         -2   -1    0    0    0  501 -0.00000000000E+00  0.00000000000E+00  0.47292325211E+02  0.47292325211E+02  0.00000000000E+00 0.  1.
          2   -1    0    0  501    0  0.00000000000E+00 -0.00000000000E+00 -0.61733238839E+03  0.61733238839E+03  0.00000000000E+00 0. -1.
         25    2    1    2    0    0  0.66103124826E+02  0.10794519948E+03 -0.37434092533E+03  0.41448844114E+03  0.12509096795E+03 0.  0.
          5    1    3    3  502    0 -0.33666540674E+02  0.31574095664E+02 -0.15383040614E+03  0.16065996929E+03  0.41800000000E+01 0.  1.
         -5    1    3    3    0  502  0.99769665500E+02  0.76371103813E+02 -0.22051051919E+03  0.25382847185E+03  0.41800000000E+01 0.  1.
        -11    1    1    2    0    0 -0.48948603215E+02 -0.50778877124E+02 -0.17203503826E+03  0.18593147799E+03  0.00000000000E+00 0. -1.
         11    1    1    2    0    0 -0.17154521611E+02 -0.57166322353E+02 -0.23664099587E+02  0.64204794466E+02  0.00000000000E+00 0.  1.
</event>
<event>
 7    1  0.2873461E-009  0.1263715E+03  0.7561462E-02  0.1232941E+00
         -1   -1    0    0    0  501 -0.00000000000E+00  0.00000000000E+00  0.22783453470E+03  0.22783453470E+03  0.00000000000E+00 0.  1.
          1   -1    0    0  501    0  0.00000000000E+00 -0.00000000000E+00 -0.13322336042E+03  0.13322336042E+03  0.00000000000E+00 0. -1.
         25    2    1    2    0    0 -0.91506727250E+02  0.35267749786E+02  0.57061952897E+02  0.16888253056E+03  0.12509175573E+03 0.  0.
          5    1    3    3  502    0 -0.44658699528E+02  0.47320003582E+02  0.89323239831E+02  0.11058795484E+03  0.41800000000E+01 0. -1.
         -5    1    3    3    0  502 -0.46848027723E+02 -0.12052253796E+02 -0.32261286934E+02  0.58294575715E+02  0.41800000000E+01 0. -1.
        -11    1    1    2    0    0  0.93793006920E+02 -0.61823205061E+02  0.82872198266E+02  0.13959598159E+03  0.00000000000E+00 0.  1.
         11    1    1    2    0    0 -0.22862796700E+01  0.26555455276E+02 -0.45322976883E+02  0.52579382967E+02  0.00000000000E+00 0. -1.
</event>
<event>
 7    1  0.2873461E-009  0.1651169E+03  0.7561462E-02  0.1183038E+00
          1   -1    0    0  501    0  0.00000000000E+00  0.00000000000E+00  0.39876502950E+03  0.39876502950E+03  0.00000000000E+00 0. -1.
         -1   -1    0    0    0  501 -0.00000000000E+00 -0.00000000000E+00 -0.82157754062E+02  0.82157754062E+02  0.00000000000E+00 0.  1.
         25    2    1    2    0    0  0.14357458217E+03  0.18806636083E+02  0.16169245263E+03  0.25051993593E+03  0.12509372029E+03 0.  0.
          5    1    3    3  502    0  0.15036619902E+03  0.24942888121E+02  0.87809447861E+02  0.17595486071E+03  0.41800000000E+01 0. -1.
         -5    1    3    3    0  502 -0.67916168479E+01 -0.61362520382E+01  0.73883004773E+02  0.74565075221E+02  0.41800000000E+01 0. -1.
        -11    1    1    2    0    0 -0.10188123673E+03  0.27355325774E+02  0.11709267444E+03  0.15760328250E+03  0.00000000000E+00 0.  1.
         11    1    1    2    0    0 -0.41693345442E+02 -0.46161961856E+02  0.37822148362E+02  0.72799565131E+02  0.00000000000E+00 0. -1.
</event>
<event>
 7    1  0.2873461E-009  0.2959844E+03  0.7561462E-02  0.1087265E+00
          1   -1    0    0  501    0  0.00000000000E+00  0.00000000000E+00  0.10120424748E+04  0.10120424748E+04  0.00000000000E+00 0.  1.
         -1   -1    0    0    0  501 -0.00000000000E+00 -0.00000000000E+00 -0.98349969500E+02  0.98349969500E+02  0.00000000000E+00 0. -1.
         25    2    1    2    0    0 -0.29299257235E+03  0.27126330512E+02  0.52249396773E+03  0.61255592821E+03  0.12507731053E+03 0.  0.
          5    1    3    3  502    0 -0.94173925323E+02 -0.98845461038E+01  0.72971259530E+02  0.11961901847E+03  0.41800000000E+01 0. -1.
         -5    1    3    3    0  502 -0.19881864702E+03  0.37010876616E+02  0.44952270820E+03  0.49293690974E+03  0.41800000000E+01 0. -1.
        -11    1    1    2    0    0  0.80259547224E+02  0.13934567571E+01  0.17822781909E+03  0.19547043802E+03  0.00000000000E+00 0.  1.
         11    1    1    2    0    0  0.21273302512E+03 -0.28519787269E+02  0.21297071851E+03  0.30236607810E+03  0.00000000000E+00 0. -1.
</event>
<event>
 7    1  0.2873461E-009  0.9945268E+02  0.7561462E-02  0.1281451E+00
         -2   -1    0    0    0  501 -0.00000000000E+00  0.00000000000E+00  0.30544455709E+03  0.30544455709E+03  0.00000000000E+00 0.  1.
          2   -1    0    0  501    0  0.00000000000E+00 -0.00000000000E+00 -0.48858651029E+02  0.48858651029E+02  0.00000000000E+00 0. -1.
         25    2    1    2    0    0 -0.33740342243E+02 -0.43660577695E+02  0.14419745934E+03  0.19873636872E+03  0.12513424884E+03 0.  0.
          5    1    3    3  502    0 -0.35014113197E+02 -0.86436539561E+02  0.91430795657E+02  0.13066876554E+03  0.41800000000E+01 0.  1.
         -5    1    3    3    0  502  0.12737709542E+01  0.42775961866E+02  0.52766663679E+02  0.68067603174E+02  0.41800000000E+01 0.  1.
        -11    1    1    2    0    0  0.30952817742E+02  0.16169066586E+02 -0.47230906136E+01  0.35239512275E+02  0.00000000000E+00 0. -1.
         11    1    1    2    0    0  0.27875245011E+01  0.27491511109E+02  0.11711153733E+03  0.12032732712E+03  0.00000000000E+00 0.  1.
</event>
<event>
 7    1  0.2873461E-009  0.1012243E+03  0.7561462E-02  0.1277742E+00
          1   -1    0    0  501    0  0.00000000000E+00  0.00000000000E+00  0.18236654960E+02  0.18236654960E+02  0.00000000000E+00 0. -1.
         -1   -1    0    0    0  501 -0.00000000000E+00 -0.00000000000E+00 -0.99134999977E+03  0.99134999977E+03  0.00000000000E+00 0.  1.
         25    2    1    2    0    0  0.66670816582E+02 -0.18928940076E+02 -0.67953453094E+03  0.69441703992E+03  0.12507815173E+03 0.  0.
          5    1    3    3  502    0  0.73295165260E+02 -0.69199982639E+01 -0.17789308670E+03  0.19257074109E+03  0.41800000000E+01 0. -1.
         -5    1    3    3    0  502 -0.66243486785E+01 -0.12008941812E+02 -0.50164144424E+03  0.50184629883E+03  0.41800000000E+01 0. -1.
        -11    1    1    2    0    0 -0.83709647249E+02  0.35201824047E+02 -0.22388230584E+03  0.24159834504E+03  0.00000000000E+00 0. -1.
         11    1    1    2    0    0  0.17038830667E+02 -0.16272883971E+02 -0.69696508030E+02  0.73571269765E+02  0.00000000000E+00 0.  1.
</event>
<event>
 7    1  0.2873461E-009  0.1848774E+03  0.7561462E-02  0.1163164E+00
          2   -1    0    0  501    0  0.00000000000E+00  0.00000000000E+00  0.74583433869E+03  0.74583433869E+03  0.00000000000E+00 0. -1.
         -2   -1    0    0    0  501 -0.00000000000E+00 -0.00000000000E+00 -0.76049317925E+02  0.76049317925E+02  0.00000000000E+00 0.  1.
         25    2    1    2    0    0  0.15253269955E+03 -0.90730721884E+02  0.54602908562E+03  0.58761847254E+03  0.12509763625E+03 0.  0.
          5    1    3    3  502    0  0.19359043527E+02 -0.37937571658E+02  0.30535007751E+02  0.52572721139E+02  0.41800000000E+01 0. -1.
         -5    1    3    3    0  502  0.13317365603E+03 -0.52793150226E+02  0.51549407787E+03  0.53504575140E+03  0.41800000000E+01 0. -1.
        -11    1    1    2    0    0 -0.10153156736E+03  0.84819594987E+02  0.44022046620E+02  0.13943085545E+03  0.00000000000E+00 0.  1.
         11    1    1    2    0    0 -0.51001132197E+02  0.59111268973E+01  0.79733888525E+02  0.94834328625E+02  0.00000000000E+00 0. -1.
</event>
<event>
 7    1  0.2873461E-009  0.1107704E+03  0.7561462E-02  0.1259150E+00
          1   -1    0    0  501    0  0.00000000000E+00  0.00000000000E+00  0.62036078284E+03  0.62036078284E+03  0.00000000000E+00 0. -1.
         -1   -1    0    0    0  501 -0.00000000000E+00 -0.00000000000E+00 -0.30497420266E+02  0.30497420266E+02  0.00000000000E+00 0.  1.
         25    2    1    2    0    0 -0.36598243295E+02 -0.15099138753E+02  0.14782709639E+03  0.19765694004E+03  0.12509196664E+03 0.  0.
          5    1    3    3  502    0 -0.13650269887E+02 -0.65443865359E+02  0.11528672328E+03  0.13333315546E+03  0.41800000000E+01 0. -1.
         -5    1    3    3    0  502 -0.22947973409E+02  0.50344726606E+02  0.32540373104E+02  0.64323784578E+02  0.41800000000E+01 0. -1.
        -11    1    1    2    0    0 -0.27068694128E+02 -0.12334055953E+02  0.16223994241E+03  0.16494436047E+03  0.00000000000E+00 0. -1.
         11    1    1    2    0    0  0.63666937423E+02  0.27433194706E+02  0.27979632377E+03  0.28825690259E+03  0.00000000000E+00 0.  1.
</event>
<event>
 7    1  0.2873461E-009  0.9013094E+02  0.7561462E-02  0.1302535E+00
          1   -1    0    0  501    0  0.00000000000E+00  0.00000000000E+00  0.30922334642E+03  0.30922334642E+03  0.00000000000E+00 0. -1.
         -1   -1    0    0    0  501 -0.00000000000E+00 -0.00000000000E+00 -0.49098268386E+02  0.49098268386E+02  0.00000000000E+00 0.  1.
         25    2    1    2    0    0 -0.12699133291E+02 -0.40201284467E+02  0.92395186771E+02  0.16111909510E+03  0.12508029824E+03 0.  0.
          5    1    3    3  502    0  0.32599117442E+02 -0.14288527559E+02 -0.17132493653E+02  0.39722276075E+02  0.41800000000E+01 0. -1.
         -5    1    3    3    0  502 -0.45298250733E+02 -0.25912756908E+02  0.10952768042E+03  0.12139681902E+03  0.41800000000E+01 0. -1.
        -11    1    1    2    0    0  0.47528551946E+02  0.28017308591E+02  0.52310688119E+02  0.76028553335E+02  0.00000000000E+00 0.  1.
         11    1    1    2    0    0 -0.34829418656E+02  0.12183975877E+02  0.11541920314E+03  0.12117396637E+03  0.00000000000E+00 0. -1.
</event>
<event>
 7    1  0.2873461E-009  0.2454995E+03  0.7561462E-02  0.1116183E+00
          2   -1    0    0  501    0  0.00000000000E+00  0.00000000000E+00  0.89857427263E+03  0.89857427263E+03  0.00000000000E+00 0.  1.
         -2   -1    0    0    0  501 -0.00000000000E+00 -0.00000000000E+00 -0.22726406085E+03  0.22726406085E+03  0.00000000000E+00 0. -1.
         25    2    1    2    0    0 -0.13755382273E+03 -0.18620356225E+03 -0.12510808404E+03  0.29136493221E+03  0.12509464531E+03 0.  0.
          5    1    3    3  502    0 -0.97912971099E+02 -0.18831939805E+03 -0.70439854774E+02  0.22367474407E+03  0.41800000000E+01 0. -1.
         -5    1    3    3    0  502 -0.39640851628E+02  0.21158358012E+01 -0.54668229270E+02  0.67690188140E+02  0.41800000000E+01 0. -1.
        -11    1    1    2    0    0  0.42968183355E+02  0.10740227043E+03  0.50571410418E+03  0.51877573925E+03  0.00000000000E+00 0.  1.
         11    1    1    2    0    0  0.94585639372E+02  0.78801291821E+02  0.29070419164E+03  0.31569766202E+03  0.00000000000E+00 0. -1.
</event>
<event>
 7    1  0.2873461E-009  0.9043219E+02  0.7561462E-02  0.1301808E+00
          1   -1    0    0  501    0  0.00000000000E+00  0.00000000000E+00  0.55923845424E+03  0.55923845424E+03  0.00000000000E+00 0. -1.
         -1   -1    0    0    0  501 -0.00000000000E+00 -0.00000000000E+00 -0.46016874529E+02  0.46016874529E+02  0.00000000000E+00 0.  1.
         25    2    1    2    0    0 -0.51941077554E+02  0.29166774041E+01  0.47718844505E+03  0.49604697530E+03  0.12508959614E+03 0.  0.
          5    1    3    3  502    0 -0.37146097039E+02 -0.35088416497E+02  0.43200416177E+03  0.43503574300E+03  0.41800000000E+01 0. -1.
         -5    1    3    3    0  502 -0.14794980516E+02  0.38005093901E+02  0.45184283282E+02  0.61011232298E+02  0.41800000000E+01 0. -1.
        -11    1    1    2    0    0 -0.18304698390E+02 -0.62110412554E+00 -0.13900522486E+02  0.22992874524E+02  0.00000000000E+00 0.  1.
         11    1    1    2    0    0  0.70245775944E+02 -0.22955732786E+01  0.49933657143E+02  0.86215478949E+02  0.00000000000E+00 0. -1.
</event>
<event>
 7    1  0.2873461E-009  0.7711110E+02  0.7561462E-02  0.1337456E+00
         -1   -1    0    0    0  501 -0.00000000000E+00  0.00000000000E+00  0.10754873216E+03  0.10754873216E+03  0.00000000000E+00 0.  1.
          1   -1    0    0  501    0  0.00000000000E+00 -0.00000000000E+00 -0.17994367387E+03  0.17994367387E+03  0.00000000000E+00 0. -1.
         25    2    1    2    0    0  0.42974688739E+02  0.14241858692E+02  0.36058968442E+02  0.13783040861E+03  0.12508923983E+03 0.  0.
          5    1    3    3  502    0 -0.72586458153E+01 -0.10348379376E+02  0.70678170264E+02  0.71921158546E+02  0.41800000000E+01 0.  1.
         -5    1    3    3    0  502  0.50233334554E+02  0.24590238069E+02 -0.34619201822E+02  0.65909250060E+02  0.41800000000E+01 0.  1.
        -11    1    1    2    0    0 -0.47803480318E+02  0.18846693237E+02 -0.10390307371E+03  0.11591470702E+03  0.00000000000E+00 0. -1.
         11    1    1    2    0    0  0.48287915791E+01 -0.33088551929E+02 -0.45508364432E+01  0.33747290398E+02  0.00000000000E+00 0.  1.
</event>
<event>
 7    1  0.2873461E-009  0.9757661E+02  0.7561462E-02  0.1285476E+00
         -2   -1    0    0    0  501 -0.00000000000E+00  0.00000000000E+00  0.49629216299E+02  0.49629216299E+02  0.00000000000E+00 0.  1.
          2   -1    0    0  501    0  0.00000000000E+00 -0.00000000000E+00 -0.27188392057E+03  0.27188392057E+03  0.00000000000E+00 0. -1.
         25    2    1    2    0    0  0.22744438388E+02  0.31054969161E+01 -0.17770386633E+03  0.21852708866E+03  0.12509384790E+03 0.  0.
          5    1    3    3  502    0 -0.34372872675E+02 -0.30717642371E+02 -0.12615150260E+03  0.13437537697E+03  0.41800000000E+01 0. -1.
         -5    1    3    3    0  502  0.57117311063E+02  0.33823139287E+02 -0.51552363732E+02  0.84151711692E+02  0.41800000000E+01 0. -1.
        -11    1    1    2    0    0 -0.51561395903E+02 -0.10462618222E+02 -0.40909094282E+01  0.52771009725E+02  0.00000000000E+00 0. -1.
         11    1    1    2    0    0  0.28816957515E+02  0.73571213058E+01 -0.40459928513E+02  0.50215038480E+02  0.00000000000E+00 0.  1.
</event>
<event>
 7    1  0.2873461E-009  0.1119736E+03  0.7561462E-02  0.1256958E+00
          1   -1    0    0  501    0  0.00000000000E+00  0.00000000000E+00  0.75736774920E+02  0.75736774920E+02  0.00000000000E+00 0. -1.
         -1   -1    0    0    0  501 -0.00000000000E+00 -0.00000000000E+00 -0.21557929530E+03  0.21557929530E+03  0.00000000000E+00 0.  1.
         25    2    1    2    0    0 -0.27411616635E+02  0.51858462876E+02 -0.41401554876E+02  0.14423055184E+03  0.12509063290E+03 0.  0.
          5    1    3    3  502    0 -0.73550930297E+02  0.38350196997E+02 -0.39542665600E+01  0.83147974006E+02  0.41800000000E+01 0. -1.
         -5    1    3    3    0  502  0.46139313662E+02  0.13508265879E+02 -0.37447288316E+02  0.61082577831E+02  0.41800000000E+01 0. -1.
        -11    1    1    2    0    0  0.40168454770E+02 -0.97776520386E+00 -0.83306741156E+02  0.92490398991E+02  0.00000000000E+00 0.  1.
         11    1    1    2    0    0 -0.12756838135E+02 -0.50880697672E+02 -0.15134224347E+02  0.54595119392E+02  0.00000000000E+00 0. -1.
</event>
<event>
 7    1  0.2873461E-009  0.9748920E+02  0.7561462E-02  0.1285666E+00
          2   -1    0    0  501    0  0.00000000000E+00  0.00000000000E+00  0.49274019436E+02  0.49274019436E+02  0.00000000000E+00 0. -1.
         -2   -1    0    0    0  501 -0.00000000000E+00 -0.00000000000E+00 -0.22087661760E+03  0.22087661760E+03  0.00000000000E+00 0.  1.
         25    2    1    2    0    0 -0.16199859205E+02  0.11183889142E+02 -0.13556277903E+03  0.18550625052E+03  0.12509111523E+03 0.  0.
          5    1    3    3  502    0  0.53197965384E+02  0.10255066147E+02 -0.40698588007E+02  0.67889891504E+02  0.41800000000E+01 0.  1.
         -5    1    3    3    0  502 -0.69397824589E+02  0.92882299491E+00 -0.94864191027E+02  0.11761635902E+03  0.41800000000E+01 0.  1.
        -11    1    1    2    0    0  0.25312809108E+02 -0.36378263448E+02 -0.65469967476E+01  0.44799325027E+02  0.00000000000E+00 0. -1.
         11    1    1    2    0    0 -0.91129499032E+01  0.25194374306E+02 -0.29492822380E+02  0.39845061483E+02  0.00000000000E+00 0.  1.
</event>
<event>
 7    1  0.2873461E-009  0.1291975E+03  0.7561462E-02  0.1228651E+00
          1   -1    0    0  501    0  0.00000000000E+00  0.00000000000E+00  0.33150941057E+03  0.33150941057E+03  0.00000000000E+00 0. -1.
         -1   -1    0    0    0  501 -0.00000000000E+00 -0.00000000000E+00 -0.51155912285E+02  0.51155912285E+02  0.00000000000E+00 0.  1.
         25    2    1    2    0    0  0.69601841937E+02  0.11217999011E+02  0.13397520235E+03  0.19638572956E+03  0.12509092704E+03 0.  0.
          5    1    3    3  502    0  0.69251141679E+02  0.61517787956E+02  0.93572615747E+02  0.13173255359E+03  0.41800000000E+01 0.  1.
         -5    1    3    3    0  502  0.35070025844E+00 -0.50299788945E+02  0.40402586601E+02  0.64653175967E+02  0.41800000000E+01 0.  1.
        -11    1    1    2    0    0 -0.78358498622E+02  0.21559361765E+02  0.10196591142E+03  0.13039136274E+03  0.00000000000E+00 0.  1.
         11    1    1    2    0    0  0.87566566851E+01 -0.32777360776E+02  0.44412384525E+02  0.55888230559E+02  0.00000000000E+00 0. -1.
</event>
<event>
 7    1  0.2873461E-009  0.2954032E+03  0.7561462E-02  0.1087561E+00
          1   -1    0    0  501    0  0.00000000000E+00  0.00000000000E+00  0.19295504778E+04  0.19295504778E+04  0.00000000000E+00 0. -1.
         -1   -1    0    0    0  501 -0.00000000000E+00 -0.00000000000E+00 -0.48986844517E+02  0.48986844517E+02  0.00000000000E+00 0.  1.
         25    2    1    2    0    0  0.10670313952E+03 -0.26119238373E+03  0.11348827345E+04  0.11761009262E+04  0.12509015212E+03 0.  0.
          5    1    3    3  502    0  0.11761739216E+02 -0.18653193731E+03  0.64651349533E+03  0.67300050088E+03  0.41800000000E+01 0.  1.
         -5    1    3    3    0  502  0.94941400307E+02 -0.74660446426E+02  0.48836923916E+03  0.50310042527E+03  0.41800000000E+01 0.  1.
        -11    1    1    2    0    0 -0.60125913316E+02  0.11814452486E+03  0.23225606997E+03  0.26742501051E+03  0.00000000000E+00 0.  1.
         11    1    1    2    0    0 -0.46577226208E+02  0.14304785888E+03  0.51342482885E+03  0.53501138568E+03  0.00000000000E+00 0. -1.
</event>
<event>
 7    1  0.2873461E-009  0.2113838E+03  0.7561462E-02  0.1140475E+00
         -2   -1    0    0    0  501 -0.00000000000E+00  0.00000000000E+00  0.38746042919E+02  0.38746042919E+02  0.00000000000E+00 0.  1.
          2   -1    0    0  501    0  0.00000000000E+00 -0.00000000000E+00 -0.15851866173E+04  0.15851866173E+04  0.00000000000E+00 0. -1.
         25    2    1    2    0    0  0.33815981647E+02 -0.19195870915E+03 -0.11475987942E+04  0.11707347385E+04  0.12508064955E+03 0.  0.
          5    1    3    3  502    0 -0.21769876006E+02 -0.85423527932E+02 -0.25002779034E+03  0.26514613889E+03  0.41800000000E+01 0.  1.
         -5    1    3    3    0  502  0.55585857653E+02 -0.10653518122E+03 -0.89757100384E+03  0.90558859961E+03  0.41800000000E+01 0.  1.
        -11    1    1    2    0    0 -0.64367497968E+02  0.12201284934E+03 -0.27642381700E+03  0.30893435679E+03  0.00000000000E+00 0. -1.
         11    1    1    2    0    0  0.30551516321E+02  0.69945859811E+02 -0.12241796322E+03  0.14426356495E+03  0.00000000000E+00 0.  1.
</event>
<event>
 7    1  0.2873461E-009  0.6134075E+02  0.7561462E-02  0.1392290E+00
          2   -1    0    0  501    0  0.00000000000E+00  0.00000000000E+00  0.56260464166E+03  0.56260464166E+03  0.00000000000E+00 0. -1.
         -2   -1    0    0    0  501 -0.00000000000E+00 -0.00000000000E+00 -0.25592509194E+02  0.25592509194E+02  0.00000000000E+00 0.  1.
         25    2    1    2    0    0 -0.18678717423E+02  0.17531260272E+02  0.19220261861E+03  0.23074954374E+03  0.12508903135E+03 0.  0.
          5    1    3    3  502    0 -0.13753978484E+02 -0.41080933815E+00 -0.16093285235E+02  0.21582560509E+02  0.41800000000E+01 0.  1.
         -5    1    3    3    0  502 -0.49247389387E+01  0.17942069610E+02  0.20829590385E+03  0.20916698323E+03  0.41800000000E+01 0.  1.
        -11    1    1    2    0    0  0.35060105431E+02  0.25391200687E+02  0.22510603484E+03  0.22923056295E+03  0.00000000000E+00 0. -1.
         11    1    1    2    0    0 -0.16381388008E+02 -0.42922460959E+02  0.11970347901E+03  0.12821704416E+03  0.00000000000E+00 0.  1.
</event>
<event>
 7    1  0.2873461E-009  0.1332309E+03  0.7561462E-02  0.1222739E+00
          1   -1    0    0  501    0  0.00000000000E+00  0.00000000000E+00  0.87270030504E+03  0.87270030504E+03  0.00000000000E+00 0. -1.
         -1   -1    0    0    0  501 -0.00000000000E+00 -0.00000000000E+00 -0.26257936546E+02  0.26257936546E+02  0.00000000000E+00 0.  1.
         25    2    1    2    0    0 -0.53797015874E+02  0.91475747289E+02  0.48566215817E+03  0.51261784178E+03  0.12508952223E+03 0.  0.
          5    1    3    3  502    0  0.28515459939E+02 -0.45139951148E+01  0.41080058929E+02  0.50384037641E+02  0.41800000000E+01 0. -1.
         -5    1    3    3    0  502 -0.82312475813E+02  0.95989742404E+02  0.44458209925E+03  0.46223380414E+03  0.41800000000E+01 0. -1.
        -11    1    1    2    0    0  0.25900833906E+02 -0.16338754219E+02  0.20748786169E+02  0.36990812562E+02  0.00000000000E+00 0.  1.
         11    1    1    2    0    0  0.27896181968E+02 -0.75136993069E+02  0.34003142415E+03  0.34934958724E+03  0.00000000000E+00 0. -1.
</event>
<event>
 7    1  0.2873461E-009  0.1367369E+03  0.7561462E-02  0.1217788E+00
          2   -1    0    0  501    0  0.00000000000E+00  0.00000000000E+00  0.58280161344E+02  0.58280161344E+02  0.00000000000E+00 0. -1.
         -2   -1    0    0    0  501 -0.00000000000E+00 -0.00000000000E+00 -0.43295134728E+03  0.43295134728E+03  0.00000000000E+00 0.  1.
         25    2    1    2    0    0 -0.88549697199E+02  0.68663216473E+02 -0.24965593540E+03  0.30088879108E+03  0.12510112847E+03 0.  0.
          5    1    3    3  502    0 -0.98588496367E+01 -0.26045607212E+02 -0.11489729698E+03  0.11829806348E+03  0.41800000000E+01 0. -1.
         -5    1    3    3    0  502 -0.78690847562E+02  0.94708823686E+02 -0.13475863842E+03  0.18259072759E+03  0.41800000000E+01 0. -1.
        -11    1    1    2    0    0  0.71065199695E+02 -0.75176594868E+02 -0.53561344399E+02  0.11649292098E+03  0.00000000000E+00 0. -1.
         11    1    1    2    0    0  0.17484497503E+02  0.65133783945E+01 -0.71453906139E+02  0.73849796571E+02  0.00000000000E+00 0.  1.
</event>
<event>
 7    1  0.2873461E-009  0.1886254E+03  0.7561462E-02  0.1159707E+00
          1   -1    0    0  501    0  0.00000000000E+00  0.00000000000E+00  0.62633092439E+02  0.62633092439E+02  0.00000000000E+00 0. -1.
         -1   -1    0    0    0  501 -0.00000000000E+00 -0.00000000000E+00 -0.74705060985E+03  0.74705060985E+03  0.00000000000E+00 0.  1.
         25    2    1    2    0    0  0.98189004102E+00  0.17778337537E+03 -0.25003963746E+03  0.33132311237E+03  0.12508913552E+03 0.  0.
          5    1    3    3  502    0 -0.41332328947E+02  0.84435055544E+02 -0.19111744920E+03  0.21302814793E+03  0.41800000000E+01 0. -1.
         -5    1    3    3    0  502  0.42314218988E+02  0.93348319830E+02 -0.58922188261E+02  0.11829496445E+03  0.41800000000E+01 0. -1.
        -11    1    1    2    0    0 -0.15799382487E+02 -0.11409251840E+03 -0.36622207084E+03  0.38390796867E+03  0.00000000000E+00 0.  1.
         11    1    1    2    0    0  0.14817492446E+02 -0.63690856969E+02 -0.68155809113E+02  0.94452621243E+02  0.00000000000E+00 0. -1.
</event>
<event>
 7    1  0.2873461E-009  0.1161591E+03  0.7561462E-02  0.1249571E+00
         -2   -1    0    0    0  501 -0.00000000000E+00  0.00000000000E+00  0.19865706904E+03  0.19865706904E+03  0.00000000000E+00 0.  1.
          2   -1    0    0  501    0  0.00000000000E+00 -0.00000000000E+00 -0.76956610432E+02  0.76956610432E+02  0.00000000000E+00 0. -1.
         25    2    1    2    0    0  0.27378434858E+02 -0.49519409045E+02  0.55087044385E+02  0.14796211452E+03  0.12512575397E+03 0.  0.
          5    1    3    3  502    0  0.40957252577E+02 -0.84402302314E+02  0.19023176258E+02  0.95815441394E+02  0.41800000000E+01 0.  1.
         -5    1    3    3    0  502 -0.13578817718E+02  0.34882893269E+02  0.36063868128E+02  0.52146673123E+02  0.41800000000E+01 0.  1.
        -11    1    1    2    0    0 -0.57430758097E+02  0.36084641165E+02  0.20239146725E+02  0.70781469071E+02  0.00000000000E+00 0. -1.
         11    1    1    2    0    0  0.30052323239E+02  0.13434767879E+02  0.46374267498E+02  0.56870095885E+02  0.00000000000E+00 0.  1.
</event>
<event>
 7    1  0.2873461E-009  0.3163160E+03  0.7561462E-02  0.1077357E+00
         -2   -1    0    0    0  501 -0.00000000000E+00  0.00000000000E+00  0.30374817679E+03  0.30374817679E+03  0.00000000000E+00 0.  1.
          2   -1    0    0  501    0  0.00000000000E+00 -0.00000000000E+00 -0.36676435444E+03  0.36676435444E+03  0.00000000000E+00 0. -1.
         25    2    1    2    0    0  0.95729042827E+02 -0.28836571413E+03 -0.11669435084E+03  0.34869018754E+03  0.12509372743E+03 0.  0.
          5    1    3    3  502    0  0.48101141205E+02 -0.27431250682E+03 -0.94339673404E+02  0.29407229989E+03  0.41800000000E+01 0. -1.
         -5    1    3    3    0  502  0.47627901623E+02 -0.14053207313E+02 -0.22354677437E+02  0.54617887656E+02  0.41800000000E+01 0. -1.
        -11    1    1    2    0    0 -0.13529580426E+02  0.61510279065E+02 -0.25394672805E+02  0.67907682806E+02  0.00000000000E+00 0. -1.
         11    1    1    2    0    0 -0.82199462402E+02  0.22685543507E+03  0.79072845994E+02  0.25391466088E+03  0.00000000000E+00 0.  1.
</event>
<event>
 7    1  0.2873461E-009  0.9534914E+02  0.7561462E-02  0.1290392E+00
          2   -1    0    0  501    0  0.00000000000E+00  0.00000000000E+00  0.51779772899E+02  0.51779772899E+02  0.00000000000E+00 0. -1.
         -2   -1    0    0    0  501 -0.00000000000E+00 -0.00000000000E+00 -0.27780230135E+03  0.27780230135E+03  0.00000000000E+00 0.  1.
         25    2    1    2    0    0  0.13044949009E+02 -0.42747761011E+02 -0.16345219873E+03  0.21062299699E+03  0.12509150182E+03 0.  0.
          5    1    3    3  502    0 -0.25343613149E+02  0.19995422294E+02 -0.13675362495E+01  0.32580027556E+02  0.41800000000E+01 0.  1.
         -5    1    3    3    0  502  0.38388562157E+02 -0.62743183305E+02 -0.16208466248E+03  0.17804296944E+03  0.41800000000E+01 0.  1.
        -11    1    1    2    0    0 -0.34216973243E+02 -0.27124399485E+01 -0.59532128068E+02  0.68718504500E+02  0.00000000000E+00 0.  1.
         11    1    1    2    0    0  0.21172024235E+02  0.45460200959E+02 -0.30382016569E+01  0.50240572755E+02  0.00000000000E+00 0. -1.
</event>
<event>
 7    1  0.2873461E-009  0.1203711E+03  0.7561462E-02  0.1242486E+00
          2   -1    0    0  501    0  0.00000000000E+00  0.00000000000E+00  0.18244960612E+03  0.18244960612E+03  0.00000000000E+00 0.  1.
         -2   -1    0    0    0  501 -0.00000000000E+00 -0.00000000000E+00 -0.10471558402E+03  0.10471558402E+03  0.00000000000E+00 0. -1.
         25    2    1    2    0    0 -0.41391872380E+02 -0.73682133416E+02  0.50332076673E+02  0.15913466713E+03  0.12509268746E+03 0.  0.
          5    1    3    3  502    0 -0.65829444990E+02 -0.23817671830E+02  0.70942459119E+02  0.99755211518E+02  0.41800000000E+01 0.  1.
         -5    1    3    3    0  502  0.24437572610E+02 -0.49864461586E+02 -0.20610382446E+02  0.59379455613E+02  0.41800000000E+01 0.  1.
        -11    1    1    2    0    0 -0.21275135793E+02  0.48172469530E+01  0.27268637458E+02  0.34920135453E+02  0.00000000000E+00 0.  1.
         11    1    1    2    0    0  0.62667008173E+02  0.68864886463E+02  0.13330796796E+00  0.93110387562E+02  0.00000000000E+00 0. -1.
</event>
<event>
 7    1  0.2873461E-009  0.8916233E+02  0.7561462E-02  0.1304893E+00
         -2   -1    0    0    0  501 -0.00000000000E+00  0.00000000000E+00  0.89634344741E+02  0.89634344741E+02  0.00000000000E+00 0.  1.
          2   -1    0    0  501    0  0.00000000000E+00 -0.00000000000E+00 -0.17660907501E+03  0.17660907501E+03  0.00000000000E+00 0. -1.
         25    2    1    2    0    0  0.28947614472E+02 -0.99548336021E+01  0.11267635377E+02  0.12924484547E+03  0.12506081472E+03 0.  0.
          5    1    3    3  502    0  0.51911918743E+02  0.14826553228E+02 -0.40267586718E+02  0.67480552223E+02  0.41800000000E+01 0.  1.
         -5    1    3    3    0  502 -0.22964304270E+02 -0.24781386830E+02  0.51535222095E+02  0.61764293246E+02  0.41800000000E+01 0.  1.
        -11    1    1    2    0    0  0.71036305422E+01 -0.33170557139E+02 -0.60283416972E+02  0.69172521926E+02  0.00000000000E+00 0.  1.
         11    1    1    2    0    0 -0.36051245015E+02  0.43125390741E+02 -0.37958948672E+02  0.67826052354E+02  0.00000000000E+00 0. -1.
</event>
<event>
 7    1  0.2873461E-009  0.2005947E+03  0.7561462E-02  0.1149238E+00
          4   -1    0    0  501    0  0.00000000000E+00  0.00000000000E+00  0.14507416259E+03  0.14507416259E+03  0.00000000000E+00 0. -1.
         -4   -1    0    0    0  501 -0.00000000000E+00 -0.00000000000E+00 -0.33208306665E+03  0.33208306665E+03  0.00000000000E+00 0.  1.
         25    2    1    2    0    0  0.13608440299E+03 -0.12954690160E+03 -0.13219529176E+03  0.26158045135E+03  0.12508945965E+03 0.  0.
          5    1    3    3  502    0  0.50141576267E+02 -0.58444289314E+01 -0.92970220444E+02  0.10587383676E+03  0.41800000000E+01 0. -1.
         -5    1    3    3    0  502  0.85942826727E+02 -0.12370247267E+03 -0.39225071314E+02  0.15570661460E+03  0.41800000000E+01 0. -1.
        -11    1    1    2    0    0 -0.66448107296E+02  0.18846230855E+02 -0.48964479898E+02  0.84664347114E+02  0.00000000000E+00 0.  1.
         11    1    1    2    0    0 -0.69636295699E+02  0.11070067074E+03 -0.58491324021E+01  0.13091243078E+03  0.00000000000E+00 0. -1.
</event>
<event>
 7    1  0.2873461E-009  0.1183723E+03  0.7561462E-02  0.1245807E+00
          3   -1    0    0  501    0  0.00000000000E+00  0.00000000000E+00  0.15100574671E+03  0.15100574671E+03  0.00000000000E+00 0. -1.
         -3   -1    0    0    0  501 -0.00000000000E+00 -0.00000000000E+00 -0.10508357840E+03  0.10508357840E+03  0.00000000000E+00 0.  1.
         25    2    1    2    0    0  0.25762616302E+02  0.57330056430E+02  0.46434789791E+02  0.14749035735E+03  0.12508704185E+03 0.  0.
          5    1    3    3  502    0 -0.38807913482E+02  0.62616697815E+02  0.14733841980E+02  0.75242697278E+02  0.41800000000E+01 0.  1.
         -5    1    3    3    0  502  0.64570529784E+02 -0.52866413853E+01  0.31700947810E+02  0.72247660071E+02  0.41800000000E+01 0.  1.
        -11    1    1    2    0    0 -0.52626978481E+02 -0.39337638276E+02  0.21899596080E+02  0.69257786260E+02  0.00000000000E+00 0. -1.
         11    1    1    2    0    0  0.26864362180E+02 -0.17992418154E+02 -0.22412217561E+02  0.39341181507E+02  0.00000000000E+00 0.  1.
</event>
<event>
 7    1  0.2873461E-009  0.1170461E+03  0.7561462E-02  0.1248051E+00
          2   -1    0    0  501    0  0.00000000000E+00  0.00000000000E+00  0.55480752642E+03  0.55480752642E+03  0.00000000000E+00 0. -1.
         -2   -1    0    0    0  501 -0.00000000000E+00 -0.00000000000E+00 -0.28612797250E+02  0.28612797250E+02  0.00000000000E+00 0.  1.
         25    2    1    2    0    0 -0.17423106719E+02  0.48081378928E+02  0.20059855128E+03  0.24187536889E+03  0.12509409120E+03 0.  0.
          5    1    3    3  502    0 -0.35538498563E+02 -0.34384299177E+02  0.88643021825E+02  0.10158898872E+03  0.41800000000E+01 0. -1.
         -5    1    3    3    0  502  0.18115391844E+02  0.82465678105E+02  0.11195552945E+03  0.14028638017E+03  0.41800000000E+01 0. -1.
        -11    1    1    2    0    0  0.76601020092E+01  0.25027208777E+02  0.52480400358E+02  0.58644955143E+02  0.00000000000E+00 0.  1.
         11    1    1    2    0    0  0.97630047103E+01 -0.73108587706E+02  0.27311577753E+03  0.28289999963E+03  0.00000000000E+00 0. -1.
</event>
<event>
 7    1  0.2873461E-009  0.9983717E+02  0.7561462E-02  0.1280639E+00
          1   -1    0    0  501    0  0.00000000000E+00  0.00000000000E+00  0.24973431323E+03  0.24973431323E+03  0.00000000000E+00 0. -1.
         -1   -1    0    0    0  501 -0.00000000000E+00 -0.00000000000E+00 -0.48479817242E+02  0.48479817242E+02  0.00000000000E+00 0.  1.
         25    2    1    2    0    0  0.30199850890E+02 -0.59513662592E+01  0.12523782939E+03  0.17966216820E+03  0.12508609443E+03 0.  0.
          5    1    3    3  502    0 -0.14469740750E+02 -0.53643788985E+02  0.27802483619E+02  0.62269414558E+02  0.41800000000E+01 0.  1.
         -5    1    3    3    0  502  0.44669591640E+02  0.47692422726E+02  0.97435345770E+02  0.11739275364E+03  0.41800000000E+01 0.  1.
        -11    1    1    2    0    0  0.28333604661E+01  0.34622055154E+02  0.49294109069E+01  0.35085805199E+02  0.00000000000E+00 0.  1.
         11    1    1    2    0    0 -0.33033211356E+02 -0.28670688894E+02  0.71087255690E+02  0.83466157068E+02  0.00000000000E+00 0. -1.
</event>
<event>
 7    1  0.2873461E-009  0.1020441E+03  0.7561462E-02  0.1276055E+00
         -1   -1    0    0    0  501 -0.00000000000E+00  0.00000000000E+00  0.70872263749E+02  0.70872263749E+02  0.00000000000E+00 0.  1.
          1   -1    0    0  501    0  0.00000000000E+00 -0.00000000000E+00 -0.17519524359E+03  0.17519524359E+03  0.00000000000E+00 0. -1.
         25    2    1    2    0    0  0.66358565652E+01  0.12335447821E+02 -0.34783510823E+02  0.13059510765E+03  0.12509592979E+03 0.  0.
          5    1    3    3  502    0  0.33611874001E+02 -0.46721470798E+02 -0.30800658493E+02  0.65412589545E+02  0.41800000000E+01 0.  1.
         -5    1    3    3    0  502 -0.26976017436E+02  0.59056918619E+02 -0.39828523302E+01  0.65182518102E+02  0.41800000000E+01 0.  1.
        -11    1    1    2    0    0 -0.36855189838E+02 -0.28921686364E+02 -0.65834579900E+02  0.80801985562E+02  0.00000000000E+00 0. -1.
         11    1    1    2    0    0  0.30219333272E+02  0.16586238543E+02 -0.37048891147E+01  0.34670414128E+02  0.00000000000E+00 0.  1.
</event>
<event>
 7    1  0.2873461E-009  0.9711084E+02  0.7561462E-02  0.1286491E+00
          2   -1    0    0  501    0  0.00000000000E+00  0.00000000000E+00  0.47448204071E+03  0.47448204071E+03  0.00000000000E+00 0. -1.
         -2   -1    0    0    0  501 -0.00000000000E+00 -0.00000000000E+00 -0.28630803770E+02  0.28630803770E+02  0.00000000000E+00 0.  1.
         25    2    1    2    0    0  0.37494422204E+02 -0.17932260238E+02  0.33272120919E+03  0.35787965768E+03  0.12508816363E+03 0.  0.
          5    1    3    3  502    0  0.88431185091E+01 -0.59481760745E+02  0.27300315630E+03  0.27957910572E+03  0.41800000000E+01 0.  1.
         -5    1    3    3    0  502  0.28651303694E+02  0.41549500508E+02  0.59718052893E+02  0.78300551960E+02  0.41800000000E+01 0.  1.
        -11    1    1    2    0    0  0.18393799696E+02  0.20256190781E+02  0.68208245772E+02  0.73491563621E+02  0.00000000000E+00 0.  1.
         11    1    1    2    0    0 -0.55888221900E+02 -0.23239305430E+01  0.44921781975E+02  0.71741623177E+02  0.00000000000E+00 0. -1.
</event>
<event>
 7    1  0.2873461E-009  0.9108238E+02  0.7561462E-02  0.1300252E+00
          2   -1    0    0  501    0  0.00000000000E+00  0.00000000000E+00  0.76282924365E+03  0.76282924365E+03  0.00000000000E+00 0. -1.
         -2   -1    0    0    0  501 -0.00000000000E+00 -0.00000000000E+00 -0.17888386473E+02  0.17888386473E+02  0.00000000000E+00 0.  1.
         25    2    1    2    0    0 -0.11295790830E+02 -0.29029158068E+02  0.52738323007E+03  0.54290969897E+03  0.12509029924E+03 0.  0.
          5    1    3    3  502    0 -0.44516379650E+02 -0.30798294788E+02  0.48874721412E+03  0.49175355080E+03  0.41800000000E+01 0. -1.
         -5    1    3    3    0  502  0.33220588820E+02  0.17691367206E+01  0.38636015954E+02  0.51156148165E+02  0.41800000000E+01 0. -1.
        -11    1    1    2    0    0  0.50362755123E+02  0.20377974804E+02  0.10278269810E+03  0.11625812655E+03  0.00000000000E+00 0.  1.
         11    1    1    2    0    0 -0.39066964293E+02  0.86511832641E+01  0.11477492901E+03  0.12154980461E+03  0.00000000000E+00 0. -1.
</event>
<event>
 7    1  0.2873461E-009  0.2548514E+03  0.7561462E-02  0.1110277E+00
         -3   -1    0    0    0  501 -0.00000000000E+00  0.00000000000E+00  0.21527213505E+03  0.21527213505E+03  0.00000000000E+00 0.  1.
          3   -1    0    0  501    0  0.00000000000E+00 -0.00000000000E+00 -0.34419945427E+03  0.34419945427E+03  0.00000000000E+00 0. -1.
         25    2    1    2    0    0 -0.23393830783E+03  0.28735690575E+02 -0.14984179408E+03  0.30603133006E+03  0.12509892062E+03 0.  0.
          5    1    3    3  502    0 -0.15091137064E+03  0.78049531925E+02 -0.10157244907E+03  0.19799092411E+03  0.41800000000E+01 0. -1.
         -5    1    3    3    0  502 -0.83026937197E+02 -0.49313841351E+02 -0.48269345013E+02  0.10804040595E+03  0.41800000000E+01 0. -1.
        -11    1    1    2    0    0  0.14146491415E+03  0.12147999062E+02 -0.21856480824E+02  0.14365793250E+03  0.00000000000E+00 0.  1.
         11    1    1    2    0    0  0.92473393685E+02 -0.40883689637E+02  0.42770955687E+02  0.10978232676E+03  0.00000000000E+00 0. -1.
</event>
<event>
 7    1  0.2873461E-009  0.1411253E+03  0.7561462E-02  0.1211823E+00
         -2   -1    0    0    0  501 -0.00000000000E+00  0.00000000000E+00  0.39598310228E+02  0.39598310228E+02  0.00000000000E+00 0.  1.
          2   -1    0    0  501    0  0.00000000000E+00 -0.00000000000E+00 -0.94868449561E+03  0.94868449561E+03  0.00000000000E+00 0. -1.
         25    2    1    2    0    0 -0.11080604215E+03  0.33716187081E-01 -0.18149305841E+03  0.24670779283E+03  0.12508806769E+03 0.  0.
          5    1    3    3  502    0 -0.90342480718E+02  0.38332285840E+02 -0.54288942871E+02  0.11223141128E+03  0.41800000000E+01 0.  1.
         -5    1    3    3    0  502 -0.20463561428E+02 -0.38298569653E+02 -0.12720411554E+03  0.13447638155E+03  0.41800000000E+01 0.  1.
        -11    1    1    2    0    0  0.27479325624E+00 -0.26696790717E+02 -0.88247758413E+02  0.92197944721E+02  0.00000000000E+00 0.  1.
         11    1    1    2    0    0  0.11053124889E+03  0.26663074530E+02 -0.63934536855E+03  0.64937706829E+03  0.00000000000E+00 0. -1.
</event>
<event>
 7    1  0.2873461E-009  0.8401673E+02  0.7561462E-02  0.1318024E+00
          2   -1    0    0  501    0  0.00000000000E+00  0.00000000000E+00  0.38908249951E+03  0.38908249951E+03  0.00000000000E+00 0. -1.
         -2   -1    0    0    0  501 -0.00000000000E+00 -0.00000000000E+00 -0.39837586341E+02  0.39837586341E+02  0.00000000000E+00 0.  1.
         25    2    1    2    0    0 -0.26891821950E+01 -0.49498156983E+02  0.13153875553E+03  0.18816682861E+03  0.12508801676E+03 0.  0.
          5    1    3    3  502    0  0.13159675705E+02 -0.27797765043E+00  0.13544044222E+03  0.13614271969E+03  0.41800000000E+01 0. -1.
         -5    1    3    3    0  502 -0.15848857900E+02 -0.49220179332E+02 -0.39016866814E+01  0.52024108923E+02  0.41800000000E+01 0. -1.
        -11    1    1    2    0    0 -0.22330199683E+02  0.67776646798E+02  0.14111836412E+03  0.15813508264E+03  0.00000000000E+00 0. -1.
         11    1    1    2    0    0  0.25019381878E+02 -0.18278489815E+02  0.76587793516E+02  0.82618174605E+02  0.00000000000E+00 0.  1.
</event>
<event>
 7    1  0.2873461E-009  0.1386405E+03  0.7561462E-02  0.1215170E+00
         -2   -1    0    0    0  501 -0.00000000000E+00  0.00000000000E+00  0.67289748352E+02  0.67289748352E+02  0.00000000000E+00 0. -1.
          2   -1    0    0  501    0  0.00000000000E+00 -0.00000000000E+00 -0.44305494481E+03  0.44305494481E+03  0.00000000000E+00 0.  1.
         25    2    1    2    0    0 -0.10319289407E+03  0.28318134878E+02 -0.32385911548E+03  0.36329498744E+03  0.12509129095E+03 0.  0.
          5    1    3    3  502    0 -0.61146463397E+02 -0.41854578698E+02 -0.21226046878E+03  0.22486145679E+03  0.41800000000E+01 0. -1.
         -5    1    3    3    0  502 -0.42046430669E+02  0.70172713576E+02 -0.11159864670E+03  0.13843353065E+03  0.41800000000E+01 0. -1.
        -11    1    1    2    0    0  0.50446296838E+02 -0.43124302359E+02 -0.62598164657E+02  0.91230831067E+02  0.00000000000E+00 0.  1.
         11    1    1    2    0    0  0.52746597228E+02  0.14806167481E+02  0.10692083677E+02  0.55818874657E+02  0.00000000000E+00 0. -1.
</event>
<event>
 7    1  0.2873461E-009  0.1039159E+03  0.7561462E-02  0.1272270E+00
          2   -1    0    0  501    0  0.00000000000E+00  0.00000000000E+00  0.90119203268E+03  0.90119203268E+03  0.00000000000E+00 0.  1.
         -2   -1    0    0    0  501 -0.00000000000E+00 -0.00000000000E+00 -0.14493420347E+02  0.14493420347E+02  0.00000000000E+00 0. -1.
         25    2    1    2    0    0 -0.10076143340E+02 -0.13587391729E+02  0.58047170021E+03  0.59403725339E+03  0.12508684101E+03 0.  0.
          5    1    3    3  502    0 -0.49586979004E+02 -0.46423415968E+02  0.42036240573E+03  0.42583568027E+03  0.41800000000E+01 0. -1.
         -5    1    3    3    0  502  0.39510835664E+02  0.32836024240E+02  0.16010929447E+03  0.16820157312E+03  0.41800000000E+01 0. -1.
        -11    1    1    2    0    0  0.19558045331E+02 -0.34262943764E+02  0.21097340822E+03  0.21463048579E+03  0.00000000000E+00 0.  1.
         11    1    1    2    0    0 -0.94819019916E+01  0.47850335492E+02  0.95253503909E+02  0.10701771386E+03  0.00000000000E+00 0. -1.
</event>
<event>
 7    1  0.2873461E-009  0.1130242E+03  0.7561462E-02  0.1255070E+00
          1   -1    0    0  501    0  0.00000000000E+00  0.00000000000E+00  0.28579180623E+02  0.28579180623E+02  0.00000000000E+00 0. -1.
         -1   -1    0    0    0  501 -0.00000000000E+00 -0.00000000000E+00 -0.90576002129E+03  0.90576002129E+03  0.00000000000E+00 0.  1.
         25    2    1    2    0    0 -0.17817707994E+02 -0.79352334969E+02 -0.71997783503E+03  0.73527530246E+03  0.12508966261E+03 0.  0.
          5    1    3    3  502    0 -0.22074733586E+02  0.55578435914E+01 -0.21370934841E+02  0.31501948261E+02  0.41800000000E+01 0. -1.
         -5    1    3    3    0  502  0.42570255920E+01 -0.84910178560E+02 -0.69860690019E+03  0.70377335420E+03  0.41800000000E+01 0. -1.
        -11    1    1    2    0    0  0.37730300899E+02  0.18613416390E+01 -0.77051527657E+02  0.85813624285E+02  0.00000000000E+00 0.  1.
         11    1    1    2    0    0 -0.19912592905E+02  0.77490993330E+02 -0.80151477985E+02  0.11325027517E+03  0.00000000000E+00 0. -1.
</event>
<event>
 7    1  0.2873461E-009  0.9086620E+02  0.7561462E-02  0.1300768E+00
          2   -1    0    0  501    0  0.00000000000E+00  0.00000000000E+00  0.15518491568E+03  0.15518491568E+03  0.00000000000E+00 0. -1.
         -2   -1    0    0    0  501 -0.00000000000E+00 -0.00000000000E+00 -0.80602425821E+02  0.80602425821E+02  0.00000000000E+00 0.  1.
         25    2    1    2    0    0 -0.21770876616E+02 -0.25988118301E+02  0.49486887132E+02  0.13872953276E+03  0.12509027900E+03 0.  0.
          5    1    3    3  502    0 -0.47030578491E+02  0.65963977679E+01 -0.24745095010E+02  0.53713870683E+02  0.41800000000E+01 0. -1.
         -5    1    3    3    0  502  0.25259701875E+02 -0.32584516069E+02  0.74231982142E+02  0.85015662081E+02  0.41800000000E+01 0. -1.
        -11    1    1    2    0    0  0.55149188769E+02  0.20252755524E+02  0.85651610098E+01  0.59371450305E+02  0.00000000000E+00 0.  1.
         11    1    1    2    0    0 -0.33378312153E+02  0.57353627777E+01  0.16530441713E+02  0.37686358429E+02  0.00000000000E+00 0. -1.
</event>
<event>
 7    1  0.2873461E-009  0.2587174E+03  0.7561462E-02  0.1107916E+00
         -1   -1    0    0    0  501 -0.00000000000E+00  0.00000000000E+00  0.10234144137E+03  0.10234144137E+03  0.00000000000E+00 0.  1.
          1   -1    0    0  501    0  0.00000000000E+00 -0.00000000000E+00 -0.11876139036E+04  0.11876139036E+04  0.00000000000E+00 0. -1.
         25    2    1    2    0    0  0.33521809428E+02  0.25506526678E+03 -0.93558160086E+03  0.97833685882E+03  0.12509226772E+03 0.  0.
          5    1    3    3  502    0  0.18740909492E+02  0.18233464034E+03 -0.43196276589E+03  0.46926159684E+03  0.41800000000E+01 0. -1.
         -5    1    3    3    0  502  0.14780899935E+02  0.72730626437E+02 -0.50361883497E+03  0.50907526198E+03  0.41800000000E+01 0. -1.
        -11    1    1    2    0    0 -0.35233186139E+02 -0.13028743225E+03 -0.29070909548E+02  0.13806270384E+03  0.00000000000E+00 0.  1.
         11    1    1    2    0    0  0.17113767115E+01 -0.12477783452E+03 -0.12061995186E+03  0.17355578234E+03  0.00000000000E+00 0. -1.
</event>
<event>
 7    1  0.2873461E-009  0.1213217E+03  0.7561462E-02  0.1240932E+00
          2   -1    0    0  501    0  0.00000000000E+00  0.00000000000E+00  0.10269746896E+02  0.10269746896E+02  0.00000000000E+00 0. -1.
         -2   -1    0    0    0  501 -0.00000000000E+00 -0.00000000000E+00 -0.17411757420E+04  0.17411757420E+04  0.00000000000E+00 0.  1.
         25    2    1    2    0    0 -0.12782400535E+02 -0.62012753459E+02 -0.12599475846E+04  0.12677234534E+04  0.12508343983E+03 0.  0.
          5    1    3    3  502    0  0.43064551200E+02 -0.63007520197E+02 -0.51103798182E+03  0.51672216368E+03  0.41800000000E+01 0.  1.
         -5    1    3    3    0  502 -0.55846951734E+02  0.99476673804E+00 -0.74890960283E+03  0.75100128974E+03  0.41800000000E+01 0.  1.
        -11    1    1    2    0    0  0.49891867403E+02  0.51330402722E+02 -0.31914696580E+03  0.32707612945E+03  0.00000000000E+00 0. -1.
         11    1    1    2    0    0 -0.37109466869E+02  0.10682350736E+02 -0.15181144471E+03  0.15664590608E+03  0.00000000000E+00 0.  1.
</event>
<event>
 7    1  0.2873461E-009  0.6210511E+02  0.7561462E-02  0.1389204E+00
          2   -1    0    0  501    0  0.00000000000E+00  0.00000000000E+00  0.49594156649E+03  0.49594156649E+03  0.00000000000E+00 0. -1.
         -2   -1    0    0    0  501 -0.00000000000E+00 -0.00000000000E+00 -0.25243026579E+02  0.25243026579E+02  0.00000000000E+00 0.  1.
         25    2    1    2    0    0  0.12435443519E+02  0.30325824163E+02  0.29238900615E+03  0.31970563217E+03  0.12508422947E+03 0.  0.
          5    1    3    3  502    0  0.36714301794E+02  0.91458303904E+01  0.15800366814E+02  0.41215411695E+02  0.41800000000E+01 0.  1.
         -5    1    3    3    0  502 -0.24278858275E+02  0.21179993773E+02  0.27658863933E+03  0.27849022048E+03  0.41800000000E+01 0.  1.
        -11    1    1    2    0    0 -0.19155118059E+02  0.32363440541E+01 -0.48991544749E+00  0.19432768403E+02  0.00000000000E+00 0.  1.
         11    1    1    2    0    0  0.67196745395E+01 -0.33562168217E+02  0.17879944921E+03  0.18204619249E+03  0.00000000000E+00 0. -1.
</event>
<event>
 7    1  0.2873461E-009  0.1002739E+03  0.7561462E-02  0.1279721E+00
          2   -1    0    0  501    0  0.00000000000E+00  0.00000000000E+00  0.66613533823E+02  0.66613533823E+02  0.00000000000E+00 0. -1.
         -2   -1    0    0    0  501 -0.00000000000E+00 -0.00000000000E+00 -0.18387749025E+03  0.18387749025E+03  0.00000000000E+00 0.  1.
         25    2    1    2    0    0 -0.23064942499E+02 -0.76831534398E+01 -0.37461644579E+02  0.13281792752E+03  0.12508478979E+03 0.  0.
          5    1    3    3  502    0 -0.49874962880E+02  0.45505948632E+02 -0.17691776241E+02  0.69919772810E+02  0.41800000000E+01 0. -1.
         -5    1    3    3    0  502  0.26810020381E+02 -0.53189102072E+02 -0.19769868339E+02  0.62898154712E+02  0.41800000000E+01 0. -1.
        -11    1    1    2    0    0  0.44449426609E+02  0.19749138132E+02 -0.79403007061E+02  0.93116150657E+02  0.00000000000E+00 0.  1.
         11    1    1    2    0    0 -0.21384484110E+02 -0.12065984692E+02 -0.39930478393E+00  0.24556945892E+02  0.00000000000E+00 0. -1.
</event>
<event>
 7    1  0.2873461E-009  0.7448867E+02  0.7561462E-02  0.1345462E+00
          2   -1    0    0  501    0  0.00000000000E+00  0.00000000000E+00  0.46526860509E+03  0.46526860509E+03  0.00000000000E+00 0. -1.
         -2   -1    0    0    0  501 -0.00000000000E+00 -0.00000000000E+00 -0.25431274138E+02  0.25431274138E+02  0.00000000000E+00 0.  1.
         25    2    1    2    0    0  0.60388597202E+01 -0.49438887418E+01  0.26911272920E+03  0.29687167415E+03  0.12510083946E+03 0.  0.
          5    1    3    3  502    0  0.59555089849E+01  0.35746287919E+02  0.14925996477E+02  0.39414755588E+02  0.41800000000E+01 0.  1.
         -5    1    3    3    0  502  0.83350735310E-01 -0.40690176661E+02  0.25418673272E+03  0.25745691856E+03  0.41800000000E+01 0.  1.
        -11    1    1    2    0    0 -0.38271782625E+02 -0.30223080227E+01  0.28589996795E+02  0.47867020043E+02  0.00000000000E+00 0.  1.
         11    1    1    2    0    0  0.32232922904E+02  0.79661967646E+01  0.14213460496E+03  0.14596118504E+03  0.00000000000E+00 0. -1.
</event>
<event>
 7    1  0.2873461E-009  0.1917063E+03  0.7561462E-02  0.1156931E+00
         -1   -1    0    0    0  501 -0.00000000000E+00  0.00000000000E+00  0.21440181998E+03  0.21440181998E+03  0.00000000000E+00 0.  1.
          1   -1    0    0  501    0  0.00000000000E+00 -0.00000000000E+00 -0.58302967756E+03  0.58302967756E+03  0.00000000000E+00 0. -1.
         25    2    1    2    0    0 -0.34664147442E+02  0.17694165667E+03  0.13307893416E+03  0.25664627288E+03  0.12508938279E+03 0.  0.
          5    1    3    3  502    0 -0.53791669087E+02  0.53966679122E+02  0.27055356022E+01  0.76359272138E+02  0.41800000000E+01 0.  1.
         -5    1    3    3    0  502  0.19127521645E+02  0.12297497755E+03  0.13037339856E+03  0.18028700075E+03  0.41800000000E+01 0.  1.
        -11    1    1    2    0    0  0.26046394221E+02 -0.61155355800E+02 -0.83316414070E+02  0.10658338073E+03  0.00000000000E+00 0.  1.
         11    1    1    2    0    0  0.86177532208E+01 -0.11578630087E+03 -0.41839037766E+03  0.43420184392E+03  0.00000000000E+00 0. -1.
</event>
<event>
 7    1  0.2873461E-009  0.1668817E+03  0.7561462E-02  0.1181139E+00
         -4   -1    0    0    0  501 -0.00000000000E+00  0.00000000000E+00  0.51573448591E+03  0.51573448591E+03  0.00000000000E+00 0.  1.
          4   -1    0    0  501    0  0.00000000000E+00 -0.00000000000E+00 -0.14364504629E+03  0.14364504629E+03  0.00000000000E+00 0. -1.
         25    2    1    2    0    0 -0.69878405608E+02  0.15129147679E+03  0.41334362803E+03  0.46289843274E+03  0.12509956705E+03 0.  0.
          5    1    3    3  502    0 -0.54819945242E+02  0.12240214607E+03  0.16631258791E+03  0.21369338094E+03  0.41800000000E+01 0. -1.
         -5    1    3    3    0  502 -0.15058460366E+02  0.28889330715E+02  0.24703104013E+03  0.24920505180E+03  0.41800000000E+01 0. -1.
        -11    1    1    2    0    0  0.16080774057E+02 -0.29698004318E+02 -0.53165993369E+02  0.62985598399E+02  0.00000000000E+00 0. -1.
         11    1    1    2    0    0  0.53797631551E+02 -0.12159347247E+03  0.11911804965E+02  0.13349550106E+03  0.00000000000E+00 0.  1.
</event>
<event>
 7    1  0.2873461E-009  0.2821115E+03  0.7561462E-02  0.1094541E+00
         -1   -1    0    0    0  501 -0.00000000000E+00  0.00000000000E+00  0.99159477886E+03  0.99159477886E+03  0.00000000000E+00 0.  1.
          1   -1    0    0  501    0  0.00000000000E+00 -0.00000000000E+00 -0.10921897799E+03  0.10921897799E+03  0.00000000000E+00 0. -1.
         25    2    1    2    0    0  0.12779679904E+03 -0.23080190705E+03  0.72258399031E+03  0.77934393654E+03  0.12509119164E+03 0.  0.
          5    1    3    3  502    0  0.75460704310E+02 -0.22602486067E+03  0.61421785061E+03  0.65883427047E+03  0.41800000000E+01 0.  1.
         -5    1    3    3    0  502  0.52336094727E+02 -0.47770463883E+01  0.10836613970E+03  0.12050966607E+03  0.41800000000E+01 0.  1.
        -11    1    1    2    0    0 -0.60061070601E+02  0.17626177591E+03  0.77352043269E+02  0.20164048316E+03  0.00000000000E+00 0.  1.
         11    1    1    2    0    0 -0.67735728436E+02  0.54540131140E+02  0.82439767294E+02  0.11982933715E+03  0.00000000000E+00 0. -1.
</event>
<event>
 7    1  0.2873461E-009  0.1316840E+03  0.7561462E-02  0.1224978E+00
          1   -1    0    0  501    0  0.00000000000E+00  0.00000000000E+00  0.54368728796E+03  0.54368728796E+03  0.00000000000E+00 0.  1.
         -1   -1    0    0    0  501 -0.00000000000E+00 -0.00000000000E+00 -0.47149080620E+02  0.47149080620E+02  0.00000000000E+00 0. -1.
         25    2    1    2    0    0 -0.32430893439E+02  0.83946659831E+02  0.12700332854E+03  0.19969134435E+03  0.12509189823E+03 0.  0.
          5    1    3    3  502    0 -0.28730389026E+02  0.11670444958E+03  0.10653815450E+03  0.16066491394E+03  0.41800000000E+01 0.  1.
         -5    1    3    3    0  502 -0.37005044124E+01 -0.32757789751E+02  0.20465174038E+02  0.39026430412E+02  0.41800000000E+01 0.  1.
        -11    1    1    2    0    0  0.22356322712E+02 -0.93413719293E+02  0.36364754473E+03  0.37611895047E+03  0.00000000000E+00 0.  1.
         11    1    1    2    0    0  0.10074570727E+02  0.94670594621E+01  0.58873340750E+01  0.15026073762E+02  0.00000000000E+00 0. -1.
</event>
<event>
 7    1  0.2873461E-009  0.1023011E+03  0.7561462E-02  0.1275530E+00
         -1   -1    0    0    0  501 -0.00000000000E+00  0.00000000000E+00  0.26857825134E+03  0.26857825134E+03  0.00000000000E+00 0.  1.
          1   -1    0    0  501    0  0.00000000000E+00 -0.00000000000E+00 -0.56447312962E+02  0.56447312962E+02  0.00000000000E+00 0. -1.
         25    2    1    2    0    0 -0.46717234941E+01 -0.45890493940E+02  0.52763522629E+02  0.14338329651E+03  0.12508804085E+03 0.  0.
          5    1    3    3  502    0  0.25910785350E+01  0.43378814007E+02  0.17775596027E+02  0.47136815832E+02  0.41800000000E+01 0.  1.
         -5    1    3    3    0  502 -0.72628020291E+01 -0.89269307947E+02  0.34987926602E+02  0.96246480676E+02  0.41800000000E+01 0.  1.
        -11    1    1    2    0    0  0.29572149125E+02  0.23046232332E+02  0.13465838158E+03  0.13978025811E+03  0.00000000000E+00 0.  1.
         11    1    1    2    0    0 -0.24900425630E+02  0.22844261607E+02  0.24709034170E+02  0.41862009682E+02  0.00000000000E+00 0. -1.
</event>
<event>
 7    1  0.2873461E-009  0.9475457E+02  0.7561462E-02  0.1291730E+00
         -2   -1    0    0    0  501 -0.00000000000E+00  0.00000000000E+00  0.64552916203E+02  0.64552916203E+02  0.00000000000E+00 0.  1.
          2   -1    0    0  501    0  0.00000000000E+00 -0.00000000000E+00 -0.20186452547E+03  0.20186452547E+03  0.00000000000E+00 0. -1.
         25    2    1    2    0    0  0.30753534375E+02 -0.15531996886E+02 -0.96915626773E+02  0.16194542400E+03  0.12508660534E+03 0.  0.
          5    1    3    3  502    0  0.54940472211E+02 -0.42316903356E+02 -0.13241902321E+02  0.70724791789E+02  0.41800000000E+01 0.  1.
         -5    1    3    3    0  502 -0.24186937836E+02  0.26784906470E+02 -0.83673724452E+02  0.91220632207E+02  0.41800000000E+01 0.  1.
        -11    1    1    2    0    0  0.25546444909E+02  0.10322386221E+01  0.10077563700E+02  0.27481696712E+02  0.00000000000E+00 0.  1.
         11    1    1    2    0    0 -0.56299979284E+02  0.14499758264E+02 -0.50473546193E+02  0.76990320965E+02  0.00000000000E+00 0. -1.
</event>
<event>
 7    1  0.2873461E-009  0.1062162E+03  0.7561462E-02  0.1267742E+00
          2   -1    0    0  501    0  0.00000000000E+00  0.00000000000E+00  0.10124263342E+03  0.10124263342E+03  0.00000000000E+00 0. -1.
         -2   -1    0    0    0  501 -0.00000000000E+00 -0.00000000000E+00 -0.15630484746E+03  0.15630484746E+03  0.00000000000E+00 0.  1.
         25    2    1    2    0    0  0.12366917278E+02  0.29053840824E+02 -0.88915871547E+02  0.15669744862E+03  0.12510392433E+03 0.  0.
          5    1    3    3  502    0  0.50828033787E+01 -0.47112959708E+02 -0.55508034008E+02  0.73103215402E+02  0.41800000000E+01 0.  1.
         -5    1    3    3    0  502  0.72841138995E+01  0.76166800532E+02 -0.33407837538E+02  0.83594233219E+02  0.41800000000E+01 0.  1.
        -11    1    1    2    0    0 -0.22536562006E+02  0.24752255801E+02  0.31616939054E+02  0.46045647237E+02  0.00000000000E+00 0. -1.
         11    1    1    2    0    0  0.10169644728E+02 -0.53806096626E+02  0.22367184473E+01  0.54804385020E+02  0.00000000000E+00 0.  1.
</event>
<event>
 7    1  0.2873461E-009  0.4158427E+03  0.7561462E-02  0.1038428E+00
         -2   -1    0    0    0  501 -0.00000000000E+00  0.00000000000E+00  0.32537044299E+03  0.32537044299E+03  0.00000000000E+00 0.  1.
          2   -1    0    0  501    0  0.00000000000E+00 -0.00000000000E+00 -0.55252597486E+03  0.55252597486E+03  0.00000000000E+00 0. -1.
         25    2    1    2    0    0  0.39480214670E+03 -0.97929848646E+02 -0.67599422123E+02  0.43090120141E+03  0.12508866142E+03 0.  0.
          5    1    3    3  502    0  0.29368798256E+03 -0.18848408888E+02 -0.24127933344E+02  0.29530919929E+03  0.41800000000E+01 0.  1.
         -5    1    3    3    0  502  0.10111416414E+03 -0.79081439758E+02 -0.43471488779E+02  0.13559200212E+03  0.41800000000E+01 0.  1.
        -11    1    1    2    0    0 -0.19158101293E+03  0.69156771543E+02 -0.12466169873E+03  0.23880218319E+03  0.00000000000E+00 0.  1.
         11    1    1    2    0    0 -0.20322113376E+03  0.28773077103E+02 -0.34894411016E+02  0.20819303325E+03  0.00000000000E+00 0. -1.
</event>
<event>
 7    1  0.2873461E-009  0.8858258E+02  0.7561462E-02  0.1306321E+00
          3   -1    0    0  501    0  0.00000000000E+00  0.00000000000E+00  0.99905638065E+02  0.99905638065E+02  0.00000000000E+00 0. -1.
         -3   -1    0    0    0  501 -0.00000000000E+00 -0.00000000000E+00 -0.14500981586E+03  0.14500981586E+03  0.00000000000E+00 0.  1.
         25    2    1    2    0    0  0.36510260601E+02  0.10725962609E+02 -0.45641491133E+02  0.13848685431E+03  0.12508963866E+03 0.  0.
          5    1    3    3  502    0 -0.26166173025E+02 -0.17934542771E+02 -0.59968754760E+02  0.67970878931E+02  0.41800000000E+01 0.  1.
         -5    1    3    3    0  502  0.62676433626E+02  0.28660505380E+02  0.14327263627E+02  0.70515975379E+02  0.41800000000E+01 0.  1.
        -11    1    1    2    0    0 -0.25433628413E+02  0.26829283585E+02 -0.36916627867E+02  0.52244782754E+02  0.00000000000E+00 0.  1.
         11    1    1    2    0    0 -0.11076632188E+02 -0.37555246194E+02  0.37453941208E+02  0.54183816858E+02  0.00000000000E+00 0. -1.
</event>
<event>
 7    1  0.2873461E-009  0.2080468E+03  0.7561462E-02  0.1143122E+00
          1   -1    0    0  501    0  0.00000000000E+00  0.00000000000E+00  0.51689495493E+03  0.51689495493E+03  0.00000000000E+00 0. -1.
         -1   -1    0    0    0  501 -0.00000000000E+00 -0.00000000000E+00 -0.94588049713E+02  0.94588049713E+02  0.00000000000E+00 0.  1.
         25    2    1    2    0    0  0.14980880247E+03 -0.11114141902E+03  0.28397125337E+03  0.36205304250E+03  0.12509052932E+03 0.  0.
          5    1    3    3  502    0 -0.15288782926E+02 -0.31349948841E+02  0.82110041664E+02  0.89309000206E+02  0.41800000000E+01 0. -1.
         -5    1    3    3    0  502  0.16509758540E+03 -0.79791470175E+02  0.20186121171E+03  0.27274404230E+03  0.41800000000E+01 0. -1.
        -11    1    1    2    0    0 -0.93981836879E+02  0.29230939635E+02  0.10719860435E+03  0.14552860293E+03  0.00000000000E+00 0. -1.
         11    1    1    2    0    0 -0.55826965591E+02  0.81910479381E+02  0.31137047494E+02  0.10390135921E+03  0.00000000000E+00 0.  1.
</event>
<event>
 7    1  0.2873461E-009  0.9577267E+02  0.7561462E-02  0.1289445E+00
         -2   -1    0    0    0  501 -0.00000000000E+00  0.00000000000E+00  0.13497006330E+03  0.13497006330E+03  0.00000000000E+00 0. -1.
          2   -1    0    0  501    0  0.00000000000E+00 -0.00000000000E+00 -0.12801027190E+03  0.12801027190E+03  0.00000000000E+00 0.  1.
         25    2    1    2    0    0 -0.41497241418E+02 -0.40039429298E+02  0.47750420354E+02  0.14578228860E+03  0.12508875282E+03 0.  0.
          5    1    3    3  502    0 -0.55838398199E+02 -0.14604160984E+02 -0.28150094992E+02  0.64351445047E+02  0.41800000000E+01 0.  1.
         -5    1    3    3    0  502  0.14341156782E+02 -0.25435268314E+02  0.75900515346E+02  0.81430843553E+02  0.41800000000E+01 0.  1.
        -11    1    1    2    0    0 -0.38762939182E+00  0.58433179380E+02 -0.41396253013E+01  0.58580911624E+02  0.00000000000E+00 0. -1.
         11    1    1    2    0    0  0.41884870809E+02 -0.18393750082E+02 -0.36651003649E+02  0.58617134980E+02  0.00000000000E+00 0.  1.
</event>
<event>
 7    1  0.2873461E-009  0.1314568E+03  0.7561462E-02  0.1225310E+00
         -1   -1    0    0    0  501 -0.00000000000E+00  0.00000000000E+00  0.34337330651E+02  0.34337330651E+02  0.00000000000E+00 0.  1.
          1   -1    0    0  501    0  0.00000000000E+00 -0.00000000000E+00 -0.80420346455E+03  0.80420346455E+03  0.00000000000E+00 0. -1.
         25    2    1    2    0    0 -0.17651134557E+02 -0.11735115007E+03 -0.50782809066E+03  0.53630204056E+03  0.12509058348E+03 0.  0.
          5    1    3    3  502    0 -0.96906841814E+01 -0.10163527187E+03 -0.50802055766E+03  0.51819494136E+03  0.41800000000E+01 0. -1.
         -5    1    3    3    0  502 -0.79604503756E+01 -0.15715878205E+02  0.19246700194E+00  0.18107099202E+02  0.41800000000E+01 0. -1.
        -11    1    1    2    0    0  0.44259002853E+02  0.36055285934E+02 -0.59895251647E+02  0.82742275453E+02  0.00000000000E+00 0.  1.
         11    1    1    2    0    0 -0.26607868296E+02  0.81295864141E+02 -0.20214279160E+03  0.21949647919E+03  0.00000000000E+00 0. -1.
</event>
<event>
 7    1  0.2873461E-009  0.1187403E+03  0.7561462E-02  0.1245190E+00
          2   -1    0    0  501    0  0.00000000000E+00  0.00000000000E+00  0.23082625198E+04  0.23082625198E+04  0.00000000000E+00 0. -1.
         -2   -1    0    0    0  501 -0.00000000000E+00 -0.00000000000E+00 -0.12439727269E+02  0.12439727269E+02  0.00000000000E+00 0.  1.
         25    2    1    2    0    0 -0.90630804229E+02 -0.22912287841E+02  0.18368324319E+04  0.18434589029E+04  0.12509367776E+03 0.  0.
          5    1    3    3  502    0 -0.91276770984E+02 -0.33551491535E+02  0.71799946049E+03  0.72456735309E+03  0.41800000000E+01 0. -1.
         -5    1    3    3    0  502  0.64596675448E+00  0.10639203694E+02  0.11188329714E+04  0.11188915498E+04  0.41800000000E+01 0. -1.
        -11    1    1    2    0    0  0.86485828761E+00 -0.26305935603E+02  0.63972283233E+02  0.69175163533E+02  0.00000000000E+00 0.  1.
         11    1    1    2    0    0  0.89765945942E+02  0.49218223443E+02  0.39501807736E+03  0.40806818059E+03  0.00000000000E+00 0. -1.
</event>
<event>
 7    1  0.2873461E-009  0.9638543E+02  0.7561462E-02  0.1288086E+00
         -2   -1    0    0    0  501 -0.00000000000E+00  0.00000000000E+00  0.19783326561E+03  0.19783326561E+03  0.00000000000E+00 0. -1.
          2   -1    0    0  501    0  0.00000000000E+00 -0.00000000000E+00 -0.69153257342E+02  0.69153257342E+02  0.00000000000E+00 0.  1.
         25    2    1    2    0    0  0.11924561187E+02  0.41493571372E+02  0.83605741807E+02  0.15652941392E+03  0.12509047020E+03 0.  0.
          5    1    3    3  502    0 -0.40491553730E+02  0.26086233243E+02  0.89190892664E+02  0.10145218195E+03  0.41800000000E+01 0. -1.
         -5    1    3    3    0  502  0.52416114917E+02  0.15407338129E+02 -0.55851508567E+01  0.55077231969E+02  0.41800000000E+01 0. -1.
        -11    1    1    2    0    0  0.28084803971E+02 -0.40901958027E+02 -0.75014964589E+00  0.49621458151E+02  0.00000000000E+00 0.  1.
         11    1    1    2    0    0 -0.40009365158E+02 -0.59161334528E+00  0.45824416102E+02  0.60835650878E+02  0.00000000000E+00 0. -1.
</event>
<event>
 7    1  0.2873461E-009  0.1868150E+03  0.7561462E-02  0.1161366E+00
          2   -1    0    0  501    0  0.00000000000E+00  0.00000000000E+00  0.16179319843E+03  0.16179319843E+03  0.00000000000E+00 0.  1.
         -2   -1    0    0    0  501 -0.00000000000E+00 -0.00000000000E+00 -0.23530438343E+03  0.23530438343E+03  0.00000000000E+00 0. -1.
         25    2    1    2    0    0 -0.12295301787E+03  0.99890006867E+02 -0.40002782052E+01  0.20189111891E+03  0.12509421886E+03 0.  0.
          5    1    3    3  502    0 -0.59558859869E+02  0.12066748704E+03 -0.84861973908E+01  0.13489769518E+03  0.41800000000E+01 0. -1.
         -5    1    3    3    0  502 -0.63394158006E+02 -0.20777480177E+02  0.44859191856E+01  0.66993423728E+02  0.41800000000E+01 0. -1.
        -11    1    1    2    0    0  0.12099437000E+03 -0.65261553551E+02 -0.26585039016E+02  0.14001954236E+03  0.00000000000E+00 0.  1.
         11    1    1    2    0    0  0.19586478716E+01 -0.34628453315E+02 -0.42925867773E+02  0.55186920593E+02  0.00000000000E+00 0. -1.
</event>
<event>
 7    1  0.2873461E-009  0.7148957E+02  0.7561462E-02  0.1355100E+00
         -1   -1    0    0    0  501 -0.00000000000E+00  0.00000000000E+00  0.21138001726E+02  0.21138001726E+02  0.00000000000E+00 0.  1.
          1   -1    0    0  501    0  0.00000000000E+00 -0.00000000000E+00 -0.56416678411E+03  0.56416678411E+03  0.00000000000E+00 0. -1.
         25    2    1    2    0    0  0.98394569501E+01  0.81615268786E+01 -0.31280739417E+03  0.33713178824E+03  0.12508377737E+03 0.  0.
          5    1    3    3  502    0 -0.15091703939E+02  0.30378913027E+02 -0.29868487669E+03  0.30063393994E+03  0.41800000000E+01 0.  1.
         -5    1    3    3    0  502  0.24931160889E+02 -0.22217386149E+02 -0.14122517488E+02  0.36497848303E+02  0.41800000000E+01 0.  1.
        -11    1    1    2    0    0  0.29599631077E+02  0.10641804019E+02 -0.17476262532E+03  0.17757072214E+03  0.00000000000E+00 0. -1.
         11    1    1    2    0    0 -0.39439088027E+02 -0.18803330898E+02 -0.55458762885E+02  0.70602275445E+02  0.00000000000E+00 0.  1.
</event>
<event>
 7    1  0.2873461E-009  0.2177631E+03  0.7561462E-02  0.1135562E+00
         -2   -1    0    0    0  501 -0.00000000000E+00  0.00000000000E+00  0.87428221990E+03  0.87428221990E+03  0.00000000000E+00 0.  1.
          2   -1    0    0  501    0  0.00000000000E+00 -0.00000000000E+00 -0.65271177155E+02  0.65271177155E+02  0.00000000000E+00 0. -1.
         25    2    1    2    0    0  0.17873868431E+03 -0.11068942275E+03  0.35169292161E+03  0.42841615253E+03  0.12511124274E+03 0.  0.
          5    1    3    3  502    0  0.94713513226E+02 -0.77662021598E+02  0.91414998105E+02  0.15289281692E+03  0.41800000000E+01 0. -1.
         -5    1    3    3    0  502  0.84025171089E+02 -0.33027401150E+02  0.26027792350E+03  0.27552333561E+03  0.41800000000E+01 0. -1.
        -11    1    1    2    0    0 -0.81116756191E+02  0.92956526373E+02  0.19576857871E+03  0.23140047610E+03  0.00000000000E+00 0.  1.
         11    1    1    2    0    0 -0.97621928124E+02  0.17732896376E+02  0.26154954242E+03  0.27973676842E+03  0.00000000000E+00 0. -1.
</event>
<event>
 7    1  0.2873461E-009  0.1411746E+03  0.7561462E-02  0.1211757E+00
          2   -1    0    0  501    0  0.00000000000E+00  0.00000000000E+00  0.53497844925E+03  0.53497844925E+03  0.00000000000E+00 0. -1.
         -2   -1    0    0    0  501 -0.00000000000E+00 -0.00000000000E+00 -0.57903161519E+02  0.57903161519E+02  0.00000000000E+00 0.  1.
         25    2    1    2    0    0  0.12165653917E+03  0.62276819884E+02  0.29055016276E+03  0.34459545253E+03  0.12509161847E+03 0.  0.
          5    1    3    3  502    0  0.23435637277E+02  0.36818114327E+02  0.82874816621E+01  0.44620145556E+02  0.41800000000E+01 0. -1.
         -5    1    3    3    0  502  0.98220901896E+02  0.25458705557E+02  0.28226268109E+03  0.29997530698E+03  0.41800000000E+01 0. -1.
        -11    1    1    2    0    0 -0.90768493653E+02 -0.50686472935E+02  0.65569772554E+02  0.12291229821E+03  0.00000000000E+00 0. -1.
         11    1    1    2    0    0 -0.30888045521E+02 -0.11590346949E+02  0.12095535242E+03  0.12537386003E+03  0.00000000000E+00 0.  1.
</event>
<event>
 7    1  0.2873461E-009  0.1403078E+03  0.7561462E-02  0.1212915E+00
          2   -1    0    0  501    0  0.00000000000E+00  0.00000000000E+00  0.30039972989E+03  0.30039972989E+03  0.00000000000E+00 0.  1.
         -2   -1    0    0    0  501 -0.00000000000E+00 -0.00000000000E+00 -0.20395643416E+03  0.20395643416E+03  0.00000000000E+00 0. -1.
         25    2    1    2    0    0 -0.79348457147E+02 -0.95899786459E+02 -0.14251956392E+03  0.22683115447E+03  0.12509036671E+03 0.  0.
          5    1    3    3  502    0 -0.11269996360E+02 -0.85782245511E+02 -0.24286670656E+02  0.89960664928E+02  0.41800000000E+01 0.  1.
         -5    1    3    3    0  502 -0.68078460787E+02 -0.10117540948E+02 -0.11823289326E+03  0.13687048954E+03  0.41800000000E+01 0.  1.
        -11    1    1    2    0    0  0.67056685954E+02  0.73510011878E+02  0.12016635963E+03  0.15601370120E+03  0.00000000000E+00 0. -1.
         11    1    1    2    0    0  0.12291771193E+02  0.22389774581E+02  0.11879650002E+03  0.12151130837E+03  0.00000000000E+00 0.  1.
</event>
<event>
 7    1  0.2873461E-009  0.1458499E+03  0.7561462E-02  0.1205667E+00
          2   -1    0    0  501    0  0.00000000000E+00  0.00000000000E+00  0.40485724368E+03  0.40485724368E+03  0.00000000000E+00 0. -1.
         -2   -1    0    0    0  501 -0.00000000000E+00 -0.00000000000E+00 -0.62878061454E+02  0.62878061454E+02  0.00000000000E+00 0.  1.
         25    2    1    2    0    0 -0.10765129640E+03 -0.41871275707E+02  0.16563068633E+03  0.23753569772E+03  0.12509067949E+03 0.  0.
          5    1    3    3  502    0 -0.78310379846E+02 -0.80168019997E+02  0.14867298062E+03  0.18622715857E+03  0.41800000000E+01 0.  1.
         -5    1    3    3    0  502 -0.29340916552E+02  0.38296744290E+02  0.16957705705E+02  0.51308539154E+02  0.41800000000E+01 0.  1.
        -11    1    1    2    0    0  0.96312162350E+02  0.94428347519E+01  0.72794640132E+02  0.12109607498E+03  0.00000000000E+00 0.  1.
         11    1    1    2    0    0  0.11339134048E+02  0.32428440955E+02  0.10355385577E+03  0.10910353243E+03  0.00000000000E+00 0. -1.
</event>
<event>
 7    1  0.2873461E-009  0.9393500E+02  0.7561462E-02  0.1293593E+00
         -1   -1    0    0    0  501 -0.00000000000E+00  0.00000000000E+00  0.37282831578E+02  0.37282831578E+02  0.00000000000E+00 0.  1.
          1   -1    0    0  501    0  0.00000000000E+00 -0.00000000000E+00 -0.50593737804E+03  0.50593737804E+03  0.00000000000E+00 0. -1.
         25    2    1    2    0    0  0.14075341029E+02  0.70586423713E+02 -0.34975483325E+03  0.37835758895E+03  0.12508182639E+03 0.  0.
          5    1    3    3  502    0  0.17256604471E+02  0.91659564267E+02 -0.14502439715E+03  0.17247844586E+03  0.41800000000E+01 0. -1.
         -5    1    3    3    0  502 -0.31812634424E+01 -0.21073140554E+02 -0.20473043610E+03  0.20587914308E+03  0.41800000000E+01 0. -1.
        -11    1    1    2    0    0 -0.58696723478E+01 -0.53638100814E+02 -0.10665103695E+02  0.55002212221E+02  0.00000000000E+00 0.  1.
         11    1    1    2    0    0 -0.82056686809E+01 -0.16948322899E+02 -0.10823460951E+03  0.10986040844E+03  0.00000000000E+00 0. -1.
</event>
<event>
 7    1  0.2873461E-009  0.1023057E+03  0.7561462E-02  0.1275521E+00
          2   -1    0    0  501    0  0.00000000000E+00  0.00000000000E+00  0.26551138248E+03  0.26551138248E+03  0.00000000000E+00 0.  1.
         -2   -1    0    0    0  501 -0.00000000000E+00 -0.00000000000E+00 -0.61929549584E+02  0.61929549584E+02  0.00000000000E+00 0. -1.
         25    2    1    2    0    0  0.62315397822E+02  0.96137700304E+00  0.14690974054E+03  0.20276651791E+03  0.12509059064E+03 0.  0.
          5    1    3    3  502    0  0.76506285065E+02  0.41384622216E+02  0.13010162690E+03  0.15655607409E+03  0.41800000000E+01 0. -1.
         -5    1    3    3    0  502 -0.14190887242E+02 -0.40423245213E+02  0.16808113638E+02  0.46210443823E+02  0.41800000000E+01 0. -1.
        -11    1    1    2    0    0 -0.24820357440E+02 -0.20510548131E+02  0.72654451170E+02  0.79469503603E+02  0.00000000000E+00 0.  1.
         11    1    1    2    0    0 -0.37495040383E+02  0.19549171127E+02 -0.15982358812E+02  0.45204910555E+02  0.00000000000E+00 0. -1.
</event>
<event>
 7    1  0.2873461E-009  0.1001247E+03  0.7561462E-02  0.1280034E+00
         -3   -1    0    0    0  501 -0.00000000000E+00  0.00000000000E+00  0.10467920885E+03  0.10467920885E+03  0.00000000000E+00 0.  1.
          3   -1    0    0  501    0  0.00000000000E+00 -0.00000000000E+00 -0.12191660707E+03  0.12191660707E+03  0.00000000000E+00 0. -1.
         25    2    1    2    0    0 -0.17295303705E+02 -0.17147027761E+02 -0.35576675274E+02  0.13231016570E+03  0.12508849680E+03 0.  0.
          5    1    3    3  502    0 -0.62024597476E+02 -0.12547391636E+02 -0.54236397218E+02  0.83447869428E+02  0.41800000000E+01 0.  1.
         -5    1    3    3    0  502  0.44729293772E+02 -0.45996361250E+01  0.18659721944E+02  0.48862296270E+02  0.41800000000E+01 0.  1.
        -11    1    1    2    0    0 -0.28515030869E+02  0.32612749929E+02  0.14905008391E+02  0.45813291942E+02  0.00000000000E+00 0.  1.
         11    1    1    2    0    0  0.45810334574E+02 -0.15465722168E+02  0.34342686639E+01  0.48472358280E+02  0.00000000000E+00 0. -1.
</event>
<event>
 7    1  0.2873461E-009  0.7889603E+02  0.7561462E-02  0.1332214E+00
         -2   -1    0    0    0  501 -0.00000000000E+00  0.00000000000E+00  0.35720721578E+03  0.35720721578E+03  0.00000000000E+00 0.  1.
          2   -1    0    0  501    0  0.00000000000E+00 -0.00000000000E+00 -0.35881586298E+02  0.35881586298E+02  0.00000000000E+00 0. -1.
         25    2    1    2    0    0  0.93362497804E+01 -0.30506662639E+02  0.16448649246E+03  0.20909559514E+03  0.12508932681E+03 0.  0.
          5    1    3    3  502    0 -0.40455569948E+02 -0.45793339045E+01  0.65781366102E+01  0.41453199154E+02  0.41800000000E+01 0. -1.
         -5    1    3    3    0  502  0.49791819728E+02 -0.25927328734E+02  0.15790835585E+03  0.16764239599E+03  0.41800000000E+01 0. -1.
        -11    1    1    2    0    0  0.80618466635E+00  0.43823845585E+02  0.16090395601E+03  0.16676709038E+03  0.00000000000E+00 0.  1.
         11    1    1    2    0    0 -0.10142434447E+02 -0.13317182946E+02 -0.40648189822E+01  0.17226116553E+02  0.00000000000E+00 0. -1.
</event>
<event>
 7    1  0.2873461E-009  0.1164874E+03  0.7561462E-02  0.1249007E+00
         -1   -1    0    0    0  501 -0.00000000000E+00  0.00000000000E+00  0.21230038188E+02  0.21230038188E+02  0.00000000000E+00 0.  1.
          1   -1    0    0  501    0  0.00000000000E+00 -0.00000000000E+00 -0.97411998612E+03  0.97411998612E+03  0.00000000000E+00 0. -1.
         25    2    1    2    0    0  0.36051861851E+02  0.63439614369E+02 -0.43198743692E+03  0.45561448821E+03  0.12508834798E+03 0.  0.
          5    1    3    3  502    0  0.66165124739E+01  0.62637276027E+02 -0.77831316883E+02  0.10021174020E+03  0.41800000000E+01 0. -1.
         -5    1    3    3    0  502  0.29435349377E+02  0.80233834189E+00 -0.35415612004E+03  0.35540274802E+03  0.41800000000E+01 0. -1.
        -11    1    1    2    0    0 -0.71547291200E+02 -0.74142910358E+02 -0.41229692442E+03  0.42497639925E+03  0.00000000000E+00 0. -1.
         11    1    1    2    0    0  0.35495429349E+02  0.10703295989E+02 -0.10860558659E+03  0.11475913684E+03  0.00000000000E+00 0.  1.
</event>
<event>
 7    1  0.2873461E-009  0.1254398E+03  0.7561462E-02  0.1234384E+00
         -1   -1    0    0    0  501 -0.00000000000E+00  0.00000000000E+00  0.49627523737E+03  0.49627523737E+03  0.00000000000E+00 0.  1.
          1   -1    0    0  501    0  0.00000000000E+00 -0.00000000000E+00 -0.38392613776E+02  0.38392613776E+02  0.00000000000E+00 0. -1.
         25    2    1    2    0    0  0.59915498098E+02 -0.56276068943E+02  0.30249305472E+03  0.33749914916E+03  0.12508702843E+03 0.  0.
          5    1    3    3  502    0 -0.90532696719E+01  0.28621872154E+02  0.25316783462E+02  0.39491583688E+02  0.41800000000E+01 0. -1.
         -5    1    3    3    0  502  0.68968767770E+02 -0.84897941096E+02  0.27717627126E+03  0.29800756547E+03  0.41800000000E+01 0. -1.
        -11    1    1    2    0    0 -0.75182141219E+02  0.59041025303E+02  0.94821820971E+02  0.13464536665E+03  0.00000000000E+00 0. -1.
         11    1    1    2    0    0  0.15266643121E+02 -0.27649563604E+01  0.60567747905E+02  0.62523335341E+02  0.00000000000E+00 0.  1.
</event>
<event>
 7    1  0.2873461E-009  0.7177561E+02  0.7561462E-02  0.1354157E+00
         -1   -1    0    0    0  501 -0.00000000000E+00  0.00000000000E+00  0.16530404225E+03  0.16530404225E+03  0.00000000000E+00 0.  1.
          1   -1    0    0  501    0  0.00000000000E+00 -0.00000000000E+00 -0.85737775503E+02  0.85737775503E+02  0.00000000000E+00 0. -1.
         25    2    1    2    0    0  0.48999831104E+02 -0.23520404561E+02  0.38002141540E+02  0.14158969884E+03  0.12509711098E+03 0.  0.
          5    1    3    3  502    0  0.21441515137E+02  0.22889950431E+02 -0.37258075059E+02  0.48880721754E+02  0.41800000000E+01 0.  1.
         -5    1    3    3    0  502  0.27558315967E+02 -0.46410354993E+02  0.75260216599E+02  0.92708977084E+02  0.41800000000E+01 0.  1.
        -11    1    1    2    0    0 -0.32584693774E+02  0.49020336133E+01 -0.23064158481E+02  0.40221233302E+02  0.00000000000E+00 0. -1.
         11    1    1    2    0    0 -0.16415137330E+02  0.18618370948E+02  0.64628283689E+02  0.69230885614E+02  0.00000000000E+00 0.  1.
</event>
<event>
 7    1  0.2873461E-009  0.1128936E+03  0.7561462E-02  0.1255303E+00
          1   -1    0    0  501    0  0.00000000000E+00  0.00000000000E+00  0.32238414163E+03  0.32238414163E+03  0.00000000000E+00 0. -1.
         -1   -1    0    0    0  501 -0.00000000000E+00 -0.00000000000E+00 -0.46172834123E+02  0.46172834123E+02  0.00000000000E+00 0.  1.
         25    2    1    2    0    0 -0.29357304982E+02  0.46882342820E+02  0.17188641819E+03  0.21966378366E+03  0.12508969450E+03 0.  0.
          5    1    3    3  502    0 -0.59265459973E+02 -0.13064405493E+02  0.43486317623E+02  0.74777039639E+02  0.41800000000E+01 0.  1.
         -5    1    3    3    0  502  0.29908154990E+02  0.59946748313E+02  0.12840010057E+03  0.14488674402E+03  0.41800000000E+01 0.  1.
        -11    1    1    2    0    0  0.25900194721E+02 -0.69905960505E+02  0.10075942333E+03  0.12534003667E+03  0.00000000000E+00 0. -1.
         11    1    1    2    0    0  0.34571102615E+01  0.23023617685E+02  0.35654659779E+01  0.23553155421E+02  0.00000000000E+00 0.  1.
</event>
<event>
 7    1  0.2873461E-009  0.1473688E+03  0.7561462E-02  0.1203744E+00
          1   -1    0    0  501    0  0.00000000000E+00  0.00000000000E+00  0.59689962062E+03  0.59689962062E+03  0.00000000000E+00 0. -1.
         -1   -1    0    0    0  501 -0.00000000000E+00 -0.00000000000E+00 -0.44553923213E+02  0.44553923213E+02  0.00000000000E+00 0.  1.
         25    2    1    2    0    0 -0.76695447633E+02  0.76462156876E+02  0.18572820893E+03  0.24874083652E+03  0.12509349719E+03 0.  0.
          5    1    3    3  502    0 -0.90095201283E+02  0.29109816047E+01  0.10942999777E+03  0.14183799181E+03  0.41800000000E+01 0. -1.
         -5    1    3    3    0  502  0.13399753650E+02  0.73551175271E+02  0.76298211158E+02  0.10690284471E+03  0.41800000000E+01 0. -1.
        -11    1    1    2    0    0  0.44189828033E+02  0.24677998351E+01  0.60783613614E+02  0.75189617778E+02  0.00000000000E+00 0. -1.
         11    1    1    2    0    0  0.32505619600E+02 -0.78929956711E+02  0.30583387486E+03  0.31752308953E+03  0.00000000000E+00 0.  1.
</event>
<event>
 7    1  0.2873461E-009  0.9719859E+02  0.7561462E-02  0.1286300E+00
          4   -1    0    0  501    0  0.00000000000E+00  0.00000000000E+00  0.68325071832E+02  0.68325071832E+02  0.00000000000E+00 0. -1.
         -4   -1    0    0    0  501 -0.00000000000E+00 -0.00000000000E+00 -0.27619661318E+03  0.27619661318E+03  0.00000000000E+00 0.  1.
         25    2    1    2    0    0  0.47083366765E+02  0.47880737817E+02 -0.17329673792E+03  0.22402983911E+03  0.12509276940E+03 0.  0.
          5    1    3    3  502    0 -0.13052343748E+02  0.62784181563E+02 -0.36754558300E+02  0.74030987347E+02  0.41800000000E+01 0. -1.
         -5    1    3    3    0  502  0.60135710513E+02 -0.14903443745E+02 -0.13654217962E+03  0.14999885176E+03  0.41800000000E+01 0. -1.
        -11    1    1    2    0    0 -0.96821632770E+01 -0.16881282815E+02 -0.61809213897E+02  0.64800470043E+02  0.00000000000E+00 0.  1.
         11    1    1    2    0    0 -0.37401203488E+02 -0.30999455002E+02  0.27234410462E+02  0.55691375868E+02  0.00000000000E+00 0. -1.
</event>
<event>
 7    1  0.2873461E-009  0.1212890E+03  0.7561462E-02  0.1240986E+00
          1   -1    0    0  501    0  0.00000000000E+00  0.00000000000E+00  0.55990538974E+02  0.55990538974E+02  0.00000000000E+00 0. -1.
         -1   -1    0    0    0  501 -0.00000000000E+00 -0.00000000000E+00 -0.32766281405E+03  0.32766281405E+03  0.00000000000E+00 0.  1.
         25    2    1    2    0    0 -0.82092520959E+02 -0.56697884999E+00 -0.15358823645E+03  0.21442105075E+03  0.12509011617E+03 0.  0.
          5    1    3    3  502    0 -0.76154633241E+02  0.41984375969E+02 -0.45936068661E+02  0.98436836569E+02  0.41800000000E+01 0.  1.
         -5    1    3    3    0  502 -0.59378877180E+01 -0.42551354819E+02 -0.10765216779E+03  0.11598421418E+03  0.41800000000E+01 0.  1.
        -11    1    1    2    0    0  0.45694939734E+02  0.38520108990E+02 -0.94008453269E+02  0.11139755653E+03  0.00000000000E+00 0.  1.
         11    1    1    2    0    0  0.36397581225E+02 -0.37953130140E+02 -0.24075585356E+02  0.57834745756E+02  0.00000000000E+00 0. -1.
</event>
<event>
 7    1  0.2873461E-009  0.1058717E+03  0.7561462E-02  0.1268412E+00
          2   -1    0    0  501    0  0.00000000000E+00  0.00000000000E+00  0.14242653890E+04  0.14242653890E+04  0.00000000000E+00 0. -1.
         -2   -1    0    0    0  501 -0.00000000000E+00 -0.00000000000E+00 -0.10758771417E+02  0.10758771417E+02  0.00000000000E+00 0.  1.
         25    2    1    2    0    0 -0.61975050362E+01  0.46324751692E+02  0.10093375821E+04  0.10181322985E+04  0.12508649452E+03 0.  0.
          5    1    3    3  502    0 -0.12188587619E+01 -0.33076191669E+02  0.10229152852E+03  0.10759437383E+03  0.41800000000E+01 0.  1.
         -5    1    3    3    0  502 -0.49786462743E+01  0.79400943362E+02  0.90704605353E+03  0.91053792472E+03  0.41800000000E+01 0.  1.
        -11    1    1    2    0    0 -0.20028905163E+02 -0.64018337629E+02  0.32043238572E+03  0.32737809703E+03  0.00000000000E+00 0. -1.
         11    1    1    2    0    0  0.26226410199E+02  0.17693585937E+02  0.83736649842E+02  0.89513764874E+02  0.00000000000E+00 0.  1.
</event>
<event>
 7    1  0.2873461E-009  0.6449738E+02  0.7561462E-02  0.1379872E+00
          1   -1    0    0  501    0  0.00000000000E+00  0.00000000000E+00  0.36287908170E+02  0.36287908170E+02  0.00000000000E+00 0. -1.
         -1   -1    0    0    0  501 -0.00000000000E+00 -0.00000000000E+00 -0.32858372282E+03  0.32858372282E+03  0.00000000000E+00 0.  1.
         25    2    1    2    0    0  0.19968828528E+02  0.48004173562E+01 -0.17559964983E+03  0.21657561272E+03  0.12509180981E+03 0.  0.
          5    1    3    3  502    0 -0.29383415134E+01 -0.22945992434E+02  0.11381462519E+02  0.26118240919E+02  0.41800000000E+01 0. -1.
         -5    1    3    3    0  502  0.22907170042E+02  0.27746409791E+02 -0.18698111235E+03  0.19045737180E+03  0.41800000000E+01 0. -1.
        -11    1    1    2    0    0  0.20738351953E+02  0.13381753181E+02 -0.14462278353E+01  0.24723311568E+02  0.00000000000E+00 0. -1.
         11    1    1    2    0    0 -0.40707180482E+02 -0.18182170537E+02 -0.11524993698E+03  0.12357270670E+03  0.00000000000E+00 0.  1.
</event>
<event>
 7    1  0.2873461E-009  0.1505570E+03  0.7561462E-02  0.1199790E+00
          1   -1    0    0  501    0  0.00000000000E+00  0.00000000000E+00  0.58678065059E+02  0.58678065059E+02  0.00000000000E+00 0. -1.
         -1   -1    0    0    0  501 -0.00000000000E+00 -0.00000000000E+00 -0.47289101116E+03  0.47289101116E+03  0.00000000000E+00 0.  1.
         25    2    1    2    0    0 -0.11642569250E+03  0.38964780872E+02 -0.17676314248E+03  0.24893020935E+03  0.12509134489E+03 0.  0.
          5    1    3    3  502    0 -0.13878533608E+03  0.45865323515E+02 -0.16995583555E+03  0.22420404958E+03  0.41800000000E+01 0. -1.
         -5    1    3    3    0  502  0.22359643574E+02 -0.69005426435E+01 -0.68073069350E+01  0.24726159775E+02  0.41800000000E+01 0. -1.
        -11    1    1    2    0    0  0.15972686618E+02  0.10530030217E+02 -0.11549416796E+03  0.11706797635E+03  0.00000000000E+00 0.  1.
         11    1    1    2    0    0  0.10045300589E+03 -0.49494811089E+02 -0.12195563567E+03  0.16557089052E+03  0.00000000000E+00 0. -1.
</event>
<event>
 7    1  0.2873461E-009  0.8207406E+02  0.7561462E-02  0.1323267E+00
         -2   -1    0    0    0  501 -0.00000000000E+00  0.00000000000E+00  0.19681801397E+03  0.19681801397E+03  0.00000000000E+00 0.  1.
          2   -1    0    0  501    0  0.00000000000E+00 -0.00000000000E+00 -0.90643176802E+02  0.90643176802E+02  0.00000000000E+00 0. -1.
         25    2    1    2    0    0  0.57946231624E+02  0.47352290963E+02  0.39975306874E+02  0.15114936597E+03  0.12509236769E+03 0.  0.
          5    1    3    3  502    0  0.23929157067E+02  0.37951365531E+01 -0.44075846052E+02  0.50469398893E+02  0.41800000000E+01 0. -1.
         -5    1    3    3    0  502  0.34017074556E+02  0.43557154410E+02  0.84051152926E+02  0.10067996707E+03  0.41800000000E+01 0. -1.
        -11    1    1    2    0    0  0.10594680518E+01 -0.18366115054E+02 -0.20475248197E+02  0.27525850459E+02  0.00000000000E+00 0. -1.
         11    1    1    2    0    0 -0.59005699676E+02 -0.28986175908E+02  0.86674778487E+02  0.10878597434E+03  0.00000000000E+00 0.  1.
</event>
<event>
 7    1  0.2873461E-009  0.4004344E+03  0.7561462E-02  0.1043629E+00
          2   -1    0    0  501    0  0.00000000000E+00  0.00000000000E+00  0.62510442991E+03  0.62510442991E+03  0.00000000000E+00 0. -1.
         -2   -1    0    0    0  501 -0.00000000000E+00 -0.00000000000E+00 -0.31069903447E+03  0.31069903447E+03  0.00000000000E+00 0.  1.
         25    2    1    2    0    0 -0.29348342207E+03 -0.25207616102E+03  0.35034057670E+03  0.53671276547E+03  0.12508862038E+03 0.  0.
          5    1    3    3  502    0 -0.69298935875E+02 -0.13876414713E+03  0.14213315505E+03  0.21042133258E+03  0.41800000000E+01 0.  1.
         -5    1    3    3    0  502 -0.22418448619E+03 -0.11331201389E+03  0.20820742166E+03  0.32629143288E+03  0.41800000000E+01 0.  1.
        -11    1    1    2    0    0  0.17708343715E+03  0.10133993742E+03 -0.42998888944E+02  0.20851194469E+03  0.00000000000E+00 0.  1.
         11    1    1    2    0    0  0.11639998491E+03  0.15073622360E+03  0.70637076732E+01  0.19057875422E+03  0.00000000000E+00 0. -1.
</event>
<event>
 7    1  0.2873461E-009  0.1107839E+03  0.7561462E-02  0.1259125E+00
         -3   -1    0    0    0  501 -0.00000000000E+00  0.00000000000E+00  0.38495525293E+02  0.38495525293E+02  0.00000000000E+00 0.  1.
          3   -1    0    0  501    0  0.00000000000E+00 -0.00000000000E+00 -0.60790518993E+03  0.60790518993E+03  0.00000000000E+00 0. -1.
         25    2    1    2    0    0 -0.56888305442E+02 -0.69888636181E+02 -0.18136486666E+03  0.23803513914E+03  0.12508721695E+03 0.  0.
          5    1    3    3  502    0 -0.34787615537E+02 -0.64677050432E+02 -0.19691039960E+03  0.21020103929E+03  0.41800000000E+01 0. -1.
         -5    1    3    3    0  502 -0.22100689905E+02 -0.52115857487E+01  0.15545532941E+02  0.27834099854E+02  0.41800000000E+01 0. -1.
        -11    1    1    2    0    0 -0.48725874981E+01  0.62534790253E+02 -0.23340884926E+03  0.24168995224E+03  0.00000000000E+00 0. -1.
         11    1    1    2    0    0  0.61760892940E+02  0.73538459279E+01 -0.15463594872E+03  0.16667562384E+03  0.00000000000E+00 0.  1.
</event>
<event>
 7    1  0.2873461E-009  0.2681567E+03  0.7561462E-02  0.1102339E+00
         -1   -1    0    0    0  501 -0.00000000000E+00  0.00000000000E+00  0.58691364426E+02  0.58691364426E+02  0.00000000000E+00 0.  1.
          1   -1    0    0  501    0  0.00000000000E+00 -0.00000000000E+00 -0.25554692497E+04  0.25554692497E+04  0.00000000000E+00 0. -1.
         25    2    1    2    0    0  0.23894115444E+03  0.93195674864E+02 -0.21711472514E+04  0.21898210098E+04  0.12512936734E+03 0.  0.
          5    1    3    3  502    0  0.24174865840E+03  0.97202166118E+02 -0.21658935136E+04  0.21815138916E+04  0.41800000000E+01 0. -1.
         -5    1    3    3    0  502 -0.28075039641E+01 -0.40064912539E+01 -0.52537378331E+01  0.83071181462E+01  0.41800000000E+01 0. -1.
        -11    1    1    2    0    0 -0.49910673037E+02 -0.58844113113E+02 -0.67230178639E+02  0.10234061682E+03  0.00000000000E+00 0.  1.
         11    1    1    2    0    0 -0.18903048140E+03 -0.34351561751E+02 -0.25840045522E+03  0.32199898750E+03  0.00000000000E+00 0. -1.
</event>
<event>
 7    1  0.2873461E-009  0.2430734E+03  0.7561462E-02  0.1117762E+00
          1   -1    0    0  501    0  0.00000000000E+00  0.00000000000E+00  0.32475849756E+03  0.32475849756E+03  0.00000000000E+00 0. -1.
         -1   -1    0    0    0  501 -0.00000000000E+00 -0.00000000000E+00 -0.20226299244E+03  0.20226299244E+03  0.00000000000E+00 0.  1.
         25    2    1    2    0    0 -0.23016515259E+03 -0.27551389308E+02  0.61687980835E+02  0.27052660514E+03  0.12507661888E+03 0.  0.
          5    1    3    3  502    0 -0.14332341076E+03  0.32227325274E+02 -0.25793892905E+01  0.14698410191E+03  0.41800000000E+01 0.  1.
         -5    1    3    3    0  502 -0.86841741838E+02 -0.59778714582E+02  0.64267370126E+02  0.12354250323E+03  0.41800000000E+01 0.  1.
        -11    1    1    2    0    0  0.19348869065E+03  0.33949438435E+02  0.82881034386E+02  0.21321281303E+03  0.00000000000E+00 0. -1.
         11    1    1    2    0    0  0.36676461946E+02 -0.63980491273E+01 -0.22073510097E+02  0.43282071826E+02  0.00000000000E+00 0.  1.
</event>
<event>
 7    1  0.2873461E-009  0.1266696E+03  0.7561462E-02  0.1232483E+00
         -1   -1    0    0    0  501 -0.00000000000E+00  0.00000000000E+00  0.32593626859E+02  0.32593626859E+02  0.00000000000E+00 0.  1.
          1   -1    0    0  501    0  0.00000000000E+00 -0.00000000000E+00 -0.52052778420E+03  0.52052778420E+03  0.00000000000E+00 0. -1.
         25    2    1    2    0    0  0.69546582858E+02 -0.19226518989E+02 -0.25842933233E+03  0.29604030338E+03  0.12509098767E+03 0.  0.
          5    1    3    3  502    0  0.60434803449E+02 -0.70022810632E+02 -0.16226304708E+03  0.18682164844E+03  0.41800000000E+01 0. -1.
         -5    1    3    3    0  502  0.91117794089E+01  0.50796291643E+02 -0.96166285250E+02  0.10921865494E+03  0.41800000000E+01 0. -1.
        -11    1    1    2    0    0 -0.18643209339E+02  0.47299584362E+02 -0.64452664409E+02  0.82091204673E+02  0.00000000000E+00 0.  1.
         11    1    1    2    0    0 -0.50903373519E+02 -0.28073065373E+02 -0.16505216061E+03  0.17498990301E+03  0.00000000000E+00 0. -1.
</event>
<event>
 7    1  0.2873461E-009  0.1768201E+03  0.7561462E-02  0.1170917E+00
         -1   -1    0    0    0  501 -0.00000000000E+00  0.00000000000E+00  0.21609350559E+03  0.21609350559E+03  0.00000000000E+00 0.  1.
          1   -1    0    0  501    0  0.00000000000E+00 -0.00000000000E+00 -0.18072846059E+03  0.18072846059E+03  0.00000000000E+00 0. -1.
         25    2    1    2    0    0  0.12416116320E+03 -0.92756917813E+02  0.74560872436E+02  0.21266689772E+03  0.12509214779E+03 0.  0.
          5    1    3    3  502    0  0.57036934831E+02  0.23425900068E+01  0.77266734389E+02  0.96157788587E+02  0.41800000000E+01 0.  1.
         -5    1    3    3    0  502  0.67124228370E+02 -0.95099507820E+02 -0.27058619532E+01  0.11650910913E+03  0.41800000000E+01 0.  1.
        -11    1    1    2    0    0 -0.12758610511E+02 -0.18505004354E+02 -0.55668987679E+01  0.23156158797E+02  0.00000000000E+00 0. -1.
         11    1    1    2    0    0 -0.11140255269E+03  0.11126192217E+03 -0.33628928672E+02  0.16099890967E+03  0.00000000000E+00 0.  1.
</event>
<event>
 7    1  0.2873461E-009  0.1540323E+03  0.7561462E-02  0.1195604E+00
         -2   -1    0    0    0  501 -0.00000000000E+00  0.00000000000E+00  0.12205384438E+03  0.12205384438E+03  0.00000000000E+00 0.  1.
          2   -1    0    0  501    0  0.00000000000E+00 -0.00000000000E+00 -0.20044023013E+03  0.20044023013E+03  0.00000000000E+00 0. -1.
         25    2    1    2    0    0 -0.83883025163E+02 -0.73880055194E+02 -0.58660327517E+02  0.17771628951E+03  0.12508965212E+03 0.  0.
          5    1    3    3  502    0 -0.93739727370E+02 -0.10485514392E+01 -0.38158618433E+02  0.10130048622E+03  0.41800000000E+01 0.  1.
         -5    1    3    3    0  502  0.98567022075E+01 -0.72831503754E+02 -0.20501709084E+02  0.76415803293E+02  0.41800000000E+01 0.  1.
        -11    1    1    2    0    0  0.29383209165E+02 -0.17510029029E+02  0.73382253463E+01  0.34983190945E+02  0.00000000000E+00 0.  1.
         11    1    1    2    0    0  0.54499815997E+02  0.91390084223E+02 -0.27064283579E+02  0.10979459405E+03  0.00000000000E+00 0. -1.
</event>
<event>
 7    1  0.2873461E-009  0.1148728E+03  0.7561462E-02  0.1251803E+00
          2   -1    0    0  501    0  0.00000000000E+00  0.00000000000E+00  0.96466045462E+03  0.96466045462E+03  0.00000000000E+00 0.  1.
         -2   -1    0    0    0  501 -0.00000000000E+00 -0.00000000000E+00 -0.21402983826E+02  0.21402983826E+02  0.00000000000E+00 0. -1.
         25    2    1    2    0    0  0.53673768634E+01  0.64582940346E+02  0.74314682860E+03  0.75638256328E+03  0.12509040036E+03 0.  0.
          5    1    3    3  502    0 -0.21524973282E+02  0.82123724023E+02  0.29320821200E+03  0.30528045877E+03  0.41800000000E+01 0.  1.
         -5    1    3    3    0  502  0.26892350145E+02 -0.17540783677E+02  0.44993861660E+03  0.45110210451E+03  0.41800000000E+01 0.  1.
        -11    1    1    2    0    0  0.40614193058E+01  0.23465779912E+02  0.50372102000E+02  0.55717920040E+02  0.00000000000E+00 0. -1.
         11    1    1    2    0    0 -0.94287961692E+01 -0.88048720258E+02  0.14973854020E+03  0.17396295513E+03  0.00000000000E+00 0.  1.
</event>
<event>
 7    1  0.2873461E-009  0.1058938E+03  0.7561462E-02  0.1268369E+00
          3   -1    0    0  501    0  0.00000000000E+00  0.00000000000E+00  0.32533996349E+03  0.32533996349E+03  0.00000000000E+00 0. -1.
         -3   -1    0    0    0  501 -0.00000000000E+00 -0.00000000000E+00 -0.43780641261E+02  0.43780641261E+02  0.00000000000E+00 0.  1.
         25    2    1    2    0    0 -0.50297365521E+01 -0.44411432854E+02  0.19642855590E+03  0.23712478610E+03  0.12508522293E+03 0.  0.
          5    1    3    3  502    0  0.56187487371E+01 -0.83057349149E+02  0.86882652433E+02  0.12040000531E+03  0.41800000000E+01 0.  1.
         -5    1    3    3    0  502 -0.10648485289E+02  0.38645916295E+02  0.10954590346E+03  0.11672478079E+03  0.41800000000E+01 0.  1.
        -11    1    1    2    0    0  0.80947074141E+01 -0.21073920188E+02  0.55766868953E+02  0.60162929392E+02  0.00000000000E+00 0. -1.
         11    1    1    2    0    0 -0.30649708620E+01  0.65485353042E+02  0.29363897378E+02  0.71832889255E+02  0.00000000000E+00 0.  1.
</event>
<event>
 7    1  0.2873461E-009  0.1082995E+03  0.7561462E-02  0.1263752E+00
         -1   -1    0    0    0  501 -0.00000000000E+00  0.00000000000E+00  0.55741140084E+02  0.55741140084E+02  0.00000000000E+00 0.  1.
          1   -1    0    0  501    0  0.00000000000E+00 -0.00000000000E+00 -0.21804413864E+03  0.21804413864E+03  0.00000000000E+00 0. -1.
         25    2    1    2    0    0  0.21717469728E+02  0.18338762500E+02 -0.72513359251E+02  0.14735564171E+03  0.12509012420E+03 0.  0.
          5    1    3    3  502    0 -0.51431912480E+02  0.19037715403E+02 -0.30412375396E+02  0.62849512379E+02  0.41800000000E+01 0. -1.
         -5    1    3    3    0  502  0.73149382208E+02 -0.69895290306E+00 -0.42100983855E+02  0.84506129329E+02  0.41800000000E+01 0. -1.
        -11    1    1    2    0    0 -0.34945031420E+01  0.33342822437E+02 -0.26664702176E+02  0.42836452962E+02  0.00000000000E+00 0.  1.
         11    1    1    2    0    0 -0.18222966586E+02 -0.51681584937E+02 -0.63124937131E+02  0.83593184055E+02  0.00000000000E+00 0. -1.
</event>
<event>
 7    1  0.2873461E-009  0.1667761E+03  0.7561462E-02  0.1181252E+00
          2   -1    0    0  501    0  0.00000000000E+00  0.00000000000E+00  0.10109778150E+04  0.10109778150E+04  0.00000000000E+00 0. -1.
         -2   -1    0    0    0  501 -0.00000000000E+00 -0.00000000000E+00 -0.38338111896E+02  0.38338111896E+02  0.00000000000E+00 0.  1.
         25    2    1    2    0    0  0.15619638477E+03 -0.11430146220E+02  0.63142304612E+03  0.66247323686E+03  0.12509103695E+03 0.  0.
          5    1    3    3  502    0  0.10077002710E+03 -0.44058025608E+02  0.53691712051E+03  0.54808135772E+03  0.41800000000E+01 0. -1.
         -5    1    3    3    0  502  0.55426357669E+02  0.32627879388E+02  0.94505925611E+02  0.11439187914E+03  0.41800000000E+01 0. -1.
        -11    1    1    2    0    0 -0.79424254224E+02 -0.80604764577E+01  0.76645877974E+02  0.11066966183E+03  0.00000000000E+00 0.  1.
         11    1    1    2    0    0 -0.76772130542E+02  0.19490622678E+02  0.26457077896E+03  0.27617302816E+03  0.00000000000E+00 0. -1.
</event>
<event>
 7    1  0.2873461E-009  0.1524099E+03  0.7561462E-02  0.1197543E+00
          2   -1    0    0  501    0  0.00000000000E+00  0.00000000000E+00  0.96901093527E+03  0.96901093527E+03  0.00000000000E+00 0. -1.
         -2   -1    0    0    0  501 -0.00000000000E+00 -0.00000000000E+00 -0.32903721638E+02  0.32903721638E+02  0.00000000000E+00 0.  1.
         25    2    1    2    0    0 -0.32028050355E+02 -0.12338205264E+03  0.64802518753E+03  0.67218513147E+03  0.12508908976E+03 0.  0.
          5    1    3    3  502    0 -0.66829878789E+02 -0.11360020485E+03  0.58243266226E+03  0.59717377513E+03  0.41800000000E+01 0. -1.
         -5    1    3    3    0  502  0.34801828434E+02 -0.97818477894E+01  0.65592525271E+02  0.75011356340E+02  0.41800000000E+01 0. -1.
        -11    1    1    2    0    0 -0.94390339096E+01  0.60543415256E+02  0.21948534209E+03  0.22787807241E+03  0.00000000000E+00 0. -1.
         11    1    1    2    0    0  0.41467084265E+02  0.62838637386E+02  0.68596684010E+02  0.10185145302E+03  0.00000000000E+00 0.  1.
</event>
<event>
 7    1  0.2873461E-009  0.1188560E+03  0.7561462E-02  0.1244996E+00
          1   -1    0    0  501    0  0.00000000000E+00  0.00000000000E+00  0.38871411924E+03  0.38871411924E+03  0.00000000000E+00 0. -1.
         -1   -1    0    0    0  501 -0.00000000000E+00 -0.00000000000E+00 -0.38192940513E+02  0.38192940513E+02  0.00000000000E+00 0.  1.
         25    2    1    2    0    0 -0.78070709231E+00  0.51753518563E+02  0.23288841324E+03  0.26937631293E+03  0.12509016252E+03 0.  0.
          5    1    3    3  502    0 -0.30750944814E+02  0.83530151073E+02  0.13092760797E+03  0.15837429613E+03  0.41800000000E+01 0.  1.
         -5    1    3    3    0  502  0.29970237721E+02 -0.31776632510E+02  0.10196080527E+03  0.11100201680E+03  0.41800000000E+01 0.  1.
        -11    1    1    2    0    0  0.14973837817E+02 -0.75547887011E+02  0.88729234711E+02  0.11749287699E+03  0.00000000000E+00 0.  1.
         11    1    1    2    0    0 -0.14193130724E+02  0.23794368448E+02  0.28903530778E+02  0.40037869837E+02  0.00000000000E+00 0. -1.
</event>
<event>
 7    1  0.2873461E-009  0.1102967E+03  0.7561462E-02  0.1260022E+00
         -2   -1    0    0    0  501 -0.00000000000E+00  0.00000000000E+00  0.13732995921E+02  0.13732995921E+02  0.00000000000E+00 0.  1.
          2   -1    0    0  501    0  0.00000000000E+00 -0.00000000000E+00 -0.99389748306E+03  0.99389748306E+03  0.00000000000E+00 0. -1.
         25    2    1    2    0    0 -0.38895387802E+02 -0.68139515291E+01 -0.65133606252E+03  0.66441376153E+03  0.12509076324E+03 0.  0.
          5    1    3    3  502    0 -0.44322674069E+02  0.50758123836E+02 -0.44477619878E+03  0.44987134380E+03  0.41800000000E+01 0.  1.
         -5    1    3    3    0  502  0.54272862671E+01 -0.57572075365E+02 -0.20655986374E+03  0.21454241773E+03  0.41800000000E+01 0.  1.
        -11    1    1    2    0    0 -0.14858948819E+02 -0.27548680075E+02 -0.15306332291E+03  0.15623091549E+03  0.00000000000E+00 0.  1.
         11    1    1    2    0    0  0.53754336621E+02  0.34362631604E+02 -0.17576510171E+03  0.18698580196E+03  0.00000000000E+00 0. -1.
</event>
<event>
 7    1  0.2873461E-009  0.2228983E+03  0.7561462E-02  0.1131741E+00
         -2   -1    0    0    0  501 -0.00000000000E+00  0.00000000000E+00  0.63044685223E+02  0.63044685223E+02  0.00000000000E+00 0.  1.
          2   -1    0    0  501    0  0.00000000000E+00 -0.00000000000E+00 -0.95233275664E+03  0.95233275664E+03  0.00000000000E+00 0. -1.
         25    2    1    2    0    0 -0.35720403810E+02  0.21210581732E+03 -0.37330416677E+03  0.44863009119E+03  0.12509249700E+03 0.  0.
          5    1    3    3  502    0 -0.41555337794E+02  0.70871452347E+02 -0.24220765159E+03  0.25579606672E+03  0.41800000000E+01 0. -1.
         -5    1    3    3    0  502  0.58349339847E+01  0.14123436497E+03 -0.13109651517E+03  0.19283402447E+03  0.41800000000E+01 0. -1.
        -11    1    1    2    0    0 -0.14921112014E+02 -0.58826203706E+02 -0.23483240358E+03  0.24254776766E+03  0.00000000000E+00 0.  1.
         11    1    1    2    0    0  0.50641515823E+02 -0.15327961361E+03 -0.28115150107E+03  0.32419958302E+03  0.00000000000E+00 0. -1.
</event>
<event>
 7    1  0.2873461E-009  0.9011770E+02  0.7561462E-02  0.1302567E+00
         -2   -1    0    0    0  501 -0.00000000000E+00  0.00000000000E+00  0.67712102888E+02  0.67712102888E+02  0.00000000000E+00 0. -1.
          2   -1    0    0  501    0  0.00000000000E+00 -0.00000000000E+00 -0.22756504242E+03  0.22756504242E+03  0.00000000000E+00 0.  1.
         25    2    1    2    0    0  0.22738167936E+02 -0.23625470851E+02 -0.12727252603E+03  0.18144124749E+03  0.12508974081E+03 0.  0.
          5    1    3    3  502    0 -0.38675425434E+02 -0.14990561195E+02 -0.10892689677E+03  0.11663209977E+03  0.41800000000E+01 0. -1.
         -5    1    3    3    0  502  0.61413593371E+02 -0.86349096559E+01 -0.18345629266E+02  0.64809147723E+02  0.41800000000E+01 0. -1.
        -11    1    1    2    0    0 -0.72866495171E+01 -0.24647677931E+02  0.25871812269E+02  0.36468533816E+02  0.00000000000E+00 0. -1.
         11    1    1    2    0    0 -0.15451518419E+02  0.48273148783E+02 -0.58452225763E+02  0.77367363995E+02  0.00000000000E+00 0.  1.
</event>
<event>
 7    1  0.2873461E-009  0.1296295E+03  0.7561462E-02  0.1228006E+00
          2   -1    0    0  501    0  0.00000000000E+00  0.00000000000E+00  0.60077275315E+03  0.60077275315E+03  0.00000000000E+00 0.  1.
         -2   -1    0    0    0  501 -0.00000000000E+00 -0.00000000000E+00 -0.41804713171E+02  0.41804713171E+02  0.00000000000E+00 0. -1.
         25    2    1    2    0    0 -0.89097013409E+02  0.39718334056E+02  0.17462809831E+03  0.23592365922E+03  0.12509666824E+03 0.  0.
          5    1    3    3  502    0 -0.12103529991E+03  0.28605997974E+02  0.13322586198E+03  0.18230318057E+03  0.41800000000E+01 0.  1.
         -5    1    3    3    0  502  0.31938286505E+02  0.11112336083E+02  0.41402236332E+02  0.53620478657E+02  0.41800000000E+01 0.  1.
        -11    1    1    2    0    0  0.11339391241E+02  0.33931843404E+01 -0.33189630517E+00  0.11840846627E+02  0.00000000000E+00 0. -1.
         11    1    1    2    0    0  0.77757622168E+02 -0.43111518397E+02  0.38467183798E+03  0.39481296047E+03  0.00000000000E+00 0.  1.
</event>
<event>
 7    1  0.2873461E-009  0.7621991E+02  0.7561462E-02  0.1340134E+00
          3   -1    0    0  501    0  0.00000000000E+00  0.00000000000E+00  0.96048208522E+03  0.96048208522E+03  0.00000000000E+00 0. -1.
         -3   -1    0    0    0  501 -0.00000000000E+00 -0.00000000000E+00 -0.15541070667E+02  0.15541070667E+02  0.00000000000E+00 0.  1.
         25    2    1    2    0    0 -0.52707435634E+02  0.80137478628E+01  0.59035936220E+03  0.60581705670E+03  0.12509130957E+03 0.  0.
          5    1    3    3  502    0 -0.49162454606E+02  0.11621957902E+02  0.59539297328E+03  0.59754688676E+03  0.41800000000E+01 0.  1.
         -5    1    3    3    0  502 -0.35449810278E+01 -0.36082100394E+01 -0.50336110871E+01  0.82701699349E+01  0.41800000000E+01 0.  1.
        -11    1    1    2    0    0  0.53847588561E+02 -0.37538717057E+02  0.30893192809E+03  0.31582852035E+03  0.00000000000E+00 0.  1.
         11    1    1    2    0    0 -0.11401529268E+01  0.29524969194E+02  0.45649724266E+02  0.54377578837E+02  0.00000000000E+00 0. -1.
</event>
<event>
 7    1  0.2873461E-009  0.1127193E+03  0.7561462E-02  0.1255615E+00
         -2   -1    0    0    0  501 -0.00000000000E+00  0.00000000000E+00  0.69752195833E+02  0.69752195833E+02  0.00000000000E+00 0.  1.
          2   -1    0    0  501    0  0.00000000000E+00 -0.00000000000E+00 -0.33010867148E+03  0.33010867148E+03  0.00000000000E+00 0. -1.
         25    2    1    2    0    0 -0.33277414481E+02  0.19764287056E+02 -0.27014985279E+03  0.30021125752E+03  0.12509133791E+03 0.  0.
          5    1    3    3  502    0  0.39206291193E+02  0.39118184159E+02 -0.10552466179E+03  0.11924886686E+03  0.41800000000E+01 0. -1.
         -5    1    3    3    0  502 -0.72483705674E+02 -0.19353897103E+02 -0.16462519100E+03  0.18096239065E+03  0.41800000000E+01 0. -1.
        -11    1    1    2    0    0  0.41387730428E+02  0.25606016326E+02  0.19705374983E+02  0.52506324431E+02  0.00000000000E+00 0.  1.
         11    1    1    2    0    0 -0.81103159475E+01 -0.45370303381E+02 -0.99119978382E+01  0.47143285363E+02  0.00000000000E+00 0. -1.
</event>
<event>
 6    1  0.2873461E-009  0.3325349E+03  0.7561462E-02  0.1070021E+00
         -2   -1    0    0    0  501 -0.00000000000E+00  0.00000000000E+00  0.64011601280E+02  0.64011601280E+02  0.00000000000E+00 0.  1.
          2   -1    0    0  501    0  0.00000000000E+00 -0.00000000000E+00 -0.17762544796E+04  0.17762544796E+04  0.00000000000E+00 0. -1.
          5    1    1    2  502    0  0.12020095868E+03 -0.12282356229E+03 -0.44593955191E+03  0.47792620171E+03  0.41800000000E+01 0.  1.
         -5    1    1    2    0  502  0.59058901136E+01 -0.17153186131E+03 -0.40936110195E+03  0.44390544395E+03  0.41800000000E+01 0.  1.
        -11    1    1    2    0    0 -0.69449650353E+02  0.12635363701E+03 -0.49220307057E+03  0.51288630144E+03  0.00000000000E+00 0. -1.
         11    1    1    2    0    0 -0.56657198441E+02  0.16800178660E+03 -0.36473915390E+03  0.40554813380E+03  0.00000000000E+00 0.  1.
</event>
<event>
 7    1  0.2873461E-009  0.1039039E+03  0.7561462E-02  0.1272294E+00
          1   -1    0    0  501    0  0.00000000000E+00  0.00000000000E+00  0.22219108627E+02  0.22219108627E+02  0.00000000000E+00 0. -1.
         -1   -1    0    0    0  501 -0.00000000000E+00 -0.00000000000E+00 -0.97504504005E+03  0.97504504005E+03  0.00000000000E+00 0.  1.
         25    2    1    2    0    0 -0.39012476180E+02 -0.37789678859E+02 -0.79597360034E+03  0.80757138928E+03  0.12509014042E+03 0.  0.
          5    1    3    3  502    0 -0.69397426863E+02 -0.13263528125E+02 -0.70420616889E+03  0.70775400016E+03  0.41800000000E+01 0.  1.
         -5    1    3    3    0  502  0.30384950684E+02 -0.24526150735E+02 -0.91767431442E+02  0.99817389123E+02  0.41800000000E+01 0.  1.
        -11    1    1    2    0    0  0.42011693831E+02 -0.15205814829E+02 -0.11061745803E+03  0.11929971184E+03  0.00000000000E+00 0.  1.
         11    1    1    2    0    0 -0.29992176517E+01  0.52995493689E+02 -0.46234873053E+02  0.70393047555E+02  0.00000000000E+00 0. -1.
</event>
<event>
 7    1  0.2873461E-009  0.1659222E+03  0.7561462E-02  0.1182168E+00
          2   -1    0    0  501    0  0.00000000000E+00  0.00000000000E+00  0.15253550719E+04  0.15253550719E+04  0.00000000000E+00 0. -1.
         -2   -1    0    0    0  501 -0.00000000000E+00 -0.00000000000E+00 -0.19775270663E+02  0.19775270663E+02  0.00000000000E+00 0.  1.
         25    2    1    2    0    0 -0.86791560984E+00 -0.12987440195E+03  0.96853810922E+03  0.98518083226E+03  0.12508832752E+03 0.  0.
          5    1    3    3  502    0 -0.43553629054E+02 -0.66319353673E+01  0.15309576758E+03  0.15936338231E+03  0.41800000000E+01 0. -1.
         -5    1    3    3    0  502  0.42685713444E+02 -0.12324246658E+03  0.81544234164E+03  0.82581744995E+03  0.41800000000E+01 0. -1.
        -11    1    1    2    0    0 -0.17599466404E+02 -0.70320018195E+01  0.43742620613E+02  0.47671869330E+02  0.00000000000E+00 0.  1.
         11    1    1    2    0    0  0.18467382014E+02  0.13690640377E+03  0.49329907139E+03  0.51227764096E+03  0.00000000000E+00 0. -1.
</event>
<event>
 7    1  0.2873461E-009  0.8439206E+02  0.7561462E-02  0.1317030E+00
         -2   -1    0    0    0  501 -0.00000000000E+00  0.00000000000E+00  0.17772815199E+02  0.17772815199E+02  0.00000000000E+00 0. -1.
          2   -1    0    0  501    0  0.00000000000E+00 -0.00000000000E+00 -0.82211586421E+03  0.82211586421E+03  0.00000000000E+00 0.  1.
         25    2    1    2    0    0 -0.54640412090E+01 -0.97394949415E+01 -0.63274661730E+03  0.64508865322E+03  0.12508547199E+03 0.  0.
          5    1    3    3  502    0  0.34120033643E+02  0.10177560670E+02 -0.54968951992E+03  0.55085733194E+03  0.41800000000E+01 0.  1.
         -5    1    3    3    0  502 -0.39584074852E+02 -0.19917055611E+02 -0.83057097372E+02  0.94231321279E+02  0.41800000000E+01 0.  1.
        -11    1    1    2    0    0 -0.25084459925E+02  0.38838797203E+02 -0.61832850227E+02  0.77207406803E+02  0.00000000000E+00 0. -1.
         11    1    1    2    0    0  0.30548501134E+02 -0.29099302262E+02 -0.10976358149E+03  0.11759261939E+03  0.00000000000E+00 0.  1.
</event>
<event>
 7    1  0.2873461E-009  0.1081203E+03  0.7561462E-02  0.1264091E+00
          1   -1    0    0  501    0  0.00000000000E+00  0.00000000000E+00  0.13788711517E+03  0.13788711517E+03  0.00000000000E+00 0. -1.
         -1   -1    0    0    0  501 -0.00000000000E+00 -0.00000000000E+00 -0.92939385446E+02  0.92939385446E+02  0.00000000000E+00 0.  1.
         25    2    1    2    0    0  0.61036983801E+01  0.38945570390E+02  0.29670591802E+02  0.13446883154E+03  0.12509000780E+03 0.  0.
          5    1    3    3  502    0  0.60539679282E+02  0.32755278974E+02 -0.55837141206E+01  0.69185340438E+02  0.41800000000E+01 0. -1.
         -5    1    3    3    0  502 -0.54435980902E+02  0.61902914154E+01  0.35254305923E+02  0.65283491103E+02  0.41800000000E+01 0. -1.
        -11    1    1    2    0    0  0.36597485801E+02 -0.32892801089E+02 -0.34747719425E+01  0.49329366208E+02  0.00000000000E+00 0. -1.
         11    1    1    2    0    0 -0.42701184181E+02 -0.60527693004E+01  0.18751909860E+02  0.47028302862E+02  0.00000000000E+00 0.  1.
</event>
<event>
 7    1  0.2873461E-009  0.1571299E+03  0.7561462E-02  0.1191976E+00
          1   -1    0    0  501    0  0.00000000000E+00  0.00000000000E+00  0.67289226357E+03  0.67289226357E+03  0.00000000000E+00 0. -1.
         -1   -1    0    0    0  501 -0.00000000000E+00 -0.00000000000E+00 -0.42046302529E+02  0.42046302529E+02  0.00000000000E+00 0.  1.
         25    2    1    2    0    0 -0.71788835341E+02  0.93838259798E+02  0.43023599952E+03  0.46336840767E+03  0.12509200638E+03 0.  0.
          5    1    3    3  502    0 -0.18835266379E+02 -0.30852227601E+02  0.83469491260E+02  0.91056331898E+02  0.41800000000E+01 0.  1.
         -5    1    3    3    0  502 -0.52953568962E+02  0.12469048740E+03  0.34676650827E+03  0.37231207578E+03  0.41800000000E+01 0.  1.
        -11    1    1    2    0    0 -0.16867750098E+02 -0.70776221233E+01  0.66141210069E+02  0.68624145880E+02  0.00000000000E+00 0. -1.
         11    1    1    2    0    0  0.88656585438E+02 -0.86760637675E+02  0.13446875145E+03  0.18294601255E+03  0.00000000000E+00 0.  1.
</event>
<event>
 7    1  0.2873461E-009  0.1275299E+03  0.7561462E-02  0.1231168E+00
          1   -1    0    0  501    0  0.00000000000E+00  0.00000000000E+00  0.19027902504E+03  0.19027902504E+03  0.00000000000E+00 0. -1.
         -1   -1    0    0    0  501 -0.00000000000E+00 -0.00000000000E+00 -0.21147243680E+03  0.21147243680E+03  0.00000000000E+00 0.  1.
         25    2    1    2    0    0 -0.33509893750E+02  0.11222658577E+03 -0.13262876986E+03  0.21669001388E+03  0.12508577852E+03 0.  0.
          5    1    3    3  502    0  0.10752590026E+02  0.60722426692E+02  0.61660130070E+01  0.62115403983E+02  0.41800000000E+01 0. -1.
         -5    1    3    3    0  502 -0.44262483777E+02  0.51504159077E+02 -0.13879478287E+03  0.15457460989E+03  0.41800000000E+01 0. -1.
        -11    1    1    2    0    0  0.85047993503E+01 -0.93716043097E+02  0.31415769976E+02  0.99206748505E+02  0.00000000000E+00 0.  1.
         11    1    1    2    0    0  0.25005094400E+02 -0.18510542671E+02  0.80019588121E+02  0.85854699458E+02  0.00000000000E+00 0. -1.
</event>
<event>
 7    1  0.2873461E-009  0.1154224E+03  0.7561462E-02  0.1250845E+00
          2   -1    0    0  501    0  0.00000000000E+00  0.00000000000E+00  0.13550011814E+03  0.13550011814E+03  0.00000000000E+00 0. -1.
         -2   -1    0    0    0  501 -0.00000000000E+00 -0.00000000000E+00 -0.14707445565E+03  0.14707445565E+03  0.00000000000E+00 0.  1.
         25    2    1    2    0    0  0.30435434957E+02  0.68457799681E+02 -0.55472403811E+02  0.15600577406E+03  0.12509127834E+03 0.  0.
          5    1    3    3  502    0  0.49327194440E+02 -0.11514890984E+02  0.88208972557E+01  0.51585322080E+02  0.41800000000E+01 0.  1.
         -5    1    3    3    0  502 -0.18891759484E+02  0.79972690665E+02 -0.64293301067E+02  0.10442045197E+03  0.41800000000E+01 0.  1.
        -11    1    1    2    0    0  0.19260693485E+02 -0.26122135149E+02  0.51468827200E+02  0.60847189184E+02  0.00000000000E+00 0. -1.
         11    1    1    2    0    0 -0.49696128442E+02 -0.42335664532E+02 -0.75707609015E+01  0.65721610556E+02  0.00000000000E+00 0.  1.
</event>
<event>
 7    1  0.2873461E-009  0.1987974E+03  0.7561462E-02  0.1150758E+00
          2   -1    0    0  501    0  0.00000000000E+00  0.00000000000E+00  0.72628495544E+03  0.72628495544E+03  0.00000000000E+00 0. -1.
         -2   -1    0    0    0  501 -0.00000000000E+00 -0.00000000000E+00 -0.95272517108E+02  0.95272517108E+02  0.00000000000E+00 0.  1.
         25    2    1    2    0    0 -0.15363002429E+03  0.85479437881E+02  0.71581321329E+02  0.22733358626E+03  0.12509098775E+03 0.  0.
          5    1    3    3  502    0  0.13455701535E+02 -0.22646788475E+01 -0.14070279253E+02  0.20040704388E+02  0.41800000000E+01 0. -1.
         -5    1    3    3    0  502 -0.16708572582E+03  0.87744116728E+02  0.85651600582E+02  0.20729288187E+03  0.41800000000E+01 0. -1.
        -11    1    1    2    0    0  0.15997657914E+03 -0.64250888023E+02  0.53033319383E+03  0.55765040928E+03  0.00000000000E+00 0.  1.
         11    1    1    2    0    0 -0.63465548581E+01 -0.21228549858E+02  0.29097923168E+02  0.36573477007E+02  0.00000000000E+00 0. -1.
</event>
<event>
 7    1  0.2873461E-009  0.1567542E+03  0.7561462E-02  0.1192411E+00
          2   -1    0    0  501    0  0.00000000000E+00  0.00000000000E+00  0.12801970562E+03  0.12801970562E+03  0.00000000000E+00 0. -1.
         -2   -1    0    0    0  501 -0.00000000000E+00 -0.00000000000E+00 -0.23674270086E+03  0.23674270086E+03  0.00000000000E+00 0.  1.
         25    2    1    2    0    0  0.11824351442E+03  0.17018132903E+02  0.10804067920E+02  0.17332147144E+03  0.12510978790E+03 0.  0.
          5    1    3    3  502    0  0.13844997518E+03  0.37722544375E+02  0.12060458201E+02  0.14406357289E+03  0.41800000000E+01 0. -1.
         -5    1    3    3    0  502 -0.20206460761E+02 -0.20704411472E+02 -0.12563902808E+01  0.29257898548E+02  0.41800000000E+01 0. -1.
        -11    1    1    2    0    0 -0.38507151153E+02 -0.42174146834E+02 -0.81676486988E+02  0.99661968061E+02  0.00000000000E+00 0.  1.
         11    1    1    2    0    0 -0.79736363271E+02  0.25156013931E+02 -0.37850576171E+02  0.91778966986E+02  0.00000000000E+00 0. -1.
</event>
<event>
 7    1  0.2873461E-009  0.1095680E+03  0.7561462E-02  0.1261372E+00
         -2   -1    0    0    0  501 -0.00000000000E+00  0.00000000000E+00  0.49306857195E+02  0.49306857195E+02  0.00000000000E+00 0.  1.
          2   -1    0    0  501    0  0.00000000000E+00 -0.00000000000E+00 -0.26369331786E+03  0.26369331786E+03  0.00000000000E+00 0. -1.
         25    2    1    2    0    0  0.11684085282E+02  0.12560109333E+02 -0.81461177956E+02  0.15025085757E+03  0.12508046407E+03 0.  0.
          5    1    3    3  502    0 -0.56108527380E+02 -0.65910250434E+00 -0.28251279942E+02  0.62961960573E+02  0.41800000000E+01 0.  1.
         -5    1    3    3    0  502  0.67792612662E+02  0.13219211837E+02 -0.53209898014E+02  0.87288897002E+02  0.41800000000E+01 0.  1.
        -11    1    1    2    0    0 -0.14825078171E+02  0.39152043544E+02 -0.65139966469E+02  0.77433072314E+02  0.00000000000E+00 0. -1.
         11    1    1    2    0    0  0.31409928887E+01 -0.51712152877E+02 -0.67785316240E+02  0.85316245166E+02  0.00000000000E+00 0.  1.
</event>
<event>
 7    1  0.2873461E-009  0.8488479E+02  0.7561462E-02  0.1315734E+00
         -2   -1    0    0    0  501 -0.00000000000E+00  0.00000000000E+00  0.90204294819E+02  0.90204294819E+02  0.00000000000E+00 0.  1.
          2   -1    0    0  501    0  0.00000000000E+00 -0.00000000000E+00 -0.14782655500E+03  0.14782655500E+03  0.00000000000E+00 0. -1.
         25    2    1    2    0    0 -0.75281087415E+01  0.36761172725E+02 -0.69236812176E+01  0.13078258661E+03  0.12509233133E+03 0.  0.
          5    1    3    3  502    0  0.42995146687E+02 -0.90410120457E+01 -0.35584305903E+02  0.56692484193E+02  0.41800000000E+01 0.  1.
         -5    1    3    3    0  502 -0.50523255428E+02  0.45802184770E+02  0.28660624685E+02  0.74090102417E+02  0.41800000000E+01 0.  1.
        -11    1    1    2    0    0  0.50918504874E+00 -0.45837296982E+02  0.87798054187E+01  0.46673354788E+02  0.00000000000E+00 0.  1.
         11    1    1    2    0    0  0.70189236927E+01  0.90761242571E+01 -0.59478384378E+02  0.60574908415E+02  0.00000000000E+00 0. -1.
</event>
<event>
 7    1  0.2873461E-009  0.2536201E+03  0.7561462E-02  0.1111038E+00
          1   -1    0    0  501    0  0.00000000000E+00  0.00000000000E+00  0.46751086344E+03  0.46751086344E+03  0.00000000000E+00 0. -1.
         -1   -1    0    0    0  501 -0.00000000000E+00 -0.00000000000E+00 -0.16067333021E+03  0.16067333021E+03  0.00000000000E+00 0.  1.
         25    2    1    2    0    0 -0.23082027525E+03 -0.13526972077E+02  0.27448112038E+03  0.38006333141E+03  0.12508905628E+03 0.  0.
          5    1    3    3  502    0 -0.24464694117E+03 -0.22451240535E+02  0.26016815223E+03  0.35785628939E+03  0.41800000000E+01 0. -1.
         -5    1    3    3    0  502  0.13826665919E+02  0.89242684584E+01  0.14312968151E+02  0.22207042019E+02  0.41800000000E+01 0. -1.
        -11    1    1    2    0    0  0.90766838475E+02 -0.33591757375E+02 -0.31972493845E+00  0.96783920950E+02  0.00000000000E+00 0. -1.
         11    1    1    2    0    0  0.14005343678E+03  0.47118729452E+02  0.32676137795E+02  0.15133694129E+03  0.00000000000E+00 0.  1.
</event>
<event>
 7    1  0.2873461E-009  0.6667587E+02  0.7561462E-02  0.1371776E+00
         -1   -1    0    0    0  501 -0.00000000000E+00  0.00000000000E+00  0.94146292419E+02  0.94146292419E+02  0.00000000000E+00 0.  1.
          1   -1    0    0  501    0  0.00000000000E+00 -0.00000000000E+00 -0.14538985671E+03  0.14538985671E+03  0.00000000000E+00 0. -1.
         25    2    1    2    0    0  0.24710263781E+02 -0.27459711620E+02 -0.64596801443E+01  0.13059087996E+03  0.12509043753E+03 0.  0.
          5    1    3    3  502    0 -0.80765240163E+01  0.28690668042E+02 -0.45559494171E+02  0.54603338561E+02  0.41800000000E+01 0.  1.
         -5    1    3    3    0  502  0.32786787797E+02 -0.56150379662E+02  0.39099814026E+02  0.75987541394E+02  0.41800000000E+01 0.  1.
        -11    1    1    2    0    0 -0.10139050784E+02  0.18200327780E+02  0.27572035523E+02  0.34558203440E+02  0.00000000000E+00 0.  1.
         11    1    1    2    0    0 -0.14571212997E+02  0.92593838396E+01 -0.72355919666E+02  0.74387065731E+02  0.00000000000E+00 0. -1.
</event>
<event>
 7    1  0.2873461E-009  0.9478750E+02  0.7561462E-02  0.1291655E+00
         -2   -1    0    0    0  501 -0.00000000000E+00  0.00000000000E+00  0.50976930260E+02  0.50976930260E+02  0.00000000000E+00 0.  1.
          2   -1    0    0  501    0  0.00000000000E+00 -0.00000000000E+00 -0.26603947786E+03  0.26603947786E+03  0.00000000000E+00 0. -1.
         25    2    1    2    0    0 -0.20279852955E+02 -0.27313626590E+02 -0.70768848578E+02  0.14769075926E+03  0.12508806422E+03 0.  0.
          5    1    3    3  502    0  0.36547907014E+02  0.26956977229E+01  0.15521757161E+02  0.40017666582E+02  0.41800000000E+01 0.  1.
         -5    1    3    3    0  502 -0.56827759969E+02 -0.30009324313E+02 -0.86290605739E+02  0.10767309268E+03  0.41800000000E+01 0.  1.
        -11    1    1    2    0    0 -0.27609091949E+02  0.29430942518E+02 -0.73083291515E+02  0.83484189128E+02  0.00000000000E+00 0.  1.
         11    1    1    2    0    0  0.47888944903E+02 -0.21173159278E+01 -0.71210407504E+02  0.85841459724E+02  0.00000000000E+00 0. -1.
</event>
<event>
 7    1  0.2873461E-009  0.1755489E+03  0.7561462E-02  0.1172182E+00
         -1   -1    0    0    0  501 -0.00000000000E+00  0.00000000000E+00  0.21262688079E+03  0.21262688079E+03  0.00000000000E+00 0.  1.
          1   -1    0    0  501    0  0.00000000000E+00 -0.00000000000E+00 -0.19810680515E+03  0.19810680515E+03  0.00000000000E+00 0. -1.
         25    2    1    2    0    0 -0.15531401649E+03 -0.26629036972E+01  0.85432676315E+02  0.21696941299E+03  0.12508976464E+03 0.  0.
          5    1    3    3  502    0 -0.90403501391E+02  0.44437227426E+02  0.15375424657E+01  0.10083301385E+03  0.41800000000E+01 0. -1.
         -5    1    3    3    0  502 -0.64910515096E+02 -0.47100131123E+02  0.83895133849E+02  0.11613639914E+03  0.41800000000E+01 0. -1.
        -11    1    1    2    0    0  0.88031566944E+02  0.35722559087E+02 -0.70158357618E+01  0.95262164356E+02  0.00000000000E+00 0.  1.
         11    1    1    2    0    0  0.67282449542E+02 -0.33059655390E+02 -0.63896764914E+02  0.98502108594E+02  0.00000000000E+00 0. -1.
</event>
<event>
 7    1  0.4247958E-009  0.1729251E+03  0.7561462E-02  0.1174831E+00
          1   -1    0    0  501    0  0.00000000000E+00  0.00000000000E+00  0.20317766386E+04  0.20317766386E+04  0.00000000000E+00 0.  1.
         -1   -1    0    0    0  501 -0.00000000000E+00 -0.00000000000E+00 -0.19469497226E+02  0.19469497226E+02  0.00000000000E+00 0. -1.
         25    2    1    2    0    0  0.14385004044E+03  0.22930548753E+02  0.14666956210E+04  0.14792099523E+04  0.12508954380E+03 0.  0.
          5    1    3    3  502    0  0.43098640591E+02  0.56340419286E+02  0.33012510869E+03  0.33768594205E+03  0.41800000000E+01 0.  1.
         -5    1    3    3    0  502  0.10075139985E+03 -0.33409870532E+02  0.11365705123E+04  0.11415240102E+04  0.41800000000E+01 0.  1.
        -11    1    1    2    0    0 -0.12065955408E+03  0.17531999966E+02  0.33997219577E+03  0.36117474014E+03  0.00000000000E+00 0.  1.
         11    1    1    2    0    0 -0.23190486363E+02 -0.40462548719E+02  0.20563932452E+03  0.21086144336E+03  0.00000000000E+00 0. -1.
</event>
<event>
 7    1  0.2873461E-009  0.8539613E+02  0.7561462E-02  0.1314400E+00
          2   -1    0    0  501    0  0.00000000000E+00  0.00000000000E+00  0.70879896601E+03  0.70879896601E+03  0.00000000000E+00 0.  1.
         -2   -1    0    0    0  501 -0.00000000000E+00 -0.00000000000E+00 -0.20293981160E+02  0.20293981160E+02  0.00000000000E+00 0. -1.
         25    2    1    2    0    0 -0.45226264766E+00  0.38548794745E+00  0.55530923749E+03  0.56922482751E+03  0.12509277303E+03 0.  0.
          5    1    3    3  502    0 -0.29211532514E+02 -0.29851343314E+02  0.48878800063E+03  0.49058699360E+03  0.41800000000E+01 0.  1.
         -5    1    3    3    0  502  0.28759269866E+02  0.30236831261E+02  0.66521236862E+02  0.78637833907E+02  0.41800000000E+01 0.  1.
        -11    1    1    2    0    0  0.12716454044E+02 -0.41797476439E+02  0.52145894074E+02  0.68028902011E+02  0.00000000000E+00 0. -1.
         11    1    1    2    0    0 -0.12264191396E+02  0.41411988491E+02  0.81049853283E+02  0.91839217650E+02  0.00000000000E+00 0.  1.
</event>
<event>
 7    1  0.2873461E-009  0.2082862E+03  0.7561462E-02  0.1142930E+00
         -2   -1    0    0    0  501 -0.00000000000E+00  0.00000000000E+00  0.44557584135E+02  0.44557584135E+02  0.00000000000E+00 0.  1.
          2   -1    0    0  501    0  0.00000000000E+00 -0.00000000000E+00 -0.10429008744E+04  0.10429008744E+04  0.00000000000E+00 0. -1.
         25    2    1    2    0    0 -0.11588654723E+03  0.13489862500E+03 -0.38226945236E+03  0.43978319940E+03  0.12510794303E+03 0.  0.
          5    1    3    3  502    0 -0.14256583116E+03  0.11526989397E+03 -0.31010012839E+03  0.36026618867E+03  0.41800000000E+01 0.  1.
         -5    1    3    3    0  502  0.26679283930E+02  0.19628731027E+02 -0.72169323964E+02  0.79517010722E+02  0.41800000000E+01 0.  1.
        -11    1    1    2    0    0  0.83536672803E+02 -0.14375415356E+03 -0.51722815334E+03  0.54329420664E+03  0.00000000000E+00 0.  1.
         11    1    1    2    0    0  0.32349874432E+02  0.88555285631E+01 -0.98845684603E+02  0.10438105253E+03  0.00000000000E+00 0. -1.
</event>
<event>
 7    1  0.2873461E-009  0.1468141E+03  0.7561462E-02  0.1204443E+00
          2   -1    0    0  501    0  0.00000000000E+00  0.00000000000E+00  0.85818174803E+02  0.85818174803E+02  0.00000000000E+00 0. -1.
         -2   -1    0    0    0  501 -0.00000000000E+00 -0.00000000000E+00 -0.30099316671E+03  0.30099316671E+03  0.00000000000E+00 0.  1.
         25    2    1    2    0    0 -0.67485673882E+02  0.95969940491E+02 -0.13852942769E+03  0.22045883554E+03  0.12508856931E+03 0.  0.
          5    1    3    3  502    0 -0.34441645423E+02  0.12349028060E+03 -0.10511817126E+03  0.16584142629E+03  0.41800000000E+01 0.  1.
         -5    1    3    3    0  502 -0.33044028460E+02 -0.27520340113E+02 -0.33411256434E+02  0.54617409251E+02  0.41800000000E+01 0.  1.
        -11    1    1    2    0    0  0.49971755893E+02 -0.91209159857E+02 -0.18749032513E+02  0.10567787587E+03  0.00000000000E+00 0. -1.
         11    1    1    2    0    0  0.17513917989E+02 -0.47607806344E+01 -0.57896531697E+02  0.60674630103E+02  0.00000000000E+00 0.  1.
</event>
<event>
 7    1  0.2873461E-009  0.7981019E+02  0.7561462E-02  0.1329591E+00
         -2   -1    0    0    0  501 -0.00000000000E+00  0.00000000000E+00  0.12160740458E+02  0.12160740458E+02  0.00000000000E+00 0. -1.
          2   -1    0    0  501    0  0.00000000000E+00 -0.00000000000E+00 -0.11857464984E+04  0.11857464984E+04  0.00000000000E+00 0.  1.
         25    2    1    2    0    0 -0.14813595573E+02 -0.20536539504E+02 -0.87802544361E+03  0.88725300408E+03  0.12509205236E+03 0.  0.
          5    1    3    3  502    0  0.73056984274E+01  0.24111852811E+02 -0.38262134021E+02  0.46002369236E+02  0.41800000000E+01 0. -1.
         -5    1    3    3    0  502 -0.22119294000E+02 -0.44648392315E+02 -0.83976330959E+03  0.84125063485E+03  0.41800000000E+01 0. -1.
        -11    1    1    2    0    0  0.46914559288E+02  0.18829982153E+01 -0.23480116478E+03  0.23944959499E+03  0.00000000000E+00 0.  1.
         11    1    1    2    0    0 -0.32100963715E+02  0.18653541289E+02 -0.60759149597E+02  0.71204639833E+02  0.00000000000E+00 0. -1.
</event>
<event>
 7    1  0.2873461E-009  0.1286439E+03  0.7561462E-02  0.1229482E+00
         -1   -1    0    0    0  501 -0.00000000000E+00  0.00000000000E+00  0.35758131175E+02  0.35758131175E+02  0.00000000000E+00 0.  1.
          1   -1    0    0  501    0  0.00000000000E+00 -0.00000000000E+00 -0.79308403192E+03  0.79308403192E+03  0.00000000000E+00 0. -1.
         25    2    1    2    0    0 -0.49094983955E+02 -0.84985876766E+02 -0.19952853138E+03  0.25513347080E+03  0.12509411012E+03 0.  0.
          5    1    3    3  502    0 -0.58125433716E+02 -0.10592083472E+03 -0.11274576928E+03  0.16530840924E+03  0.41800000000E+01 0.  1.
         -5    1    3    3    0  502  0.90304497611E+01  0.20934957956E+02 -0.86782762099E+02  0.89825061564E+02  0.41800000000E+01 0.  1.
        -11    1    1    2    0    0 -0.11277801151E+02  0.35155691163E+01 -0.71623129753E+01  0.13814729536E+02  0.00000000000E+00 0.  1.
         11    1    1    2    0    0  0.60372785106E+02  0.81470307650E+02 -0.55063505639E+03  0.55989396276E+03  0.00000000000E+00 0. -1.
</event>
<event>
 7    1  0.2873461E-009  0.2676647E+03  0.7561462E-02  0.1102624E+00
          1   -1    0    0  501    0  0.00000000000E+00  0.00000000000E+00  0.67480378913E+03  0.67480378913E+03  0.00000000000E+00 0. -1.
         -1   -1    0    0    0  501 -0.00000000000E+00 -0.00000000000E+00 -0.11091902988E+03  0.11091902988E+03  0.00000000000E+00 0.  1.
         25    2    1    2    0    0 -0.24352074239E+03 -0.20730943078E+02  0.20816012163E+03  0.34455251677E+03  0.12511465382E+03 0.  0.
          5    1    3    3  502    0 -0.10722905052E+03 -0.71440761643E+02  0.10383671906E+03  0.16553364711E+03  0.41800000000E+01 0. -1.
         -5    1    3    3    0  502 -0.13629169187E+03  0.50709818565E+02  0.10432340257E+03  0.17901886966E+03  0.41800000000E+01 0. -1.
        -11    1    1    2    0    0  0.15052065036E+03 -0.32199019902E+02  0.21168100890E+03  0.26172904423E+03  0.00000000000E+00 0.  1.
         11    1    1    2    0    0  0.93000092026E+02  0.52929962981E+02  0.14404362872E+03  0.17944125800E+03  0.00000000000E+00 0. -1.
</event>
<event>
 7    1  0.2873461E-009  0.1019556E+03  0.7561462E-02  0.1276237E+00
         -2   -1    0    0    0  501 -0.00000000000E+00  0.00000000000E+00  0.37624916479E+02  0.37624916479E+02  0.00000000000E+00 0.  1.
          2   -1    0    0  501    0  0.00000000000E+00 -0.00000000000E+00 -0.38189518129E+03  0.38189518129E+03  0.00000000000E+00 0. -1.
         25    2    1    2    0    0 -0.22906380023E+02 -0.46964260884E+02 -0.20902022727E+03  0.24913241031E+03  0.12508860226E+03 0.  0.
          5    1    3    3  502    0 -0.67147752293E+02 -0.11918877843E+02 -0.64642069814E+02  0.94058225993E+02  0.41800000000E+01 0.  1.
         -5    1    3    3    0  502  0.44241372270E+02 -0.35045383042E+02 -0.14437815746E+03  0.15507418432E+03  0.41800000000E+01 0.  1.
        -11    1    1    2    0    0  0.28040284710E+01 -0.14269410030E+02  0.55286333608E+01  0.15557776997E+02  0.00000000000E+00 0.  1.
         11    1    1    2    0    0  0.20102351552E+02  0.61233670914E+02 -0.14077867090E+03  0.15482991046E+03  0.00000000000E+00 0. -1.
</event>
<event>
 7    1  0.3822313E-009  0.9206422E+02  0.7561462E-02  0.1297929E+00
          2   -1    0    0  501    0  0.00000000000E+00  0.00000000000E+00  0.34025980149E+03  0.34025980149E+03  0.00000000000E+00 0. -1.
         -2   -1    0    0    0  501 -0.00000000000E+00 -0.00000000000E+00 -0.39182711793E+02  0.39182711793E+02  0.00000000000E+00 0.  1.
         25    2    1    2    0    0 -0.12894263096E+00 -0.50139410449E+01  0.10654191376E+03  0.16438016249E+03  0.12507798448E+03 0.  0.
          5    1    3    3  502    0 -0.30834534415E+02  0.44412040283E+02  0.15762829605E+02  0.56472444890E+02  0.41800000000E+01 0.  1.
         -5    1    3    3    0  502  0.30705591784E+02 -0.49425981328E+02  0.90779084152E+02  0.10790771759E+03  0.41800000000E+01 0.  1.
        -11    1    1    2    0    0  0.29897225700E+02 -0.17134591944E+02  0.16228006475E+03  0.16589833562E+03  0.00000000000E+00 0. -1.
         11    1    1    2    0    0 -0.29768283069E+02  0.22148532989E+02  0.32255111186E+02  0.49164015175E+02  0.00000000000E+00 0.  1.
</event>
<event>
 7    1  0.2873461E-009  0.9076741E+02  0.7561462E-02  0.1301004E+00
          2   -1    0    0  501    0  0.00000000000E+00  0.00000000000E+00  0.12508653054E+04  0.12508653054E+04  0.00000000000E+00 0. -1.
         -2   -1    0    0    0  501 -0.00000000000E+00 -0.00000000000E+00 -0.20099163774E+02  0.20099163774E+02  0.00000000000E+00 0.  1.
         25    2    1    2    0    0  0.47118499156E+02 -0.64259387147E+02  0.99616065644E+03  0.10071412796E+04  0.12509229298E+03 0.  0.
          5    1    3    3  502    0  0.23078534436E+02 -0.63822401383E+02  0.21277216131E+03  0.22337274386E+03  0.41800000000E+01 0. -1.
         -5    1    3    3    0  502  0.24039964719E+02 -0.43698576354E+00  0.78338849513E+03  0.78376853570E+03  0.41800000000E+01 0. -1.
        -11    1    1    2    0    0 -0.24631391928E+02  0.61782618696E+02  0.23164817544E+03  0.24100762358E+03  0.00000000000E+00 0. -1.
         11    1    1    2    0    0 -0.22487107227E+02  0.24767684507E+01  0.29573097793E+01  0.22815566058E+02  0.00000000000E+00 0.  1.
</event>
<event>
 7    1  0.2873461E-009  0.7188478E+02  0.7561462E-02  0.1353799E+00
          1   -1    0    0  501    0  0.00000000000E+00  0.00000000000E+00  0.14639536884E+03  0.14639536884E+03  0.00000000000E+00 0. -1.
         -1   -1    0    0    0  501 -0.00000000000E+00 -0.00000000000E+00 -0.13995496206E+03  0.13995496206E+03  0.00000000000E+00 0.  1.
         25    2    1    2    0    0  0.52934194072E+02 -0.65579229692E+01 -0.73147341828E+02  0.15441240756E+03  0.12509045821E+03 0.  0.
          5    1    3    3  502    0  0.26363035771E+02  0.17128724342E+02 -0.10299704047E+03  0.10776950217E+03  0.41800000000E+01 0.  1.
         -5    1    3    3    0  502  0.26571158301E+02 -0.23686647311E+02  0.29849698640E+02  0.46642905390E+02  0.41800000000E+01 0.  1.
        -11    1    1    2    0    0  0.10203192198E+02  0.81457574594E+01  0.66073265765E+02  0.67350834772E+02  0.00000000000E+00 0. -1.
         11    1    1    2    0    0 -0.63137386271E+02 -0.15878344902E+01  0.13514482851E+02  0.64587088572E+02  0.00000000000E+00 0.  1.
</event>
<event>
 7    1  0.2873461E-009  0.1037329E+03  0.7561462E-02  0.1272636E+00
          2   -1    0    0  501    0  0.00000000000E+00  0.00000000000E+00  0.70668850179E+03  0.70668850179E+03  0.00000000000E+00 0. -1.
         -2   -1    0    0    0  501 -0.00000000000E+00 -0.00000000000E+00 -0.22884921233E+02  0.22884921233E+02  0.00000000000E+00 0.  1.
         25    2    1    2    0    0 -0.32072685992E+02 -0.13514762117E+02  0.53924137398E+03  0.55465306495E+03  0.12508979602E+03 0.  0.
          5    1    3    3  502    0  0.37412729517E+02  0.22107831162E+01  0.65609359381E+02  0.75674700728E+02  0.41800000000E+01 0.  1.
         -5    1    3    3    0  502 -0.69485415510E+02 -0.15725545233E+02  0.47363201460E+03  0.47897836422E+03  0.41800000000E+01 0.  1.
        -11    1    1    2    0    0  0.63911601128E+02  0.28518932993E+00  0.97483796134E+02  0.11656699619E+03  0.00000000000E+00 0.  1.
         11    1    1    2    0    0 -0.31838915136E+02  0.13229572787E+02  0.47078410445E+02  0.58353361884E+02  0.00000000000E+00 0. -1.
</event>
<event>
 7    1  0.3101919E-009  0.9614835E+02  0.7561462E-02  0.1288610E+00
         -2   -1    0    0    0  501 -0.00000000000E+00  0.00000000000E+00  0.13532181071E+03  0.13532181071E+03  0.00000000000E+00 0.  1.
          2   -1    0    0  501    0  0.00000000000E+00 -0.00000000000E+00 -0.13548135411E+03  0.13548135411E+03  0.00000000000E+00 0. -1.
         25    2    1    2    0    0 -0.59490294254E+02 -0.51766362475E+02  0.17797757600E+02  0.14893909344E+03  0.12508893630E+03 0.  0.
          5    1    3    3  502    0 -0.28860193693E+02 -0.39434423478E+02 -0.52080674054E+02  0.71539174897E+02  0.41800000000E+01 0.  1.
         -5    1    3    3    0  502 -0.30630100561E+02 -0.12331938997E+02  0.69878431653E+02  0.77399918541E+02  0.41800000000E+01 0.  1.
        -11    1    1    2    0    0  0.31125074240E+02  0.69752166788E+02  0.11434647354E+02  0.77232675586E+02  0.00000000000E+00 0.  1.
         11    1    1    2    0    0  0.28365220014E+02 -0.17985804314E+02 -0.29391948349E+02  0.44631395799E+02  0.00000000000E+00 0. -1.
</event>
<event>
 7    1  0.2873461E-009  0.2525514E+03  0.7561462E-02  0.1111703E+00
          2   -1    0    0  501    0  0.00000000000E+00  0.00000000000E+00  0.43512537751E+03  0.43512537751E+03  0.00000000000E+00 0. -1.
         -2   -1    0    0    0  501 -0.00000000000E+00 -0.00000000000E+00 -0.16467199569E+03  0.16467199569E+03  0.00000000000E+00 0.  1.
         25    2    1    2    0    0  0.19677587789E+03 -0.12725690325E+03  0.21712095314E+03  0.34308045166E+03  0.12509045718E+03 0.  0.
          5    1    3    3  502    0  0.15453353918E+03 -0.28141163319E+02  0.11658233245E+03  0.19565646538E+03  0.41800000000E+01 0.  1.
         -5    1    3    3    0  502  0.42242338705E+02 -0.99115739929E+02  0.10053862069E+03  0.14742398628E+03  0.41800000000E+01 0.  1.
        -11    1    1    2    0    0 -0.87737677311E+02  0.26413391632E+02  0.57431434828E+02  0.10813850833E+03  0.00000000000E+00 0. -1.
         11    1    1    2    0    0 -0.10903820058E+03  0.10084351162E+03 -0.40990061517E+01  0.14857841321E+03  0.00000000000E+00 0.  1.
</event>
<event>
 7    1  0.2873461E-009  0.9804766E+02  0.7561462E-02  0.1284456E+00
          1   -1    0    0  501    0  0.00000000000E+00  0.00000000000E+00  0.35222339728E+03  0.35222339728E+03  0.00000000000E+00 0. -1.
         -1   -1    0    0    0  501 -0.00000000000E+00 -0.00000000000E+00 -0.41397440039E+02  0.41397440039E+02  0.00000000000E+00 0.  1.
         25    2    1    2    0    0  0.41339466189E+02  0.23479562428E+02  0.15298354859E+03  0.20325207605E+03  0.12508876433E+03 0.  0.
          5    1    3    3  502    0 -0.17194638833E+02  0.38187858597E+02  0.13305943579E+03  0.13955735022E+03  0.41800000000E+01 0. -1.
         -5    1    3    3    0  502  0.58534105022E+02 -0.14708296169E+02  0.19924112802E+02  0.63694725824E+02  0.41800000000E+01 0. -1.
        -11    1    1    2    0    0 -0.65811337274E+02 -0.20048078929E+02  0.14901241696E+03  0.16412726157E+03  0.00000000000E+00 0. -1.
         11    1    1    2    0    0  0.24471871085E+02 -0.34314834985E+01  0.88299916959E+01  0.26241499705E+02  0.00000000000E+00 0.  1.
</event>
<event>
 7    1  0.2873461E-009  0.8040879E+02  0.7561462E-02  0.1327895E+00
          2   -1    0    0  501    0  0.00000000000E+00  0.00000000000E+00  0.20131420728E+03  0.20131420728E+03  0.00000000000E+00 0.  1.
         -2   -1    0    0    0  501 -0.00000000000E+00 -0.00000000000E+00 -0.76750659544E+02  0.76750659544E+02  0.00000000000E+00 0. -1.
         25    2    1    2    0    0 -0.10125424313E+02 -0.30073689354E+02  0.10774193352E+02  0.12950185969E+03  0.12509075670E+03 0.  0.
          5    1    3    3  502    0  0.42351859320E+02  0.17824617663E+01  0.42587032065E+02  0.60232755689E+02  0.41800000000E+01 0.  1.
         -5    1    3    3    0  502 -0.52477283633E+02 -0.31856151120E+02 -0.31812838713E+02  0.69269103997E+02  0.41800000000E+01 0.  1.
        -11    1    1    2    0    0 -0.18122874612E+02  0.19253684958E+02  0.11528311453E+03  0.11827653810E+03  0.00000000000E+00 0.  1.
         11    1    1    2    0    0  0.28248298925E+02  0.10820004396E+02 -0.14937601498E+01  0.30286469036E+02  0.00000000000E+00 0. -1.
</event>
<event>
 7    1  0.2873461E-009  0.1094446E+03  0.7561462E-02  0.1261602E+00
         -2   -1    0    0    0  501 -0.00000000000E+00  0.00000000000E+00  0.24282467499E+02  0.24282467499E+02  0.00000000000E+00 0.  1.
          2   -1    0    0  501    0  0.00000000000E+00 -0.00000000000E+00 -0.56745694277E+03  0.56745694277E+03  0.00000000000E+00 0. -1.
         25    2    1    2    0    0  0.35484986140E+02  0.42861516403E-01 -0.36835259919E+03  0.39062710758E+03  0.12508682493E+03 0.  0.
          5    1    3    3  502    0  0.65213813029E+02  0.38824449977E+02 -0.16860410806E+03  0.18494592988E+03  0.41800000000E+01 0. -1.
         -5    1    3    3    0  502 -0.29728826889E+02 -0.38781588460E+02 -0.19974849113E+03  0.20568117770E+03  0.41800000000E+01 0. -1.
        -11    1    1    2    0    0  0.26287210462E+02  0.14988170531E+02 -0.28466157159E+02  0.41544973139E+02  0.00000000000E+00 0.  1.
         11    1    1    2    0    0 -0.61772196601E+02 -0.15031032047E+02 -0.14635571893E+03  0.15956732955E+03  0.00000000000E+00 0. -1.
</event>
<event>
 7    1  0.2873461E-009  0.1209565E+03  0.7561462E-02  0.1241527E+00
         -4   -1    0    0    0  501 -0.00000000000E+00  0.00000000000E+00  0.21841715535E+03  0.21841715535E+03  0.00000000000E+00 0.  1.
          4   -1    0    0  501    0  0.00000000000E+00 -0.00000000000E+00 -0.80618516037E+02  0.80618516037E+02  0.00000000000E+00 0. -1.
         25    2    1    2    0    0 -0.41857613369E+02 -0.37861896463E+02  0.22510706995E+02  0.13906805418E+03  0.12509040237E+03 0.  0.
          5    1    3    3  502    0 -0.81333680039E+02 -0.50020304099E+02  0.18587337924E+02  0.97366112492E+02  0.41800000000E+01 0.  1.
         -5    1    3    3    0  502  0.39476066669E+02  0.12158407636E+02  0.39233690710E+01  0.41701941691E+02  0.41800000000E+01 0.  1.
        -11    1    1    2    0    0  0.33124786381E+02  0.66816959574E+02  0.10336234987E+03  0.12745796535E+03  0.00000000000E+00 0.  1.
         11    1    1    2    0    0  0.87328269877E+01 -0.28955063112E+02  0.11925582443E+02  0.32509651853E+02  0.00000000000E+00 0. -1.
</event>
<event>
 7    1  0.2873461E-009  0.8481049E+02  0.7561462E-02  0.1315929E+00
          1   -1    0    0  501    0  0.00000000000E+00  0.00000000000E+00  0.10009526310E+03  0.10009526310E+03  0.00000000000E+00 0. -1.
         -1   -1    0    0    0  501 -0.00000000000E+00 -0.00000000000E+00 -0.15335174008E+03  0.15335174008E+03  0.00000000000E+00 0.  1.
         25    2    1    2    0    0  0.16862303347E+02  0.55289445722E+02 -0.12365615129E+02  0.13835393574E+03  0.12509053927E+03 0.  0.
          5    1    3    3  502    0 -0.26758260247E+02  0.46415137088E+02 -0.54771831692E+02  0.76731971103E+02  0.41800000000E+01 0. -1.
         -5    1    3    3    0  502  0.43620563595E+02  0.88743086337E+01  0.42406216563E+02  0.61621964633E+02  0.41800000000E+01 0. -1.
        -11    1    1    2    0    0 -0.22259101973E+01 -0.56446456301E+02  0.14060704916E+02  0.58213920396E+02  0.00000000000E+00 0. -1.
         11    1    1    2    0    0 -0.14636393150E+02  0.11570105788E+01 -0.54951566771E+02  0.56879147045E+02  0.00000000000E+00 0.  1.
</event>
<event>
 7    1  0.2873461E-009  0.1134240E+03  0.7561462E-02  0.1254357E+00
          1   -1    0    0  501    0  0.00000000000E+00  0.00000000000E+00  0.28338270322E+03  0.28338270322E+03  0.00000000000E+00 0. -1.
         -1   -1    0    0    0  501 -0.00000000000E+00 -0.00000000000E+00 -0.71462859915E+02  0.71462859915E+02  0.00000000000E+00 0.  1.
         25    2    1    2    0    0 -0.74466321038E+02  0.22863726346E+02  0.54218267494E+02  0.15701703080E+03  0.12508694768E+03 0.  0.
          5    1    3    3  502    0 -0.51240479589E+02  0.73994506504E+02  0.41920217361E+02  0.99375805732E+02  0.41800000000E+01 0. -1.
         -5    1    3    3    0  502 -0.23225841449E+02 -0.51130780158E+02  0.12298050133E+02  0.57641225071E+02  0.41800000000E+01 0. -1.
        -11    1    1    2    0    0  0.26847702940E+02 -0.18520997497E+02  0.14462388690E+03  0.14825618086E+03  0.00000000000E+00 0. -1.
         11    1    1    2    0    0  0.47618618098E+02 -0.43427288493E+01  0.13077688915E+02  0.49572351475E+02  0.00000000000E+00 0.  1.
</event>
<event>
 7    1  0.2873461E-009  0.1005469E+03  0.7561462E-02  0.1279150E+00
         -1   -1    0    0    0  501 -0.00000000000E+00  0.00000000000E+00  0.18913203560E+02  0.18913203560E+02  0.00000000000E+00 0.  1.
          1   -1    0    0  501    0  0.00000000000E+00 -0.00000000000E+00 -0.10523402233E+04  0.10523402233E+04  0.00000000000E+00 0. -1.
         25    2    1    2    0    0  0.77540522095E+02  0.24010293657E+02 -0.72033821863E+03  0.73561120390E+03  0.12509063640E+03 0.  0.
          5    1    3    3  502    0  0.38036252716E+02  0.29436395956E+02 -0.66769767766E+03  0.66944075098E+03  0.41800000000E+01 0. -1.
         -5    1    3    3    0  502  0.39504269378E+02 -0.54261022991E+01 -0.52640540974E+02  0.66170452917E+02  0.41800000000E+01 0. -1.
        -11    1    1    2    0    0 -0.61009149224E+02  0.21197698935E+02 -0.11608258986E+03  0.13284060523E+03  0.00000000000E+00 0.  1.
         11    1    1    2    0    0 -0.16531372870E+02 -0.45207992591E+02 -0.19700621121E+03  0.20280161769E+03  0.00000000000E+00 0. -1.
</event>
<event>
 7    1  0.2873461E-009  0.8904777E+02  0.7561462E-02  0.1305174E+00
          3   -1    0    0  501    0  0.00000000000E+00  0.00000000000E+00  0.45553678161E+03  0.45553678161E+03  0.00000000000E+00 0. -1.
         -3   -1    0    0    0  501 -0.00000000000E+00 -0.00000000000E+00 -0.34255026581E+02  0.34255026581E+02  0.00000000000E+00 0.  1.
         25    2    1    2    0    0  0.56327442016E+02  0.25573169178E+02  0.28781520659E+03  0.31986514360E+03  0.12509735906E+03 0.  0.
          5    1    3    3  502    0  0.51552661174E+02  0.35164243423E+02  0.45660308780E+02  0.77437310694E+02  0.41800000000E+01 0.  1.
         -5    1    3    3    0  502  0.47747808419E+01 -0.95910742452E+01  0.24215489781E+03  0.24242783291E+03  0.41800000000E+01 0.  1.
        -11    1    1    2    0    0 -0.23600465082E+02  0.30839263835E+02  0.38183583501E+02  0.54461254070E+02  0.00000000000E+00 0. -1.
         11    1    1    2    0    0 -0.32726976934E+02 -0.56412433012E+02  0.95282964936E+02  0.11546541051E+03  0.00000000000E+00 0.  1.
</event>
<event>
 7    1  0.2873461E-009  0.1083704E+03  0.7561462E-02  0.1263618E+00
          2   -1    0    0  501    0  0.00000000000E+00  0.00000000000E+00  0.38650976746E+02  0.38650976746E+02  0.00000000000E+00 0. -1.
         -2   -1    0    0    0  501 -0.00000000000E+00 -0.00000000000E+00 -0.33222070629E+03  0.33222070629E+03  0.00000000000E+00 0.  1.
         25    2    1    2    0    0  0.17337014503E+02 -0.25245561893E+02 -0.14430592614E+03  0.19341534785E+03  0.12508951194E+03 0.  0.
          5    1    3    3  502    0 -0.48791787175E+02 -0.24630410768E+02 -0.33305717657E+02  0.64140773763E+02  0.41800000000E+01 0.  1.
         -5    1    3    3    0  502  0.66128801678E+02 -0.61515112449E+00 -0.11100020849E+03  0.12927457409E+03  0.41800000000E+01 0.  1.
        -11    1    1    2    0    0 -0.37919512632E+01  0.59087751285E+02 -0.85316895738E+02  0.10384947734E+03  0.00000000000E+00 0.  1.
         11    1    1    2    0    0 -0.13545063240E+02 -0.33842189392E+02 -0.63946907659E+02  0.73606857834E+02  0.00000000000E+00 0. -1.
</event>
<event>
 7    1  0.2873461E-009  0.1701814E+03  0.7561462E-02  0.1177659E+00
          2   -1    0    0  501    0  0.00000000000E+00  0.00000000000E+00  0.51064581328E+03  0.51064581328E+03  0.00000000000E+00 0. -1.
         -2   -1    0    0    0  501 -0.00000000000E+00 -0.00000000000E+00 -0.67358278921E+02  0.67358278921E+02  0.00000000000E+00 0.  1.
         25    2    1    2    0    0  0.59604021151E+02 -0.13881287341E+03  0.18592873177E+03  0.27025632775E+03  0.12508931302E+03 0.  0.
          5    1    3    3  502    0  0.77583879692E+02 -0.46781252043E+02  0.45816880269E+02  0.10160906873E+03  0.41800000000E+01 0. -1.
         -5    1    3    3    0  502 -0.17979858541E+02 -0.92031621371E+02  0.14011185150E+03  0.16864725902E+03  0.41800000000E+01 0. -1.
        -11    1    1    2    0    0 -0.48124221414E+02  0.63778613966E+02  0.19056756969E+03  0.20663893850E+03  0.00000000000E+00 0. -1.
         11    1    1    2    0    0 -0.11479799737E+02  0.75034259448E+02  0.66791232909E+02  0.10110882596E+03  0.00000000000E+00 0.  1.
</event>
<event>
 7    1  0.2873461E-009  0.1576311E+03  0.7561462E-02  0.1191397E+00
          2   -1    0    0  501    0  0.00000000000E+00  0.00000000000E+00  0.21707835392E+03  0.21707835392E+03  0.00000000000E+00 0. -1.
         -2   -1    0    0    0  501 -0.00000000000E+00 -0.00000000000E+00 -0.17894122333E+03  0.17894122333E+03  0.00000000000E+00 0.  1.
         25    2    1    2    0    0  0.63466578262E+02 -0.13468228422E+03 -0.48497378794E+02  0.20041769585E+03  0.12509169766E+03 0.  0.
          5    1    3    3  502    0 -0.11522949854E+02 -0.51671913058E+01  0.28946907117E+02  0.31857088238E+02  0.41800000000E+01 0.  1.
         -5    1    3    3    0  502  0.74989528116E+02 -0.12951509291E+03 -0.77444285912E+02  0.16856060762E+03  0.41800000000E+01 0.  1.
        -11    1    1    2    0    0 -0.45436464726E+02  0.59138513028E+02 -0.58800033600E+01  0.74809160465E+02  0.00000000000E+00 0.  1.
         11    1    1    2    0    0 -0.18030113536E+02  0.75543771192E+02  0.92514512748E+02  0.12079272093E+03  0.00000000000E+00 0. -1.
</event>
<event>
 7    1  0.2873461E-009  0.1491985E+03  0.7561462E-02  0.1201461E+00
          2   -1    0    0  501    0  0.00000000000E+00  0.00000000000E+00  0.46910814856E+03  0.46910814856E+03  0.00000000000E+00 0. -1.
         -2   -1    0    0    0  501 -0.00000000000E+00 -0.00000000000E+00 -0.59277882083E+02  0.59277882083E+02  0.00000000000E+00 0.  1.
         25    2    1    2    0    0  0.58649481528E+02 -0.92464811759E+02  0.30666405243E+03  0.34880787396E+03  0.12503834929E+03 0.  0.
          5    1    3    3  502    0  0.95604965330E+02 -0.67815162479E+02  0.25407926581E+03  0.27984451285E+03  0.41800000000E+01 0. -1.
         -5    1    3    3    0  502 -0.36955483802E+02 -0.24649649280E+02  0.52584786613E+02  0.68963361112E+02  0.41800000000E+01 0. -1.
        -11    1    1    2    0    0 -0.62640582994E+02  0.10558932154E+03  0.10946276592E+03  0.16448417731E+03  0.00000000000E+00 0. -1.
         11    1    1    2    0    0  0.39911014668E+01 -0.13124509783E+02 -0.62965518665E+01  0.15093979375E+02  0.00000000000E+00 0.  1.
</event>
<event>
 7    1  0.2873461E-009  0.1087372E+03  0.7561462E-02  0.1262926E+00
         -2   -1    0    0    0  501 -0.00000000000E+00  0.00000000000E+00  0.14366680879E+03  0.14366680879E+03  0.00000000000E+00 0.  1.
          2   -1    0    0  501    0  0.00000000000E+00 -0.00000000000E+00 -0.11408594568E+03  0.11408594568E+03  0.00000000000E+00 0. -1.
         25    2    1    2    0    0 -0.45031329178E+02  0.50752940481E+02  0.12877847614E+02  0.14288760902E+03  0.12508936117E+03 0.  0.
          5    1    3    3  502    0  0.12263674628E+02 -0.26197999889E+02 -0.26162205909E+02  0.39225837551E+02  0.41800000000E+01 0.  1.
         -5    1    3    3    0  502 -0.57295003806E+02  0.76950940369E+02  0.39040053523E+02  0.10366177147E+03  0.41800000000E+01 0.  1.
        -11    1    1    2    0    0  0.52836238729E+02 -0.14019293100E+02  0.42553010248E+02  0.69274579632E+02  0.00000000000E+00 0.  1.
         11    1    1    2    0    0 -0.78049095512E+01 -0.36733647381E+02 -0.25849994747E+02  0.45590565816E+02  0.00000000000E+00 0. -1.
</event>
<event>
 7    1  0.2873461E-009  0.8077173E+02  0.7561462E-02  0.1326876E+00
          1   -1    0    0  501    0  0.00000000000E+00  0.00000000000E+00  0.26436092925E+03  0.26436092925E+03  0.00000000000E+00 0. -1.
         -1   -1    0    0    0  501 -0.00000000000E+00 -0.00000000000E+00 -0.61366553341E+02  0.61366553341E+02  0.00000000000E+00 0.  1.
         25    2    1    2    0    0 -0.43815049606E+02  0.18245686182E+01  0.17703944362E+03  0.22116523392E+03  0.12509200004E+03 0.  0.
          5    1    3    3  502    0 -0.40019677598E+02 -0.24714059763E+02  0.18653492516E+03  0.19241910001E+03  0.41800000000E+01 0. -1.
         -5    1    3    3    0  502 -0.37953720083E+01  0.26538628381E+02 -0.94954815390E+01  0.28746133909E+02  0.41800000000E+01 0. -1.
        -11    1    1    2    0    0  0.64474921786E+02 -0.94577592988E+01  0.41809715520E+02  0.77424266623E+02  0.00000000000E+00 0. -1.
         11    1    1    2    0    0 -0.20659872180E+02  0.76331906806E+01 -0.15854783230E+02  0.27137982049E+02  0.00000000000E+00 0.  1.
</event>
<event>
 7    1  0.2873461E-009  0.1272460E+03  0.7561462E-02  0.1231600E+00
         -1   -1    0    0    0  501 -0.00000000000E+00  0.00000000000E+00  0.87709033173E+02  0.87709033173E+02  0.00000000000E+00 0.  1.
          1   -1    0    0  501    0  0.00000000000E+00 -0.00000000000E+00 -0.39995083279E+03  0.39995083279E+03  0.00000000000E+00 0. -1.
         25    2    1    2    0    0 -0.25049531150E+02  0.10423823510E+03 -0.30546725534E+03  0.34706522281E+03  0.12510370151E+03 0.  0.
          5    1    3    3  502    0 -0.38902773750E+02  0.18915898757E+02 -0.22411671157E+03  0.22829150189E+03  0.41800000000E+01 0. -1.
         -5    1    3    3    0  502  0.13853242600E+02  0.85322336340E+02 -0.81350543775E+02  0.11877372092E+03  0.41800000000E+01 0. -1.
        -11    1    1    2    0    0  0.33630717361E+02 -0.18612865082E+02  0.28232753366E+02  0.47692266243E+02  0.00000000000E+00 0.  1.
         11    1    1    2    0    0 -0.85811862104E+01 -0.85625370014E+02 -0.35007297638E+02  0.92902376906E+02  0.00000000000E+00 0. -1.
</event>
<event>
 6    1  0.2873461E-009  0.1264104E+03  0.7561462E-02  0.1232881E+00
          2   -1    0    0  501    0  0.00000000000E+00  0.00000000000E+00  0.54098796052E+02  0.54098796052E+02  0.00000000000E+00 0. -1.
         -2   -1    0    0    0  501 -0.00000000000E+00 -0.00000000000E+00 -0.56587732472E+03  0.56587732472E+03  0.00000000000E+00 0.  1.
          5    1    1    2  502    0  0.27825231927E+02  0.41062992585E+02  0.71589188169E+01  0.50290510143E+02  0.41800000000E+01 0.  1.
         -5    1    1    2    0  502  0.75266737490E+02 -0.41933666466E+02 -0.11821654625E+03  0.14634253778E+03  0.41800000000E+01 0.  1.
        -11    1    1    2    0    0 -0.11088843253E+02  0.19946312523E+02 -0.17464947481E+02  0.28737470635E+02  0.00000000000E+00 0. -1.
         11    1    1    2    0    0 -0.92003126164E+02 -0.19075638642E+02 -0.38325595376E+03  0.39460560222E+03  0.00000000000E+00 0.  1.
</event>
<event>
 7    1  0.2873461E-009  0.1570777E+03  0.7561462E-02  0.1192036E+00
          1   -1    0    0  501    0  0.00000000000E+00  0.00000000000E+00  0.49891652461E+03  0.49891652461E+03  0.00000000000E+00 0. -1.
         -1   -1    0    0    0  501 -0.00000000000E+00 -0.00000000000E+00 -0.56466141329E+02  0.56466141329E+02  0.00000000000E+00 0.  1.
         25    2    1    2    0    0 -0.94970221132E+02  0.80785609319E+02  0.25901932110E+03  0.31350454333E+03  0.12509369453E+03 0.  0.
          5    1    3    3  502    0  0.26505270933E+02 -0.56304646615E+01  0.43380522907E+02  0.51318356241E+02  0.41800000000E+01 0. -1.
         -5    1    3    3    0  502 -0.12147549207E+03  0.86416073981E+02  0.21563879819E+03  0.26218618709E+03  0.41800000000E+01 0. -1.
        -11    1    1    2    0    0  0.52226537948E+02 -0.74999302744E+01  0.17627078278E+02  0.55628896346E+02  0.00000000000E+00 0.  1.
         11    1    1    2    0    0  0.42743683184E+02 -0.73285679045E+02  0.16580398391E+03  0.18624922627E+03  0.00000000000E+00 0. -1.
</event>
<event>
 7    1  0.2873461E-009  0.1043970E+03  0.7561462E-02  0.1271312E+00
         -1   -1    0    0    0  501 -0.00000000000E+00  0.00000000000E+00  0.65548291984E+02  0.65548291984E+02  0.00000000000E+00 0.  1.
          1   -1    0    0  501    0  0.00000000000E+00 -0.00000000000E+00 -0.32127479967E+03  0.32127479967E+03  0.00000000000E+00 0. -1.
         25    2    1    2    0    0 -0.11859824897E+02  0.77631694994E+02 -0.21327037204E+03  0.25942157526E+03  0.12509183269E+03 0.  0.
          5    1    3    3  502    0 -0.26036095615E+02 -0.21443603754E+01 -0.16043310931E+03  0.16259991242E+03  0.41800000000E+01 0.  1.
         -5    1    3    3    0  502  0.14176270718E+02  0.79776055369E+02 -0.52837262723E+02  0.96821662833E+02  0.41800000000E+01 0.  1.
        -11    1    1    2    0    0 -0.26303483083E+02 -0.37689736490E+02 -0.54055914066E+02  0.70953726502E+02  0.00000000000E+00 0. -1.
         11    1    1    2    0    0  0.38163307981E+02 -0.39941958503E+02  0.11599778414E+02  0.56447789898E+02  0.00000000000E+00 0.  1.
</event>
<event>
 7    1  0.2873461E-009  0.1594928E+03  0.7561462E-02  0.1189271E+00
         -1   -1    0    0    0  501 -0.00000000000E+00  0.00000000000E+00  0.57308525711E+02  0.57308525711E+02  0.00000000000E+00 0.  1.
          1   -1    0    0  501    0  0.00000000000E+00 -0.00000000000E+00 -0.48827068565E+03  0.48827068565E+03  0.00000000000E+00 0. -1.
         25    2    1    2    0    0 -0.47271461731E+02  0.11444444381E+03 -0.27516136071E+03  0.32664334626E+03  0.12509987776E+03 0.  0.
          5    1    3    3  502    0 -0.37144931478E+02 -0.19132349883E+02 -0.65227303887E+02  0.77574907792E+02  0.41800000000E+01 0. -1.
         -5    1    3    3    0  502 -0.10126530253E+02  0.13357679369E+03 -0.20993405682E+03  0.24906843847E+03  0.41800000000E+01 0. -1.
        -11    1    1    2    0    0  0.61428033287E+02 -0.11315559947E+03 -0.10486895686E+03  0.16605749329E+03  0.00000000000E+00 0.  1.
         11    1    1    2    0    0 -0.14156571556E+02 -0.12888443346E+01 -0.50931842379E+02  0.52878371818E+02  0.00000000000E+00 0. -1.
</event>
<event>
 7    1  0.2873461E-009  0.1766435E+03  0.7561462E-02  0.1171092E+00
          1   -1    0    0  501    0  0.00000000000E+00  0.00000000000E+00  0.66286962320E+03  0.66286962320E+03  0.00000000000E+00 0. -1.
         -1   -1    0    0    0  501 -0.00000000000E+00 -0.00000000000E+00 -0.60982907852E+02  0.60982907852E+02  0.00000000000E+00 0.  1.
         25    2    1    2    0    0  0.76432902420E+02  0.12142272367E+03  0.15748465551E+03  0.24705224254E+03  0.12509167609E+03 0.  0.
          5    1    3    3  502    0  0.94299136012E+02  0.35245975901E+02  0.99298096649E+02  0.14146444878E+03  0.41800000000E+01 0. -1.
         -5    1    3    3    0  502 -0.17866233592E+02  0.86176747772E+02  0.58186558858E+02  0.10558779376E+03  0.41800000000E+01 0. -1.
        -11    1    1    2    0    0 -0.56861848890E+02 -0.18710922486E+02  0.96810660854E+02  0.11382298772E+03  0.00000000000E+00 0.  1.
         11    1    1    2    0    0 -0.19571053531E+02 -0.10271180119E+03  0.34759139899E+03  0.36297730079E+03  0.00000000000E+00 0. -1.
</event>
<event>
 7    1  0.2873461E-009  0.1339422E+03  0.7561462E-02  0.1221721E+00
          1   -1    0    0  501    0  0.00000000000E+00  0.00000000000E+00  0.52347425258E+03  0.52347425258E+03  0.00000000000E+00 0. -1.
         -1   -1    0    0    0  501 -0.00000000000E+00 -0.00000000000E+00 -0.44407244158E+02  0.44407244158E+02  0.00000000000E+00 0.  1.
         25    2    1    2    0    0 -0.53959801943E+02  0.76581051758E+02  0.17132354359E+03  0.23188159721E+03  0.12506398691E+03 0.  0.
          5    1    3    3  502    0 -0.26293149582E+02 -0.29193506472E+02  0.80541945041E+02  0.89711024105E+02  0.41800000000E+01 0.  1.
         -5    1    3    3    0  502 -0.27666652361E+02  0.10577455823E+03  0.90781598547E+02  0.14217057310E+03  0.41800000000E+01 0.  1.
        -11    1    1    2    0    0  0.70005678662E+02 -0.44114460534E+02  0.27499209607E+03  0.28717160997E+03  0.00000000000E+00 0. -1.
         11    1    1    2    0    0 -0.16045876719E+02 -0.32466591223E+02  0.32751368766E+02  0.48828289560E+02  0.00000000000E+00 0.  1.
</event>
<event>
 7    1  0.2873461E-009  0.8093403E+02  0.7561462E-02  0.1326422E+00
          2   -1    0    0  501    0  0.00000000000E+00  0.00000000000E+00  0.79168812327E+02  0.79168812327E+02  0.00000000000E+00 0. -1.
         -2   -1    0    0    0  501 -0.00000000000E+00 -0.00000000000E+00 -0.15412310197E+03  0.15412310197E+03  0.00000000000E+00 0.  1.
         25    2    1    2    0    0  0.30958247727E+01  0.81398323313E+01 -0.80462488198E+02  0.14898511945E+03  0.12508602164E+03 0.  0.
          5    1    3    3  502    0  0.58214700572E+02  0.21695098471E+02 -0.64990244801E+02  0.90004627546E+02  0.41800000000E+01 0. -1.
         -5    1    3    3    0  502 -0.55118875799E+02 -0.13555266140E+02 -0.15472243397E+02  0.58980491904E+02  0.41800000000E+01 0. -1.
        -11    1    1    2    0    0 -0.12718939099E+02 -0.22237445842E+02  0.39031837913E+02  0.46687897578E+02  0.00000000000E+00 0. -1.
         11    1    1    2    0    0  0.96231143265E+01  0.14097613511E+02 -0.33523639356E+02  0.37618897269E+02  0.00000000000E+00 0.  1.
</event>
<event>
 7    1  0.2873461E-009  0.2320783E+03  0.7561462E-02  0.1125185E+00
         -3   -1    0    0    0  501 -0.00000000000E+00  0.00000000000E+00  0.15411291666E+04  0.15411291666E+04  0.00000000000E+00 0.  1.
          3   -1    0    0  501    0  0.00000000000E+00 -0.00000000000E+00 -0.37163935348E+02  0.37163935348E+02  0.00000000000E+00 0. -1.
         25    2    1    2    0    0 -0.13679126584E+03  0.16024592128E+03  0.88457645596E+03  0.91788569438E+03  0.12509210936E+03 0.  0.
          5    1    3    3  502    0 -0.10826977439E+03  0.31132698296E+02  0.40851554660E+03  0.42378533854E+03  0.41800000000E+01 0.  1.
         -5    1    3    3    0  502 -0.28521491445E+02  0.12911322299E+03  0.47606090936E+03  0.49410035584E+03  0.41800000000E+01 0.  1.
        -11    1    1    2    0    0  0.10807943878E+03 -0.81650953514E+02  0.47057313692E+03  0.48968063111E+03  0.00000000000E+00 0.  1.
         11    1    1    2    0    0  0.28711827054E+02 -0.78594967768E+02  0.14881563836E+03  0.17072677643E+03  0.00000000000E+00 0. -1.
</event>
<event>
 7    1  0.2873461E-009  0.1144866E+03  0.7561462E-02  0.1252480E+00
         -2   -1    0    0    0  501 -0.00000000000E+00  0.00000000000E+00  0.23240560463E+02  0.23240560463E+02  0.00000000000E+00 0.  1.
          2   -1    0    0  501    0  0.00000000000E+00 -0.00000000000E+00 -0.66245238681E+03  0.66245238681E+03  0.00000000000E+00 0. -1.
         25    2    1    2    0    0 -0.46354224637E+02  0.41212950051E+02 -0.41367217472E+03  0.43660079413E+03  0.12509342070E+03 0.  0.
          5    1    3    3  502    0 -0.16455900317E+02 -0.36753136646E+02 -0.24524343985E+03  0.24856268203E+03  0.41800000000E+01 0.  1.
         -5    1    3    3    0  502 -0.29898324321E+02  0.77966086697E+02 -0.16842873488E+03  0.18803811210E+03  0.41800000000E+01 0.  1.
        -11    1    1    2    0    0  0.69820767605E+02 -0.41856343950E+02 -0.16088793723E+03  0.18031034764E+03  0.00000000000E+00 0.  1.
         11    1    1    2    0    0 -0.23466542968E+02  0.64339389912E+00 -0.64651714394E+02  0.68781805506E+02  0.00000000000E+00 0. -1.
</event>
<event>
 7    1  0.2873461E-009  0.9853334E+02  0.7561462E-02  0.1283411E+00
          1   -1    0    0  501    0  0.00000000000E+00  0.00000000000E+00  0.75110214835E+03  0.75110214835E+03  0.00000000000E+00 0. -1.
         -1   -1    0    0    0  501 -0.00000000000E+00 -0.00000000000E+00 -0.28789859593E+02  0.28789859593E+02  0.00000000000E+00 0.  1.
         25    2    1    2    0    0  0.59883724034E+02  0.35645370388E+02  0.52504515323E+03  0.54422148802E+03  0.12509181532E+03 0.  0.
          5    1    3    3  502    0 -0.83188160285E+01  0.62180926417E+01  0.38901122433E+03  0.38917229144E+03  0.41800000000E+01 0. -1.
         -5    1    3    3    0  502  0.68202540063E+02  0.29427277747E+02  0.13603392890E+03  0.15504919658E+03  0.41800000000E+01 0. -1.
        -11    1    1    2    0    0 -0.62824958097E+02  0.11811376505E+02  0.16820888601E+03  0.17994641788E+03  0.00000000000E+00 0. -1.
         11    1    1    2    0    0  0.29412340623E+01 -0.47456746893E+02  0.29058249519E+02  0.55724102044E+02  0.00000000000E+00 0.  1.
</event>
<event>
 7    1  0.2873461E-009  0.8676125E+02  0.7561462E-02  0.1310890E+00
         -1   -1    0    0    0  501 -0.00000000000E+00  0.00000000000E+00  0.40441144717E+02  0.40441144717E+02  0.00000000000E+00 0.  1.
          1   -1    0    0  501    0  0.00000000000E+00 -0.00000000000E+00 -0.41079568196E+03  0.41079568196E+03  0.00000000000E+00 0. -1.
         25    2    1    2    0    0  0.57490822502E+02 -0.39748564567E+02 -0.20589207817E+03  0.25084688054E+03  0.12508983399E+03 0.  0.
          5    1    3    3  502    0  0.44499463216E+01 -0.43803585404E+02 -0.19013255501E+03  0.19520864989E+03  0.41800000000E+01 0. -1.
         -5    1    3    3    0  502  0.53040876181E+02  0.40550208372E+01 -0.15759523159E+02  0.55638230653E+02  0.41800000000E+01 0. -1.
        -11    1    1    2    0    0 -0.35281506874E+02  0.63826009994E+01 -0.15515228939E+03  0.15924118571E+03  0.00000000000E+00 0. -1.
         11    1    1    2    0    0 -0.22209315628E+02  0.33365963568E+02 -0.93101696884E+01  0.41148760432E+02  0.00000000000E+00 0.  1.
</event>
<event>
 7    1  0.2873461E-009  0.7683527E+02  0.7561462E-02  0.1338280E+00
          2   -1    0    0  501    0  0.00000000000E+00  0.00000000000E+00  0.37438408604E+03  0.37438408604E+03  0.00000000000E+00 0. -1.
         -2   -1    0    0    0  501 -0.00000000000E+00 -0.00000000000E+00 -0.33508361373E+02  0.33508361373E+02  0.00000000000E+00 0.  1.
         25    2    1    2    0    0  0.20659674273E+02  0.11805690468E+02  0.22258986838E+03  0.25643697320E+03  0.12508986870E+03 0.  0.
          5    1    3    3  502    0 -0.42096927459E+02 -0.30508593732E+01  0.26595165286E+02  0.50062303792E+02  0.41800000000E+01 0.  1.
         -5    1    3    3    0  502  0.62756601732E+02  0.14856549842E+02  0.19599470309E+03  0.20637466941E+03  0.41800000000E+01 0.  1.
        -11    1    1    2    0    0  0.11182523215E+02  0.29057447952E+01 -0.11924252679E+02  0.16603613469E+02  0.00000000000E+00 0.  1.
         11    1    1    2    0    0 -0.31842197488E+02 -0.14711435264E+02  0.13021010897E+03  0.13485186075E+03  0.00000000000E+00 0. -1.
</event>
<event>
 7    1  0.2873461E-009  0.1468624E+03  0.7561462E-02  0.1204382E+00
         -4   -1    0    0    0  501 -0.00000000000E+00  0.00000000000E+00  0.18006268138E+03  0.18006268138E+03  0.00000000000E+00 0.  1.
          4   -1    0    0  501    0  0.00000000000E+00 -0.00000000000E+00 -0.14773974917E+03  0.14773974917E+03  0.00000000000E+00 0. -1.
         25    2    1    2    0    0  0.20203210395E+02  0.99679910795E+02  0.81439510855E+02  0.18062687366E+03  0.12509763881E+03 0.  0.
          5    1    3    3  502    0  0.44580388698E+01 -0.28065235060E+02  0.90183203899E+00  0.28737035870E+02  0.41800000000E+01 0. -1.
         -5    1    3    3    0  502  0.15745171526E+02  0.12774514585E+03  0.80537678816E+02  0.15188983779E+03  0.41800000000E+01 0. -1.
        -11    1    1    2    0    0 -0.30687102469E+01 -0.11390869299E+03 -0.50962525105E+02  0.12482702547E+03  0.00000000000E+00 0. -1.
         11    1    1    2    0    0 -0.17134500148E+02  0.14228782199E+02  0.18459464638E+01  0.22348531419E+02  0.00000000000E+00 0.  1.
</event>
<event>
 7    1  0.2873461E-009  0.1068957E+03  0.7561462E-02  0.1266429E+00
          2   -1    0    0  501    0  0.00000000000E+00  0.00000000000E+00  0.57580914899E+03  0.57580914899E+03  0.00000000000E+00 0. -1.
         -2   -1    0    0    0  501 -0.00000000000E+00 -0.00000000000E+00 -0.43331413844E+02  0.43331413844E+02  0.00000000000E+00 0.  1.
         25    2    1    2    0    0  0.10808813957E+01  0.27355927816E+02  0.49759213993E+03  0.51380414582E+03  0.12508895816E+03 0.  0.
          5    1    3    3  502    0 -0.51989108763E+02  0.32220898594E+02  0.14872570960E+03  0.16086597786E+03  0.41800000000E+01 0. -1.
         -5    1    3    3    0  502  0.53069990158E+02 -0.48649707781E+01  0.34886643033E+03  0.35293816797E+03  0.41800000000E+01 0. -1.
        -11    1    1    2    0    0  0.14904033006E+02  0.33203367962E+02  0.17195808518E+02  0.40252821944E+02  0.00000000000E+00 0. -1.
         11    1    1    2    0    0 -0.15984914402E+02 -0.60559295777E+02  0.17689786699E+02  0.65083595068E+02  0.00000000000E+00 0.  1.
</event>
<event>
 7    1  0.2873461E-009  0.1021013E+03  0.7561462E-02  0.1275938E+00
          3   -1    0    0  501    0  0.00000000000E+00  0.00000000000E+00  0.26587277812E+02  0.26587277812E+02  0.00000000000E+00 0. -1.
         -3   -1    0    0    0  501 -0.00000000000E+00 -0.00000000000E+00 -0.70598352233E+03  0.70598352233E+03  0.00000000000E+00 0.  1.
         25    2    1    2    0    0 -0.60124865824E+02  0.52610375193E+02 -0.40835182916E+03  0.43448840245E+03  0.12508438918E+03 0.  0.
          5    1    3    3  502    0 -0.24109706920E+02  0.75618398177E+02 -0.12658246739E+03  0.14946576050E+03  0.41800000000E+01 0.  1.
         -5    1    3    3    0  502 -0.36015158904E+02 -0.23008022984E+02 -0.28176936177E+03  0.28502264196E+03  0.41800000000E+01 0.  1.
        -11    1    1    2    0    0  0.40952743293E+02 -0.45794698858E+02 -0.27085393853E+03  0.27773393318E+03  0.00000000000E+00 0.  1.
         11    1    1    2    0    0  0.19172122530E+02 -0.68156763355E+01 -0.19047682554E+00  0.20348464504E+02  0.00000000000E+00 0. -1.
</event>
<event>
 7    1  0.2873461E-009  0.1987063E+03  0.7561462E-02  0.1150835E+00
         -2   -1    0    0    0  501 -0.00000000000E+00  0.00000000000E+00  0.12985654524E+03  0.12985654524E+03  0.00000000000E+00 0. -1.
          2   -1    0    0  501    0  0.00000000000E+00 -0.00000000000E+00 -0.62910470113E+03  0.62910470113E+03  0.00000000000E+00 0.  1.
         25    2    1    2    0    0  0.18623855288E+03  0.54098983955E+02 -0.17356716801E+02  0.23142835818E+03  0.12508529373E+03 0.  0.
          5    1    3    3  502    0  0.13258209809E+03  0.99359062565E+01  0.42469635295E+02  0.13963479970E+03  0.41800000000E+01 0. -1.
         -5    1    3    3    0  502  0.53656454790E+02  0.44163077699E+02 -0.59826352096E+02  0.91793558475E+02  0.41800000000E+01 0. -1.
        -11    1    1    2    0    0 -0.63968725647E+02 -0.97414620684E+01 -0.27993870391E+03  0.28731963367E+03  0.00000000000E+00 0.  1.
         11    1    1    2    0    0 -0.12226982723E+03 -0.44357521887E+02 -0.20195273518E+03  0.24021325452E+03  0.00000000000E+00 0. -1.
</event>
<event>
 7    1  0.2873461E-009  0.9047865E+02  0.7561462E-02  0.1301697E+00
         -1   -1    0    0    0  501 -0.00000000000E+00  0.00000000000E+00  0.46651514657E+02  0.46651514657E+02  0.00000000000E+00 0.  1.
          1   -1    0    0  501    0  0.00000000000E+00 -0.00000000000E+00 -0.28104132317E+03  0.28104132317E+03  0.00000000000E+00 0. -1.
         25    2    1    2    0    0  0.10750400799E+02  0.25185034164E+02 -0.10145862730E+03  0.16339131328E+03  0.12511199439E+03 0.  0.
          5    1    3    3  502    0 -0.34095614929E+02  0.53500359154E+02 -0.87910188718E+02  0.10849181106E+03  0.41800000000E+01 0. -1.
         -5    1    3    3    0  502  0.44846015728E+02 -0.28315324991E+02 -0.13548438584E+02  0.54899502221E+02  0.41800000000E+01 0. -1.
        -11    1    1    2    0    0 -0.20527579258E+02 -0.40846308736E+02 -0.13781896386E+03  0.14520285551E+03  0.00000000000E+00 0. -1.
         11    1    1    2    0    0  0.97771784595E+01  0.15661274572E+02  0.48877826478E+01  0.19098669039E+02  0.00000000000E+00 0.  1.
</event>
<event>
 7    1  0.2873461E-009  0.2278338E+03  0.7561462E-02  0.1128174E+00
         -2   -1    0    0    0  501 -0.00000000000E+00  0.00000000000E+00  0.19209150414E+03  0.19209150414E+03  0.00000000000E+00 0.  1.
          2   -1    0    0  501    0  0.00000000000E+00 -0.00000000000E+00 -0.50492876353E+03  0.50492876353E+03  0.00000000000E+00 0. -1.
         25    2    1    2    0    0  0.49186503675E+02 -0.22157969762E+03 -0.36389501420E+03  0.44674845487E+03  0.12509087110E+03 0.  0.
          5    1    3    3  502    0  0.39195081183E+02 -0.15770616252E+03 -0.34147537170E+03  0.37819358795E+03  0.41800000000E+01 0.  1.
         -5    1    3    3    0  502  0.99914224921E+01 -0.63873535101E+02 -0.22419642497E+02  0.68554866928E+02  0.41800000000E+01 0.  1.
        -11    1    1    2    0    0 -0.31724838118E+02  0.86747787459E+02  0.65958722361E+02  0.11349976669E+03  0.00000000000E+00 0.  1.
         11    1    1    2    0    0 -0.17461665556E+02  0.13483191016E+03 -0.14900967558E+02  0.13677204611E+03  0.00000000000E+00 0. -1.
</event>
<event>
 7    1  0.2873461E-009  0.1128989E+03  0.7561462E-02  0.1255294E+00
         -2   -1    0    0    0  501 -0.00000000000E+00  0.00000000000E+00  0.47359913029E+02  0.47359913029E+02  0.00000000000E+00 0.  1.
          2   -1    0    0  501    0  0.00000000000E+00 -0.00000000000E+00 -0.45444372096E+03  0.45444372096E+03  0.00000000000E+00 0. -1.
         25    2    1    2    0    0  0.94627662988E+02 -0.25166397201E+02 -0.21782278850E+03  0.26959510909E+03  0.12508802302E+03 0.  0.
          5    1    3    3  502    0  0.41023739506E+02 -0.44801186073E+02 -0.20672115984E+02  0.64303205643E+02  0.41800000000E+01 0.  1.
         -5    1    3    3    0  502  0.53603923482E+02  0.19634788873E+02 -0.19715067252E+03  0.20529190344E+03  0.41800000000E+01 0.  1.
        -11    1    1    2    0    0 -0.65828986523E+02  0.38142915163E+02 -0.18537865379E+03  0.20038358896E+03  0.00000000000E+00 0. -1.
         11    1    1    2    0    0 -0.28798676465E+02 -0.12976517963E+02 -0.38823656407E+01  0.31824935939E+02  0.00000000000E+00 0.  1.
</event>
<event>
 7    1  0.2873461E-009  0.1308404E+03  0.7561462E-02  0.1226214E+00
          1   -1    0    0  501    0  0.00000000000E+00  0.00000000000E+00  0.47824369402E+03  0.47824369402E+03  0.00000000000E+00 0. -1.
         -1   -1    0    0    0  501 -0.00000000000E+00 -0.00000000000E+00 -0.46292997362E+02  0.46292997362E+02  0.00000000000E+00 0.  1.
         25    2    1    2    0    0 -0.23005405061E+02  0.97292368260E+02  0.28382659287E+03  0.32587974839E+03  0.12508006240E+03 0.  0.
          5    1    3    3  502    0  0.49504481669E+02  0.50748492103E+02  0.98212364828E+02  0.12119919208E+03  0.41800000000E+01 0.  1.
         -5    1    3    3    0  502 -0.72509886730E+02  0.46543876157E+02  0.18561422804E+03  0.20468055631E+03  0.41800000000E+01 0.  1.
        -11    1    1    2    0    0 -0.66049154263E+01 -0.32449087103E+02 -0.12578942580E+01  0.33138353302E+02  0.00000000000E+00 0.  1.
         11    1    1    2    0    0  0.29610320487E+02 -0.64843281157E+02  0.14938199805E+03  0.16551858969E+03  0.00000000000E+00 0. -1.
</event>
<event>
 7    1  0.2873461E-009  0.1054760E+03  0.7561462E-02  0.1269185E+00
          2   -1    0    0  501    0  0.00000000000E+00  0.00000000000E+00  0.81739308393E+02  0.81739308393E+02  0.00000000000E+00 0. -1.
         -2   -1    0    0    0  501 -0.00000000000E+00 -0.00000000000E+00 -0.17154868927E+03  0.17154868927E+03  0.00000000000E+00 0.  1.
         25    2    1    2    0    0  0.30038025404E+02 -0.37056902101E+02 -0.52494344777E+02  0.14380590790E+03  0.12509590701E+03 0.  0.
          5    1    3    3  502    0  0.73902774462E+02 -0.35843050202E+02 -0.10474848632E+02  0.82906810184E+02  0.41800000000E+01 0.  1.
         -5    1    3    3    0  502 -0.43864749058E+02 -0.12138518992E+01 -0.42019496145E+02  0.60899097716E+02  0.41800000000E+01 0.  1.
        -11    1    1    2    0    0 -0.47189752950E+02  0.39641912211E+01  0.10846084885E+02  0.48582148500E+02  0.00000000000E+00 0. -1.
         11    1    1    2    0    0  0.17151727546E+02  0.33092710880E+02 -0.48161120986E+02  0.60899941263E+02  0.00000000000E+00 0.  1.
</event>
<event>
 7    1  0.2873461E-009  0.5904963E+02  0.7561462E-02  0.1401864E+00
          1   -1    0    0  501    0  0.00000000000E+00  0.00000000000E+00  0.76923415149E+03  0.76923415149E+03  0.00000000000E+00 0. -1.
         -1   -1    0    0    0  501 -0.00000000000E+00 -0.00000000000E+00 -0.20072030439E+02  0.20072030439E+02  0.00000000000E+00 0.  1.
         25    2    1    2    0    0  0.33637896243E+02 -0.20148678927E+02  0.55055118979E+03  0.56594226274E+03  0.12508618970E+03 0.  0.
          5    1    3    3  502    0  0.15815429924E+02 -0.20001650514E+02  0.14600407403E+02  0.29678917488E+02  0.41800000000E+01 0.  1.
         -5    1    3    3    0  502  0.17822466320E+02 -0.14702841338E+00  0.53595078238E+03  0.53626334525E+03  0.41800000000E+01 0.  1.
        -11    1    1    2    0    0  0.14074310080E+02  0.22100201092E+02  0.88016731312E+01  0.27640089407E+02  0.00000000000E+00 0. -1.
         11    1    1    2    0    0 -0.47712206323E+02 -0.19515221647E+01  0.18980925814E+03  0.19572382978E+03  0.00000000000E+00 0.  1.
</event>
<event>
 7    1  0.2873461E-009  0.1114480E+03  0.7561462E-02  0.1257912E+00
          2   -1    0    0  501    0  0.00000000000E+00  0.00000000000E+00  0.74723624994E+03  0.74723624994E+03  0.00000000000E+00 0. -1.
         -2   -1    0    0    0  501 -0.00000000000E+00 -0.00000000000E+00 -0.27826343190E+02  0.27826343190E+02  0.00000000000E+00 0.  1.
         25    2    1    2    0    0 -0.86367363713E+02  0.13521824334E+02  0.32913379092E+03  0.36279309578E+03  0.12509043438E+03 0.  0.
          5    1    3    3  502    0 -0.83170572667E+02 -0.82289625164E+01  0.32995374342E+03  0.34039977259E+03  0.41800000000E+01 0.  1.
         -5    1    3    3    0  502 -0.31967910460E+01  0.21750786850E+02 -0.81995249676E+00  0.22393323194E+02  0.41800000000E+01 0.  1.
        -11    1    1    2    0    0  0.15036259997E+02 -0.38441718530E+02  0.24566321260E+03  0.24910694262E+03  0.00000000000E+00 0. -1.
         11    1    1    2    0    0  0.71331103716E+02  0.24919894196E+02  0.14461290323E+03  0.16316255473E+03  0.00000000000E+00 0.  1.
</event>
<event>
 7    1  0.2873461E-009  0.9968854E+02  0.7561462E-02  0.1280952E+00
          1   -1    0    0  501    0  0.00000000000E+00  0.00000000000E+00  0.48257060588E+03  0.48257060588E+03  0.00000000000E+00 0. -1.
         -1   -1    0    0    0  501 -0.00000000000E+00 -0.00000000000E+00 -0.32519042308E+02  0.32519042308E+02  0.00000000000E+00 0.  1.
         25    2    1    2    0    0 -0.26060031042E+02 -0.32682626675E+02  0.35190435368E+03  0.37580540334E+03  0.12508296341E+03 0.  0.
          5    1    3    3  502    0 -0.54967559418E+02  0.34077723872E+01  0.65572369421E+02  0.85733619616E+02  0.41800000000E+01 0. -1.
         -5    1    3    3    0  502  0.28907528377E+02 -0.36090399062E+02  0.28633198426E+03  0.29007178372E+03  0.41800000000E+01 0. -1.
        -11    1    1    2    0    0  0.21670418495E+02 -0.28819676155E+02  0.26440309960E+02  0.44713205681E+02  0.00000000000E+00 0. -1.
         11    1    1    2    0    0  0.43896125462E+01  0.61502302831E+02  0.71706899930E+02  0.94571039168E+02  0.00000000000E+00 0.  1.
</event>
<event>
 7    1  0.2873461E-009  0.1118207E+03  0.7561462E-02  0.1257235E+00
         -2   -1    0    0    0  501 -0.00000000000E+00  0.00000000000E+00  0.72168280792E+01  0.72168280792E+01  0.00000000000E+00 0. -1.
          2   -1    0    0  501    0  0.00000000000E+00 -0.00000000000E+00 -0.21300630485E+04  0.21300630485E+04  0.00000000000E+00 0.  1.
         25    2    1    2    0    0 -0.37467386293E+02 -0.44234003735E+01 -0.15978329727E+04  0.16031665873E+04  0.12509806736E+03 0.  0.
          5    1    3    3  502    0 -0.62507278995E+02 -0.45530050727E+02 -0.75824822733E+03  0.76219288379E+03  0.41800000000E+01 0. -1.
         -5    1    3    3    0  502  0.25039892702E+02  0.41106650354E+02 -0.83958474534E+03  0.84097370348E+03  0.41800000000E+01 0. -1.
        -11    1    1    2    0    0  0.42352046645E+02 -0.36960686606E+02 -0.32157261588E+03  0.32644867207E+03  0.00000000000E+00 0.  1.
         11    1    1    2    0    0 -0.48846603525E+01  0.41384086979E+02 -0.20344063185E+03  0.20766461723E+03  0.00000000000E+00 0. -1.
</event>
<event>
 7    1  0.2873461E-009  0.1034152E+03  0.7561462E-02  0.1273274E+00
         -2   -1    0    0    0  501 -0.00000000000E+00  0.00000000000E+00  0.67256950614E+01  0.67256950614E+01  0.00000000000E+00 0.  1.
          2   -1    0    0  501    0  0.00000000000E+00 -0.00000000000E+00 -0.23653570446E+04  0.23653570446E+04  0.00000000000E+00 0. -1.
         25    2    1    2    0    0 -0.14935520485E+02  0.35261210916E+01 -0.18591717465E+04  0.18634382887E+04  0.12508864704E+03 0.  0.
          5    1    3    3  502    0  0.43457243515E+02  0.22876468545E+02 -0.40944006686E+03  0.41239605427E+03  0.41800000000E+01 0. -1.
         -5    1    3    3    0  502 -0.58392764000E+02 -0.19350347453E+02 -0.14497316796E+04  0.14510422345E+04  0.41800000000E+01 0. -1.
        -11    1    1    2    0    0 -0.38744769268E+02  0.10995899207E+02 -0.23117067682E+03  0.23465282603E+03  0.00000000000E+00 0. -1.
         11    1    1    2    0    0  0.53680289753E+02 -0.14522020298E+02 -0.26828892619E+03  0.27399162487E+03  0.00000000000E+00 0.  1.
</event>
<event>
 7    1  0.2873461E-009  0.8911430E+02  0.7561462E-02  0.1305011E+00
          1   -1    0    0  501    0  0.00000000000E+00  0.00000000000E+00  0.23247057978E+03  0.23247057978E+03  0.00000000000E+00 0. -1.
         -1   -1    0    0    0  501 -0.00000000000E+00 -0.00000000000E+00 -0.78544793793E+02  0.78544793793E+02  0.00000000000E+00 0.  1.
         25    2    1    2    0    0 -0.77293803326E+02  0.16490084400E+01  0.57663959256E+02  0.15795528158E+03  0.12509071716E+03 0.  0.
          5    1    3    3  502    0 -0.64585279450E+02  0.40971995976E+01 -0.28419651761E+02  0.70803914951E+02  0.41800000000E+01 0.  1.
         -5    1    3    3    0  502 -0.12708523877E+02 -0.24481911576E+01  0.86083611017E+02  0.87151366626E+02  0.41800000000E+01 0.  1.
        -11    1    1    2    0    0  0.48916148638E+01 -0.23615706945E+02 -0.69387775968E+01  0.25095341102E+02  0.00000000000E+00 0.  1.
         11    1    1    2    0    0  0.72402188463E+02  0.21966698505E+02  0.10320060432E+03  0.12796475089E+03  0.00000000000E+00 0. -1.
</event>
<event>
 7    1  0.2873461E-009  0.1187086E+03  0.7561462E-02  0.1245243E+00
          3   -1    0    0  501    0  0.00000000000E+00  0.00000000000E+00  0.65452054061E+03  0.65452054061E+03  0.00000000000E+00 0. -1.
         -3   -1    0    0    0  501 -0.00000000000E+00 -0.00000000000E+00 -0.33939249280E+02  0.33939249280E+02  0.00000000000E+00 0.  1.
         25    2    1    2    0    0  0.36985555611E+02  0.66200858177E+02  0.49732503208E+03  0.51839615893E+03  0.12510757416E+03 0.  0.
          5    1    3    3  502    0 -0.39142648018E+02  0.57231094308E+02  0.22856180724E+03  0.23888389895E+03  0.41800000000E+01 0.  1.
         -5    1    3    3    0  502  0.76128203629E+02  0.89697638693E+01  0.26876322484E+03  0.27951225998E+03  0.41800000000E+01 0.  1.
        -11    1    1    2    0    0 -0.48351210205E+02 -0.40455077004E+02  0.24937375045E+02  0.67796205335E+02  0.00000000000E+00 0.  1.
         11    1    1    2    0    0  0.11365654594E+02 -0.25745781173E+02  0.98318884207E+02  0.10226742563E+03  0.00000000000E+00 0. -1.
</event>
<event>
 7    1  0.2873461E-009  0.1473723E+03  0.7561462E-02  0.1203740E+00
          2   -1    0    0  501    0  0.00000000000E+00  0.00000000000E+00  0.44146874194E+03  0.44146874194E+03  0.00000000000E+00 0.  1.
         -2   -1    0    0    0  501 -0.00000000000E+00 -0.00000000000E+00 -0.50363136795E+02  0.50363136795E+02  0.00000000000E+00 0. -1.
         25    2    1    2    0    0 -0.10112366793E+03  0.61563202256E+01  0.18965764649E+03  0.24876019198E+03  0.12509082200E+03 0.  0.
          5    1    3    3  502    0 -0.12707310673E+03  0.21044855144E+02  0.13724885481E+03  0.18826890591E+03  0.41800000000E+01 0.  1.
         -5    1    3    3    0  502  0.25949438807E+02 -0.14888534918E+02  0.52408791673E+02  0.60491286075E+02  0.41800000000E+01 0.  1.
        -11    1    1    2    0    0  0.79801832892E+02 -0.44809065843E+02  0.12744184242E+03  0.15689999399E+03  0.00000000000E+00 0. -1.
         11    1    1    2    0    0  0.21321835035E+02  0.38652745618E+02  0.74006116238E+02  0.86171692763E+02  0.00000000000E+00 0.  1.
</event>
<event>
 7    1  0.2873461E-009  0.7887502E+02  0.7561462E-02  0.1332275E+00
         -4   -1    0    0    0  501 -0.00000000000E+00  0.00000000000E+00  0.95109724260E+02  0.95109724260E+02  0.00000000000E+00 0.  1.
          4   -1    0    0  501    0  0.00000000000E+00 -0.00000000000E+00 -0.17086514386E+03  0.17086514386E+03  0.00000000000E+00 0. -1.
         25    2    1    2    0    0  0.60271541663E+01  0.32407398989E+02 -0.10293301922E+03  0.16531279801E+03  0.12508616488E+03 0.  0.
          5    1    3    3  502    0  0.18201865037E+02  0.71083441634E+02 -0.25477870855E+02  0.77786617542E+02  0.41800000000E+01 0. -1.
         -5    1    3    3    0  502 -0.12174710870E+02 -0.38676042645E+02 -0.77455148362E+02  0.87526180467E+02  0.41800000000E+01 0. -1.
        -11    1    1    2    0    0  0.11393412104E+02 -0.15301985149E+02 -0.31657998458E+02  0.36962000152E+02  0.00000000000E+00 0. -1.
         11    1    1    2    0    0 -0.17420566271E+02 -0.17105413840E+02  0.58835598076E+02  0.63700069959E+02  0.00000000000E+00 0.  1.
</event>
<event>
 7    1  0.2873461E-009  0.1094258E+03  0.7561462E-02  0.1261637E+00
          1   -1    0    0  501    0  0.00000000000E+00  0.00000000000E+00  0.99913938584E+02  0.99913938584E+02  0.00000000000E+00 0. -1.
         -1   -1    0    0    0  501 -0.00000000000E+00 -0.00000000000E+00 -0.13768719196E+03  0.13768719196E+03  0.00000000000E+00 0.  1.
         25    2    1    2    0    0  0.28836525549E+01 -0.34562978710E+02 -0.42164629555E+02  0.13648362895E+03  0.12508800916E+03 0.  0.
          5    1    3    3  502    0 -0.54639840770E+02 -0.22322062873E+02 -0.49399451257E+02  0.77081546914E+02  0.41800000000E+01 0.  1.
         -5    1    3    3    0  502  0.57523493325E+02 -0.12240915837E+02  0.72348217019E+01  0.59402082033E+02  0.41800000000E+01 0.  1.
        -11    1    1    2    0    0  0.26930839825E+01 -0.32908647823E+02 -0.22233223107E+01  0.33093427821E+02  0.00000000000E+00 0.  1.
         11    1    1    2    0    0 -0.55767365374E+01  0.67471626533E+02  0.66146984862E+01  0.68024073779E+02  0.00000000000E+00 0. -1.
</event>
<event>
 7    1  0.2873461E-009  0.1618041E+03  0.7561462E-02  0.1186675E+00
         -2   -1    0    0    0  501 -0.00000000000E+00  0.00000000000E+00  0.34592572513E+02  0.34592572513E+02  0.00000000000E+00 0.  1.
          2   -1    0    0  501    0  0.00000000000E+00 -0.00000000000E+00 -0.80887485906E+03  0.80887485906E+03  0.00000000000E+00 0. -1.
         25    2    1    2    0    0 -0.55323621435E+02  0.11313197653E+03 -0.41880295187E+03  0.45486646187E+03  0.12509211983E+03 0.  0.
          5    1    3    3  502    0 -0.22982628680E+02 -0.20368300375E+02 -0.14775592038E+03  0.15097136579E+03  0.41800000000E+01 0.  1.
         -5    1    3    3    0  502 -0.32340992755E+02  0.13350027690E+03 -0.27104703148E+03  0.30389509608E+03  0.41800000000E+01 0.  1.
        -11    1    1    2    0    0 -0.16194328396E+02 -0.69613709294E+02 -0.19326380867E+03  0.20605636252E+03  0.00000000000E+00 0.  1.
         11    1    1    2    0    0  0.71517949831E+02 -0.43518267233E+02 -0.16221552600E+03  0.18254460717E+03  0.00000000000E+00 0. -1.
</event>
<event>
 7    1  0.2873461E-009  0.1222758E+03  0.7561462E-02  0.1239389E+00
         -2   -1    0    0    0  501 -0.00000000000E+00  0.00000000000E+00  0.16308819327E+02  0.16308819327E+02  0.00000000000E+00 0.  1.
          2   -1    0    0  501    0  0.00000000000E+00 -0.00000000000E+00 -0.11381203394E+04  0.11381203394E+04  0.00000000000E+00 0. -1.
         25    2    1    2    0    0 -0.79760300244E+02  0.15075587805E+02 -0.61237230567E+03  0.63026712662E+03  0.12509129187E+03 0.  0.
          5    1    3    3  502    0  0.11474017888E+02 -0.26294117197E+02 -0.31738417208E+03  0.31870553615E+03  0.41800000000E+01 0.  1.
         -5    1    3    3    0  502 -0.91234318132E+02  0.41369705001E+02 -0.29498813359E+03  0.31156159047E+03  0.41800000000E+01 0.  1.
        -11    1    1    2    0    0  0.91639742550E+02  0.52116752451E+01 -0.46410524689E+03  0.47309479405E+03  0.00000000000E+00 0.  1.
         11    1    1    2    0    0 -0.11879442305E+02 -0.20287263050E+02 -0.45333967506E+02  0.51067238043E+02  0.00000000000E+00 0. -1.
</event>
<event>
 7    1  0.3547488E-009  0.1452043E+03  0.7561462E-02  0.1206493E+00
         -2   -1    0    0    0  501 -0.00000000000E+00  0.00000000000E+00  0.12409839241E+03  0.12409839241E+03  0.00000000000E+00 0.  1.
          2   -1    0    0  501    0  0.00000000000E+00 -0.00000000000E+00 -0.26607366666E+03  0.26607366666E+03  0.00000000000E+00 0. -1.
         25    2    1    2    0    0 -0.79619987612E+02 -0.78216478510E+02 -0.17508092915E+03  0.24239955085E+03  0.12508817116E+03 0.  0.
          5    1    3    3  502    0  0.28134341592E+01  0.23330285253E+02 -0.71886899422E+02  0.75745734733E+02  0.41800000000E+01 0. -1.
         -5    1    3    3    0  502 -0.82433421771E+02 -0.10154676376E+03 -0.10319402973E+03  0.16665381612E+03  0.41800000000E+01 0. -1.
        -11    1    1    2    0    0  0.56112950220E+02  0.22484908732E+01 -0.10422597857E+02  0.57116980310E+02  0.00000000000E+00 0.  1.
         11    1    1    2    0    0  0.23507037391E+02  0.75967987637E+02  0.43528252753E+02  0.90655527908E+02  0.00000000000E+00 0. -1.
</event>
<event>
 7    1  0.2873461E-009  0.1083807E+03  0.7561462E-02  0.1263598E+00
         -2   -1    0    0    0  501 -0.00000000000E+00  0.00000000000E+00  0.80617959013E+02  0.80617959013E+02  0.00000000000E+00 0.  1.
          2   -1    0    0  501    0  0.00000000000E+00 -0.00000000000E+00 -0.20173383790E+03  0.20173383790E+03  0.00000000000E+00 0. -1.
         25    2    1    2    0    0 -0.53012646540E+02  0.54305266649E+02 -0.11898329690E+03  0.18858531202E+03  0.12509193535E+03 0.  0.
          5    1    3    3  502    0 -0.46950597484E+02 -0.29751959528E+02 -0.21722028309E+02  0.59823545646E+02  0.41800000000E+01 0.  1.
         -5    1    3    3    0  502 -0.60620490560E+01  0.84057226177E+02 -0.97261268592E+02  0.12876176637E+03  0.41800000000E+01 0.  1.
        -11    1    1    2    0    0  0.36216568955E+02 -0.43788245054E+02  0.23392856189E+02  0.61451411639E+02  0.00000000000E+00 0.  1.
         11    1    1    2    0    0  0.16796077585E+02 -0.10517021595E+02 -0.25525438179E+02  0.32315073259E+02  0.00000000000E+00 0. -1.
</event>
<event>
 7    1  0.2873461E-009  0.6385157E+02  0.7561462E-02  0.1382344E+00
         -3   -1    0    0    0  501 -0.00000000000E+00  0.00000000000E+00  0.15031144210E+03  0.15031144210E+03  0.00000000000E+00 0.  1.
          3   -1    0    0  501    0  0.00000000000E+00 -0.00000000000E+00 -0.87975588251E+02  0.87975588251E+02  0.00000000000E+00 0. -1.
         25    2    1    2    0    0  0.11320776219E+02  0.13905839286E+02  0.15074402420E+02  0.12726516306E+03  0.12509057431E+03 0.  0.
          5    1    3    3  502    0  0.16905840408E+02  0.30622515560E+01 -0.54091228225E+02  0.56907980067E+02  0.41800000000E+01 0. -1.
         -5    1    3    3    0  502 -0.55850641889E+01  0.10843587730E+02  0.69165630645E+02  0.70357182997E+02  0.41800000000E+01 0. -1.
        -11    1    1    2    0    0 -0.28236628019E+01 -0.55046200925E+02  0.40670561089E+02  0.68499283552E+02  0.00000000000E+00 0.  1.
         11    1    1    2    0    0 -0.84971134170E+01  0.41140361639E+02  0.65908903439E+01  0.42522583738E+02  0.00000000000E+00 0. -1.
</event>
<event>
 7    1  0.2873461E-009  0.1805707E+03  0.7561462E-02  0.1167252E+00
         -2   -1    0    0    0  501 -0.00000000000E+00  0.00000000000E+00  0.25710857695E+02  0.25710857695E+02  0.00000000000E+00 0. -1.
          2   -1    0    0  501    0  0.00000000000E+00 -0.00000000000E+00 -0.30733611297E+04  0.30733611297E+04  0.00000000000E+00 0.  1.
         25    2    1    2    0    0 -0.13438981256E+03  0.11403121697E+03 -0.26061854928E+04  0.26151316219E+04  0.12508731795E+03 0.  0.
          5    1    3    3  502    0 -0.63338286430E+02  0.21830677120E+02 -0.17219284785E+04  0.17232363373E+04  0.41800000000E+01 0. -1.
         -5    1    3    3    0  502 -0.71051526134E+02  0.92200539853E+02 -0.88425701431E+03  0.89189528459E+03  0.41800000000E+01 0. -1.
        -11    1    1    2    0    0  0.12690944785E+03 -0.99752746078E+02 -0.43886859831E+03  0.46761337115E+03  0.00000000000E+00 0.  1.
         11    1    1    2    0    0  0.74803647173E+01 -0.14278470894E+02 -0.25961809086E+01  0.16326994294E+02  0.00000000000E+00 0. -1.
</event>
<event>
 7    1  0.2873461E-009  0.6961997E+02  0.7561462E-02  0.1361390E+00
          1   -1    0    0  501    0  0.00000000000E+00  0.00000000000E+00  0.74489438540E+02  0.74489438540E+02  0.00000000000E+00 0. -1.
         -1   -1    0    0    0  501 -0.00000000000E+00 -0.00000000000E+00 -0.20450997714E+03  0.20450997714E+03  0.00000000000E+00 0.  1.
         25    2    1    2    0    0  0.14603577657E+02  0.27856441389E+02 -0.13351508493E+03  0.18564212234E+03  0.12508986320E+03 0.  0.
          5    1    3    3  502    0 -0.24658178181E+02  0.17507529899E+02  0.13269510515E+02  0.33288010809E+02  0.41800000000E+01 0.  1.
         -5    1    3    3    0  502  0.39261755837E+02  0.10348911490E+02 -0.14678459544E+03  0.15235411153E+03  0.41800000000E+01 0.  1.
        -11    1    1    2    0    0  0.15003828289E+02  0.11314742797E+02 -0.28943047128E+02  0.34508524236E+02  0.00000000000E+00 0.  1.
         11    1    1    2    0    0 -0.29607405946E+02 -0.39171184186E+02  0.32437593448E+02  0.58848769113E+02  0.00000000000E+00 0. -1.
</event>
<event>
 7    1  0.2873461E-009  0.7222419E+02  0.7561462E-02  0.1352689E+00
         -1   -1    0    0    0  501 -0.00000000000E+00  0.00000000000E+00  0.22391748407E+03  0.22391748407E+03  0.00000000000E+00 0.  1.
          1   -1    0    0  501    0  0.00000000000E+00 -0.00000000000E+00 -0.50519337292E+02  0.50519337292E+02  0.00000000000E+00 0. -1.
         25    2    1    2    0    0  0.55053261251E+01  0.13466529461E+01  0.85017226541E+02  0.15135407254E+03  0.12509198366E+03 0.  0.
          5    1    3    3  502    0  0.80425913316E+01 -0.34502659321E+02 -0.19567602097E+02  0.40687593040E+02  0.41800000000E+01 0.  1.
         -5    1    3    3    0  502 -0.25372652065E+01  0.35849312267E+02  0.10458482864E+03  0.11066647950E+03  0.41800000000E+01 0.  1.
        -11    1    1    2    0    0 -0.20217220092E+02 -0.32423653776E+02  0.78503303711E+02  0.87308636491E+02  0.00000000000E+00 0.  1.
         11    1    1    2    0    0  0.14711893967E+02  0.31077000830E+02  0.98776165290E+01  0.35774112329E+02  0.00000000000E+00 0. -1.
</event>
<event>
 7    1  0.2873461E-009  0.1021240E+03  0.7561462E-02  0.1275892E+00
          1   -1    0    0  501    0  0.00000000000E+00  0.00000000000E+00  0.60514016486E+03  0.60514016486E+03  0.00000000000E+00 0. -1.
         -1   -1    0    0    0  501 -0.00000000000E+00 -0.00000000000E+00 -0.25119303104E+02  0.25119303104E+02  0.00000000000E+00 0.  1.
         25    2    1    2    0    0 -0.86286942475E+01 -0.45089343232E+02  0.42367991529E+03  0.44413883553E+03  0.12508849412E+03 0.  0.
          5    1    3    3  502    0 -0.43068434167E+02  0.20523056230E+02  0.26060037729E+03  0.26496436535E+03  0.41800000000E+01 0.  1.
         -5    1    3    3    0  502  0.34439739919E+02 -0.65612399462E+02  0.16307953800E+03  0.17917447018E+03  0.41800000000E+01 0.  1.
        -11    1    1    2    0    0 -0.75590665500E+01 -0.16663585230E+02  0.11754513687E+01  0.18335655040E+02  0.00000000000E+00 0.  1.
         11    1    1    2    0    0  0.16187760798E+02  0.61752928462E+02  0.15516549509E+03  0.16778497740E+03  0.00000000000E+00 0. -1.
</event>
<event>
 7    1  0.4421985E-009  0.1705545E+03  0.7561462E-02  0.1177271E+00
          1   -1    0    0  501    0  0.00000000000E+00  0.00000000000E+00  0.12444454685E+04  0.12444454685E+04  0.00000000000E+00 0. -1.
         -1   -1    0    0    0  501 -0.00000000000E+00 -0.00000000000E+00 -0.26697148917E+02  0.26697148917E+02  0.00000000000E+00 0.  1.
         25    2    1    2    0    0  0.31806726256E+02  0.13678352549E+03  0.78321818537E+03  0.80548107770E+03  0.12509052704E+03 0.  0.
          5    1    3    3  502    0  0.56173007695E+02  0.20015475032E+02  0.15712095754E+03  0.16810857721E+03  0.41800000000E+01 0. -1.
         -5    1    3    3    0  502 -0.24366281440E+02  0.11676805046E+03  0.62609722783E+03  0.63737250049E+03  0.41800000000E+01 0. -1.
        -11    1    1    2    0    0  0.26458476323E+02 -0.60096884024E+02  0.12095159750E+03  0.13762621617E+03  0.00000000000E+00 0.  1.
         11    1    1    2    0    0 -0.58265202578E+02 -0.76686641467E+02  0.31357853672E+03  0.32803532356E+03  0.00000000000E+00 0. -1.
</event>
<event>
 7    1  0.2873461E-009  0.1180103E+03  0.7561462E-02  0.1246416E+00
          1   -1    0    0  501    0  0.00000000000E+00  0.00000000000E+00  0.42147182549E+03  0.42147182549E+03  0.00000000000E+00 0. -1.
         -1   -1    0    0    0  501 -0.00000000000E+00 -0.00000000000E+00 -0.61560613237E+02  0.61560613237E+02  0.00000000000E+00 0.  1.
         25    2    1    2    0    0 -0.64396255183E+02  0.32117481212E+02  0.32348077572E+03  0.35421404342E+03  0.12509742610E+03 0.  0.
          5    1    3    3  502    0 -0.39014628624E+02  0.71023781665E+02  0.11604618748E+03  0.14160052555E+03  0.41800000000E+01 0.  1.
         -5    1    3    3    0  502 -0.25381626559E+02 -0.38906300453E+02  0.20743458824E+03  0.21261351787E+03  0.41800000000E+01 0.  1.
        -11    1    1    2    0    0  0.83650402241E+02 -0.30000161079E+02  0.15038387240E+01  0.88880037076E+02  0.00000000000E+00 0.  1.
         11    1    1    2    0    0 -0.19254147058E+02 -0.21173201332E+01  0.34926597812E+02  0.39938358231E+02  0.00000000000E+00 0. -1.
</event>
<event>
 7    1  0.2873461E-009  0.1139197E+03  0.7561462E-02  0.1253479E+00
         -2   -1    0    0    0  501 -0.00000000000E+00  0.00000000000E+00  0.26085702021E+02  0.26085702021E+02  0.00000000000E+00 0.  1.
          2   -1    0    0  501    0  0.00000000000E+00 -0.00000000000E+00 -0.50213728495E+03  0.50213728495E+03  0.00000000000E+00 0. -1.
         25    2    1    2    0    0  0.10375031048E+02  0.39944394491E+02 -0.27163077965E+03  0.30188442295E+03  0.12509088073E+03 0.  0.
          5    1    3    3  502    0  0.63608667947E+02 -0.11266881849E+01 -0.14651310948E+03  0.15978390318E+03  0.41800000000E+01 0.  1.
         -5    1    3    3    0  502 -0.53233636899E+02  0.41071082676E+02 -0.12511767017E+03  0.14210051977E+03  0.41800000000E+01 0.  1.
        -11    1    1    2    0    0  0.38425106800E+02 -0.24332700132E+02 -0.85346005231E+02  0.96708374701E+02  0.00000000000E+00 0. -1.
         11    1    1    2    0    0 -0.48800137848E+02 -0.15611694358E+02 -0.11907479805E+03  0.12963018932E+03  0.00000000000E+00 0.  1.
</event>
<event>
 7    1  0.2873461E-009  0.9721771E+02  0.7561462E-02  0.1286258E+00
         -1   -1    0    0    0  501 -0.00000000000E+00  0.00000000000E+00  0.19391571466E+02  0.19391571466E+02  0.00000000000E+00 0.  1.
          1   -1    0    0  501    0  0.00000000000E+00 -0.00000000000E+00 -0.72209485044E+03  0.72209485044E+03  0.00000000000E+00 0. -1.
         25    2    1    2    0    0 -0.45158669087E+02  0.28956828819E+01 -0.39129595213E+03  0.41328923444E+03  0.12509108191E+03 0.  0.
          5    1    3    3  502    0 -0.43874922768E+00 -0.35218536893E+02 -0.27837527467E+02  0.45088115699E+02  0.41800000000E+01 0. -1.
         -5    1    3    3    0  502 -0.44719919859E+02  0.38114219775E+02 -0.36345842467E+03  0.36820111874E+03  0.41800000000E+01 0. -1.
        -11    1    1    2    0    0 -0.11674271150E+02  0.31524360538E+02 -0.67585008510E+02  0.75483821376E+02  0.00000000000E+00 0.  1.
         11    1    1    2    0    0  0.56832940236E+02 -0.34420043420E+02 -0.24382231833E+03  0.25271336609E+03  0.00000000000E+00 0. -1.
</event>
<event>
 7    1  0.2873461E-009  0.9713678E+02  0.7561462E-02  0.1286435E+00
         -1   -1    0    0    0  501 -0.00000000000E+00  0.00000000000E+00  0.33829274405E+03  0.33829274405E+03  0.00000000000E+00 0.  1.
          1   -1    0    0  501    0  0.00000000000E+00 -0.00000000000E+00 -0.69805515062E+02  0.69805515062E+02  0.00000000000E+00 0. -1.
         25    2    1    2    0    0 -0.21602748000E+02  0.46011180410E+02  0.27297161092E+03  0.30453975533E+03  0.12508898739E+03 0.  0.
          5    1    3    3  502    0 -0.42678767577E+02 -0.32361436038E+02  0.10530874895E+03  0.11822074585E+03  0.41800000000E+01 0. -1.
         -5    1    3    3    0  502  0.21076019578E+02  0.78372616448E+02  0.16766286197E+03  0.18631900948E+03  0.41800000000E+01 0. -1.
        -11    1    1    2    0    0 -0.98514554791E+00 -0.33401911585E+02 -0.44658084248E+02  0.55776363255E+02  0.00000000000E+00 0. -1.
         11    1    1    2    0    0  0.22587893547E+02 -0.12609268825E+02  0.40173702323E+02  0.47782140529E+02  0.00000000000E+00 0.  1.
</event>
<event>
 7    1  0.2873461E-009  0.1552520E+03  0.7561462E-02  0.1194164E+00
         -1   -1    0    0    0  501 -0.00000000000E+00  0.00000000000E+00  0.38516643057E+02  0.38516643057E+02  0.00000000000E+00 0.  1.
          1   -1    0    0  501    0  0.00000000000E+00 -0.00000000000E+00 -0.63229664196E+03  0.63229664196E+03  0.00000000000E+00 0. -1.
         25    2    1    2    0    0 -0.11151185801E+03  0.15914105158E+01 -0.32923313447E+03  0.36943018483E+03  0.12508707993E+03 0.  0.
          5    1    3    3  502    0  0.27739600912E+02  0.41746985408E+00 -0.62345911122E+02  0.68367717333E+02  0.41800000000E+01 0. -1.
         -5    1    3    3    0  502 -0.13925145892E+03  0.11739406617E+01 -0.26688722335E+03  0.30106246750E+03  0.41800000000E+01 0. -1.
        -11    1    1    2    0    0  0.28789224717E+01 -0.30563747589E+02 -0.74391151501E+02  0.80476544924E+02  0.00000000000E+00 0.  1.
         11    1    1    2    0    0  0.10863293553E+03  0.28972337073E+02 -0.19015571293E+03  0.22090655526E+03  0.00000000000E+00 0. -1.
</event>
<event>
 7    1  0.2873461E-009  0.1703761E+03  0.7561462E-02  0.1177456E+00
         -1   -1    0    0    0  501 -0.00000000000E+00  0.00000000000E+00  0.72679803896E+02  0.72679803896E+02  0.00000000000E+00 0.  1.
          1   -1    0    0  501    0  0.00000000000E+00 -0.00000000000E+00 -0.46776143027E+03  0.46776143027E+03  0.00000000000E+00 0. -1.
         25    2    1    2    0    0 -0.17492403615E+02  0.14612067524E+03 -0.16839885159E+03  0.25624965580E+03  0.12509387260E+03 0.  0.
          5    1    3    3  502    0  0.61036195807E+01  0.14820143012E+03 -0.17675785520E+03  0.23078502949E+03  0.41800000000E+01 0. -1.
         -5    1    3    3    0  502 -0.23596023196E+02 -0.20807548799E+01  0.83590036113E+01  0.25464626306E+02  0.41800000000E+01 0. -1.
        -11    1    1    2    0    0 -0.27497878768E+02 -0.10067946619E+03 -0.11347464763E+03  0.15417192969E+03  0.00000000000E+00 0.  1.
         11    1    1    2    0    0  0.44990282382E+02 -0.45441209054E+02 -0.11320812715E+03  0.13001964868E+03  0.00000000000E+00 0. -1.
</event>
<event>
 7    1  0.2873461E-009  0.1263554E+03  0.7561462E-02  0.1232966E+00
         -1   -1    0    0    0  501 -0.00000000000E+00  0.00000000000E+00  0.37519108750E+03  0.37519108750E+03  0.00000000000E+00 0.  1.
          1   -1    0    0  501    0  0.00000000000E+00 -0.00000000000E+00 -0.95575674322E+02  0.95575674322E+02  0.00000000000E+00 0. -1.
         25    2    1    2    0    0  0.19630500831E+02  0.66474977840E+02 -0.26051106222E+02  0.14536319397E+03  0.12509004271E+03 0.  0.
          5    1    3    3  502    0  0.76432996236E+01 -0.36415931210E+02 -0.17525945710E+02  0.41342124377E+02  0.41800000000E+01 0. -1.
         -5    1    3    3    0  502  0.11987201207E+02  0.10289090905E+03 -0.85251605117E+01  0.10402106959E+03  0.41800000000E+01 0. -1.
        -11    1    1    2    0    0 -0.22563920477E+02 -0.87502576723E+02  0.24598786438E+03  0.26206079612E+03  0.00000000000E+00 0.  1.
         11    1    1    2    0    0  0.29334196462E+01  0.21027598884E+02  0.59678655022E+02  0.63342771733E+02  0.00000000000E+00 0. -1.
</event>
<event>
 7    1  0.2873461E-009  0.1256607E+03  0.7561462E-02  0.1234040E+00
          1   -1    0    0  501    0  0.00000000000E+00  0.00000000000E+00  0.21325960004E+03  0.21325960004E+03  0.00000000000E+00 0. -1.
         -1   -1    0    0    0  501 -0.00000000000E+00 -0.00000000000E+00 -0.86509789249E+02  0.86509789249E+02  0.00000000000E+00 0.  1.
         25    2    1    2    0    0  0.69495980698E+02  0.42092792376E+02  0.57084948183E+02  0.15970983968E+03  0.12508815723E+03 0.  0.
          5    1    3    3  502    0  0.10008229569E+03  0.21731772439E+02  0.14845141336E+02  0.10356923513E+03  0.41800000000E+01 0.  1.
         -5    1    3    3    0  502 -0.30586314989E+02  0.20361019937E+02  0.42239806847E+02  0.56140604556E+02  0.41800000000E+01 0.  1.
        -11    1    1    2    0    0 -0.13113232906E+02 -0.52840153439E+02  0.61414374858E+02  0.82071701164E+02  0.00000000000E+00 0. -1.
         11    1    1    2    0    0 -0.56382747792E+02  0.10747361063E+02  0.82504877464E+01  0.57987848438E+02  0.00000000000E+00 0.  1.
</event>
<event>
 7    1  0.2873461E-009  0.1012644E+03  0.7561462E-02  0.1277659E+00
          1   -1    0    0  501    0  0.00000000000E+00  0.00000000000E+00  0.15714114103E+03  0.15714114103E+03  0.00000000000E+00 0. -1.
         -1   -1    0    0    0  501 -0.00000000000E+00 -0.00000000000E+00 -0.13030957540E+03  0.13030957540E+03  0.00000000000E+00 0.  1.
         25    2    1    2    0    0 -0.61418265575E+02 -0.55805500062E+02 -0.25611115609E+02  0.15228127468E+03  0.12508876925E+03 0.  0.
          5    1    3    3  502    0 -0.28675990767E+02  0.16721147303E+02  0.37774589425E+02  0.50460888020E+02  0.41800000000E+01 0.  1.
         -5    1    3    3    0  502 -0.32742274808E+02 -0.72526647365E+02 -0.63385705034E+02  0.10182038666E+03  0.41800000000E+01 0.  1.
        -11    1    1    2    0    0  0.57954261334E+02  0.33758876305E+02  0.76914256034E+02  0.10204979626E+03  0.00000000000E+00 0. -1.
         11    1    1    2    0    0  0.34640042410E+01  0.22046623757E+02 -0.24471574791E+02  0.33119645488E+02  0.00000000000E+00 0.  1.
</event>
<event>
 7    1  0.2873461E-009  0.1156024E+03  0.7561462E-02  0.1250533E+00
         -1   -1    0    0    0  501 -0.00000000000E+00  0.00000000000E+00  0.33210647337E+02  0.33210647337E+02  0.00000000000E+00 0.  1.
          1   -1    0    0  501    0  0.00000000000E+00 -0.00000000000E+00 -0.41633254076E+03  0.41633254076E+03  0.00000000000E+00 0. -1.
         25    2    1    2    0    0 -0.28922129381E+02  0.26784824306E+02 -0.25176266280E+03  0.28387515738E+03  0.12508697061E+03 0.  0.
          5    1    3    3  502    0  0.25082936480E+02 -0.38263831393E+02 -0.10140952970E+03  0.11133121579E+03  0.41800000000E+01 0. -1.
         -5    1    3    3    0  502 -0.54005065860E+02  0.65048655699E+02 -0.15035313310E+03  0.17254394159E+03  0.41800000000E+01 0. -1.
        -11    1    1    2    0    0  0.44684431441E+00  0.33730483138E+02 -0.50556287672E+02  0.60777326247E+02  0.00000000000E+00 0.  1.
         11    1    1    2    0    0  0.28475285066E+02 -0.60515307444E+02 -0.80802942952E+02  0.10489070447E+03  0.00000000000E+00 0. -1.
</event>
<event>
 7    1  0.2873461E-009  0.9897454E+02  0.7561462E-02  0.1282467E+00
         -3   -1    0    0    0  501 -0.00000000000E+00  0.00000000000E+00  0.34533376550E+02  0.34533376550E+02  0.00000000000E+00 0.  1.
          3   -1    0    0  501    0  0.00000000000E+00 -0.00000000000E+00 -0.40798229412E+03  0.40798229412E+03  0.00000000000E+00 0. -1.
         25    2    1    2    0    0  0.37395401566E+02  0.28513617525E+02 -0.20466016948E+03  0.24442633037E+03  0.12508798330E+03 0.  0.
          5    1    3    3  502    0  0.93061914850E+01  0.63121403432E+02 -0.18461738263E+03  0.19537647540E+03  0.41800000000E+01 0.  1.
         -5    1    3    3    0  502  0.28089210081E+02 -0.34607785907E+02 -0.20042786850E+02  0.49049854975E+02  0.41800000000E+01 0.  1.
        -11    1    1    2    0    0 -0.44722124954E+02  0.13403850515E+02 -0.13767212627E+03  0.14537312689E+03  0.00000000000E+00 0.  1.
         11    1    1    2    0    0  0.73267233881E+01 -0.41917468040E+02 -0.31116621821E+02  0.52716213408E+02  0.00000000000E+00 0. -1.
</event>
<event>
 7    1  0.2873461E-009  0.1624518E+03  0.7561462E-02  0.1185956E+00
         -1   -1    0    0    0  501 -0.00000000000E+00  0.00000000000E+00  0.20344321037E+03  0.20344321037E+03  0.00000000000E+00 0.  1.
          1   -1    0    0  501    0  0.00000000000E+00 -0.00000000000E+00 -0.15932683633E+03  0.15932683633E+03  0.00000000000E+00 0. -1.
         25    2    1    2    0    0  0.76209746374E+02  0.11714364493E+03  0.48735226002E+02  0.19378672686E+03  0.12509042435E+03 0.  0.
          5    1    3    3  502    0  0.79249132984E+01  0.11625872463E+03  0.45891724269E+02  0.12530928960E+03  0.41800000000E+01 0. -1.
         -5    1    3    3    0  502  0.68284833076E+02  0.88492029926E+00  0.28435017331E+01  0.68477437264E+02  0.41800000000E+01 0. -1.
        -11    1    1    2    0    0 -0.32987667320E+02 -0.56223243337E+02 -0.49491715885E+02  0.81845398330E+02  0.00000000000E+00 0. -1.
         11    1    1    2    0    0 -0.43222079054E+02 -0.60920401591E+02  0.44872863926E+02  0.87137921507E+02  0.00000000000E+00 0.  1.
</event>
<event>
 7    1  0.2873461E-009  0.2976451E+03  0.7561462E-02  0.1086424E+00
          1   -1    0    0  501    0  0.00000000000E+00  0.00000000000E+00  0.12035535665E+04  0.12035535665E+04  0.00000000000E+00 0. -1.
         -1   -1    0    0    0  501 -0.00000000000E+00 -0.00000000000E+00 -0.81941064485E+02  0.81941064485E+02  0.00000000000E+00 0.  1.
         25    2    1    2    0    0  0.24221501776E+03  0.14516408750E+03  0.39803099833E+03  0.50380257318E+03  0.12509048719E+03 0.  0.
          5    1    3    3  502    0  0.12020687541E+03  0.13098228706E+03  0.28994500670E+03  0.34013472586E+03  0.41800000000E+01 0.  1.
         -5    1    3    3    0  502  0.12200814235E+03  0.14181800439E+02  0.10808599162E+03  0.16366784732E+03  0.41800000000E+01 0.  1.
        -11    1    1    2    0    0 -0.15387900547E+03 -0.13668200754E+03  0.47215745893E+03  0.51506638944E+03  0.00000000000E+00 0.  1.
         11    1    1    2    0    0 -0.88336012291E+02 -0.84820799626E+01  0.25142404475E+03  0.26662566836E+03  0.00000000000E+00 0. -1.
</event>
<event>
 7    1  0.2873461E-009  0.1695737E+03  0.7561462E-02  0.1178293E+00
          3   -1    0    0  501    0  0.00000000000E+00  0.00000000000E+00  0.29331085041E+03  0.29331085041E+03  0.00000000000E+00 0. -1.
         -3   -1    0    0    0  501 -0.00000000000E+00 -0.00000000000E+00 -0.11427619003E+03  0.11427619003E+03  0.00000000000E+00 0.  1.
         25    2    1    2    0    0  0.13058068390E+03  0.73972788166E+02  0.13456991022E+03  0.23723236807E+03  0.12508735879E+03 0.  0.
          5    1    3    3  502    0 -0.20720301044E+02  0.81808313077E+01 -0.23552512911E+01  0.22787638862E+02  0.41800000000E+01 0. -1.
         -5    1    3    3    0  502  0.15130098494E+03  0.65791956858E+02  0.13692516151E+03  0.21444472921E+03  0.41800000000E+01 0. -1.
        -11    1    1    2    0    0 -0.29535500538E+02 -0.74346140504E+01 -0.16755955755E+02  0.34761779750E+02  0.00000000000E+00 0.  1.
         11    1    1    2    0    0 -0.10104518336E+03 -0.66538174116E+02  0.61220705924E+02  0.13559289262E+03  0.00000000000E+00 0. -1.
</event>
<event>
 6    1  0.2873461E-009  0.1028114E+03  0.7561462E-02  0.1274493E+00
         -4   -1    0    0    0  501 -0.00000000000E+00  0.00000000000E+00  0.18973545348E+03  0.18973545348E+03  0.00000000000E+00 0.  1.
          4   -1    0    0  501    0  0.00000000000E+00 -0.00000000000E+00 -0.65654512116E+02  0.65654512116E+02  0.00000000000E+00 0. -1.
          5    1    1    2  502    0  0.30650097388E+02 -0.29161788666E+02  0.69844558628E+02  0.81765354264E+02  0.41800000000E+01 0.  1.
         -5    1    1    2    0  502 -0.53270050835E+02  0.42724570522E+02  0.11011480375E+02  0.69295110522E+02  0.41800000000E+01 0.  1.
        -11    1    1    2    0    0 -0.15954539252E+02 -0.43198991042E+02  0.24867338312E+02  0.52336265290E+02  0.00000000000E+00 0.  1.
         11    1    1    2    0    0  0.38574492699E+02  0.29636209186E+02  0.18357564050E+02  0.51993235520E+02  0.00000000000E+00 0. -1.
</event>
<event>
 7    1  0.2873461E-009  0.1832283E+03  0.7561462E-02  0.1164715E+00
         -2   -1    0    0    0  501 -0.00000000000E+00  0.00000000000E+00  0.43646983514E+02  0.43646983514E+02  0.00000000000E+00 0.  1.
          2   -1    0    0  501    0  0.00000000000E+00 -0.00000000000E+00 -0.10539400972E+04  0.10539400972E+04  0.00000000000E+00 0. -1.
         25    2    1    2    0    0  0.10866083584E+03  0.14466934677E+03 -0.61349188747E+03  0.65173764737E+03  0.12511302037E+03 0.  0.
          5    1    3    3  502    0  0.41658565374E+02  0.83982825431E+02 -0.48845723811E+03  0.49738968314E+03  0.41800000000E+01 0.  1.
         -5    1    3    3    0  502  0.67002270468E+02  0.60686521340E+02 -0.12503464936E+03  0.15434796423E+03  0.41800000000E+01 0.  1.
        -11    1    1    2    0    0 -0.87852027629E+02 -0.10179702607E+03 -0.18470691897E+03  0.22846719500E+03  0.00000000000E+00 0.  1.
         11    1    1    2    0    0 -0.20808808213E+02 -0.42872320699E+02 -0.21209430727E+03  0.21738223837E+03  0.00000000000E+00 0. -1.
</event>
<event>
 7    1  0.2873461E-009  0.1191382E+03  0.7561462E-02  0.1244526E+00
         -2   -1    0    0    0  501 -0.00000000000E+00  0.00000000000E+00  0.71549242002E+02  0.71549242002E+02  0.00000000000E+00 0.  1.
          2   -1    0    0  501    0  0.00000000000E+00 -0.00000000000E+00 -0.48138009189E+03  0.48138009189E+03  0.00000000000E+00 0. -1.
         25    2    1    2    0    0  0.52923315154E+02 -0.17837483317E+01 -0.42557330344E+03  0.44672541597E+03  0.12508757584E+03 0.  0.
          5    1    3    3  502    0  0.76946427776E+02 -0.42185972901E+02 -0.29910032142E+03  0.31173527829E+03  0.41800000000E+01 0. -1.
         -5    1    3    3    0  502 -0.24023112622E+02  0.40402224569E+02 -0.12647298202E+03  0.13499013768E+03  0.41800000000E+01 0. -1.
        -11    1    1    2    0    0 -0.68056157533E+02 -0.24974354488E+02  0.19919102088E+02  0.75180646367E+02  0.00000000000E+00 0. -1.
         11    1    1    2    0    0  0.15132842379E+02  0.26758102820E+02 -0.41766485384E+01  0.31023271555E+02  0.00000000000E+00 0.  1.
</event>
<event>
 7    1  0.2873461E-009  0.3501236E+03  0.7561462E-02  0.1062564E+00
         -2   -1    0    0    0  501 -0.00000000000E+00  0.00000000000E+00  0.55575407374E+02  0.55575407374E+02  0.00000000000E+00 0.  1.
          2   -1    0    0  501    0  0.00000000000E+00 -0.00000000000E+00 -0.25804388578E+04  0.25804388578E+04  0.00000000000E+00 0. -1.
         25    2    1    2    0    0 -0.34678212953E+03  0.18360214830E+01 -0.91014332153E+03  0.98197346799E+03  0.12509919976E+03 0.  0.
          5    1    3    3  502    0 -0.29825823989E+03  0.22345943284E+00 -0.86704039349E+03  0.91691577799E+03  0.41800000000E+01 0.  1.
         -5    1    3    3    0  502 -0.48523889637E+02  0.16125620501E+01 -0.43102928040E+02  0.65057689995E+02  0.41800000000E+01 0.  1.
        -11    1    1    2    0    0  0.84984078595E+02  0.28601331454E+02 -0.29784370614E+03  0.31104855418E+03  0.00000000000E+00 0.  1.
         11    1    1    2    0    0  0.26179805093E+03 -0.30437352937E+02 -0.13168764227E+04  0.13429922430E+04  0.00000000000E+00 0. -1.
</event>
<event>
 7    1  0.2873461E-009  0.1679325E+03  0.7561462E-02  0.1180021E+00
         -1   -1    0    0    0  501 -0.00000000000E+00  0.00000000000E+00  0.19696013883E+03  0.19696013883E+03  0.00000000000E+00 0.  1.
          1   -1    0    0  501    0  0.00000000000E+00 -0.00000000000E+00 -0.66694926178E+03  0.66694926178E+03  0.00000000000E+00 0. -1.
         25    2    1    2    0    0 -0.85893514598E+02 -0.12456837759E+03  0.13182504015E+03  0.23647427734E+03  0.12508903265E+03 0.  0.
          5    1    3    3  502    0 -0.90334840225E+02 -0.62543676054E+02  0.13495014006E+03  0.17407213296E+03  0.41800000000E+01 0.  1.
         -5    1    3    3    0  502  0.44413256271E+01 -0.62024701532E+02 -0.31250999061E+01  0.62402144378E+02  0.41800000000E+01 0.  1.
        -11    1    1    2    0    0  0.24626214346E+02  0.89859416031E+02 -0.21585991035E+03  0.23510990192E+03  0.00000000000E+00 0.  1.
         11    1    1    2    0    0  0.61267300252E+02  0.34708961556E+02 -0.38595425275E+03  0.39232522135E+03  0.00000000000E+00 0. -1.
</event>
<event>
 7    1  0.2873461E-009  0.1042573E+03  0.7561462E-02  0.1271590E+00
         -2   -1    0    0    0  501 -0.00000000000E+00  0.00000000000E+00  0.82545452456E+02  0.82545452456E+02  0.00000000000E+00 0.  1.
          2   -1    0    0  501    0  0.00000000000E+00 -0.00000000000E+00 -0.17129913417E+03  0.17129913417E+03  0.00000000000E+00 0. -1.
         25    2    1    2    0    0  0.38914887512E+02  0.10657529444E+01 -0.85204340783E+02  0.15625209474E+03  0.12505771916E+03 0.  0.
          5    1    3    3  502    0 -0.30665313833E+02  0.34528673993E+02 -0.81274425655E+01  0.47075668055E+02  0.41800000000E+01 0.  1.
         -5    1    3    3    0  502  0.69580201345E+02 -0.33462921049E+02 -0.77076898217E+02  0.10917642668E+03  0.41800000000E+01 0.  1.
        -11    1    1    2    0    0 -0.53806047514E+02  0.21371513829E+02  0.20570459021E+02  0.61440834441E+02  0.00000000000E+00 0.  1.
         11    1    1    2    0    0  0.14891160002E+02 -0.22437266774E+02 -0.24119799951E+02  0.36151657447E+02  0.00000000000E+00 0. -1.
</event>
<event>
 7    1  0.2873461E-009  0.1384942E+03  0.7561462E-02  0.1215370E+00
         -2   -1    0    0    0  501 -0.00000000000E+00  0.00000000000E+00  0.44122312129E+02  0.44122312129E+02  0.00000000000E+00 0.  1.
          2   -1    0    0  501    0  0.00000000000E+00 -0.00000000000E+00 -0.60859115476E+03  0.60859115476E+03  0.00000000000E+00 0. -1.
         25    2    1    2    0    0  0.25556442680E+02 -0.11790070277E+03 -0.28459747908E+03  0.33346217688E+03  0.12509033070E+03 0.  0.
          5    1    3    3  502    0  0.27874810134E+02 -0.11849116930E+03 -0.12762736299E+03  0.17641819188E+03  0.41800000000E+01 0. -1.
         -5    1    3    3    0  502 -0.23183674542E+01  0.59046653322E+00 -0.15697011609E+03  0.15704398500E+03  0.41800000000E+01 0. -1.
        -11    1    1    2    0    0 -0.12596374437E+02  0.13120097940E+03 -0.21893671208E+03  0.25554970073E+03  0.00000000000E+00 0.  1.
         11    1    1    2    0    0 -0.12960068242E+02 -0.13300276634E+02 -0.60934651475E+02  0.63701589288E+02  0.00000000000E+00 0. -1.
</event>
<event>
 7    1  0.3317848E-009  0.9847055E+02  0.7561462E-02  0.1283545E+00
         -1   -1    0    0    0  501 -0.00000000000E+00  0.00000000000E+00  0.25092681841E+02  0.25092681841E+02  0.00000000000E+00 0.  1.
          1   -1    0    0  501    0  0.00000000000E+00 -0.00000000000E+00 -0.62703404378E+03  0.62703404378E+03  0.00000000000E+00 0. -1.
         25    2    1    2    0    0 -0.17510626598E+02  0.50985674358E+02 -0.42223677923E+03  0.44366375455E+03  0.12508984108E+03 0.  0.
          5    1    3    3  502    0  0.13001954175E+02  0.79680629424E+02 -0.35689872752E+03  0.36594019679E+03  0.41800000000E+01 0. -1.
         -5    1    3    3    0  502 -0.30512580773E+02 -0.28694955066E+02 -0.65338051706E+02  0.77723557770E+02  0.41800000000E+01 0. -1.
        -11    1    1    2    0    0 -0.77335707232E+01 -0.47960329919E+02 -0.31061685185E+02  0.57661335821E+02  0.00000000000E+00 0.  1.
         11    1    1    2    0    0  0.25244197321E+02 -0.30253444388E+01 -0.14864289753E+03  0.15080163525E+03  0.00000000000E+00 0. -1.
</event>
<event>
 7    1  0.2873461E-009  0.2236034E+03  0.7561462E-02  0.1131225E+00
         -2   -1    0    0    0  501 -0.00000000000E+00  0.00000000000E+00  0.34035944099E+03  0.34035944099E+03  0.00000000000E+00 0.  1.
          2   -1    0    0  501    0  0.00000000000E+00 -0.00000000000E+00 -0.18808822109E+03  0.18808822109E+03  0.00000000000E+00 0. -1.
         25    2    1    2    0    0  0.10272200039E+03  0.17195723481E+03 -0.34154192716E+02  0.23861083974E+03  0.12509006353E+03 0.  0.
          5    1    3    3  502    0  0.98546448670E+02  0.64729556312E+02 -0.53415618590E+02  0.12950682884E+03  0.41800000000E+01 0. -1.
         -5    1    3    3    0  502  0.41755517201E+01  0.10722767850E+03  0.19261425875E+02  0.10910401090E+03  0.41800000000E+01 0. -1.
        -11    1    1    2    0    0 -0.63921150346E+02 -0.17151074574E+03  0.15685299243E+03  0.24104918710E+03  0.00000000000E+00 0. -1.
         11    1    1    2    0    0 -0.38800850044E+02 -0.44648907147E+00  0.29572420185E+02  0.48787635239E+02  0.00000000000E+00 0.  1.
</event>
<event>
 7    1  0.2873461E-009  0.1127187E+03  0.7561462E-02  0.1255616E+00
          1   -1    0    0  501    0  0.00000000000E+00  0.00000000000E+00  0.73543896158E+02  0.73543896158E+02  0.00000000000E+00 0. -1.
         -1   -1    0    0    0  501 -0.00000000000E+00 -0.00000000000E+00 -0.18886979821E+03  0.18886979821E+03  0.00000000000E+00 0.  1.
         25    2    1    2    0    0  0.39739656141E+02  0.22253021185E+02 -0.55298958649E+02  0.14415677689E+03  0.12509502098E+03 0.  0.
          5    1    3    3  502    0  0.76995157523E+02  0.36113349675E+02 -0.59634743533E+02  0.10395289002E+03  0.41800000000E+01 0. -1.
         -5    1    3    3    0  502 -0.37255501383E+02 -0.13860328490E+02  0.43357848845E+01  0.40203886873E+02  0.41800000000E+01 0. -1.
        -11    1    1    2    0    0  0.20131789325E+02 -0.33805501659E+02 -0.13642965329E+02  0.41644103866E+02  0.00000000000E+00 0.  1.
         11    1    1    2    0    0 -0.59871445466E+02  0.11552480474E+02 -0.46383978073E+02  0.76612813610E+02  0.00000000000E+00 0. -1.
</event>
<event>
 7    1  0.2873461E-009  0.1237996E+03  0.7561462E-02  0.1236957E+00
          3   -1    0    0  501    0  0.00000000000E+00  0.00000000000E+00  0.28805306279E+03  0.28805306279E+03  0.00000000000E+00 0. -1.
         -3   -1    0    0    0  501 -0.00000000000E+00 -0.00000000000E+00 -0.66915887600E+02  0.66915887600E+02  0.00000000000E+00 0.  1.
         25    2    1    2    0    0  0.87320985538E+02  0.88815007191E+01  0.11624768724E+03  0.19200393352E+03  0.12509256624E+03 0.  0.
          5    1    3    3  502    0 -0.18846654697E+02 -0.19184250830E+02  0.65557570856E+02  0.70982387743E+02  0.41800000000E+01 0.  1.
         -5    1    3    3    0  502  0.10616764024E+03  0.28065751549E+02  0.50690116383E+02  0.12102154578E+03  0.41800000000E+01 0.  1.
        -11    1    1    2    0    0 -0.73686154182E+02 -0.34580690176E+02  0.10624501802E+03  0.13384123918E+03  0.00000000000E+00 0. -1.
         11    1    1    2    0    0 -0.13634831356E+02  0.25699189457E+02 -0.13555300743E+01  0.29123777685E+02  0.00000000000E+00 0.  1.
</event>
<event>
 7    1  0.2873461E-009  0.1000877E+03  0.7561462E-02  0.1280112E+00
          1   -1    0    0  501    0  0.00000000000E+00  0.00000000000E+00  0.61481283710E+03  0.61481283710E+03  0.00000000000E+00 0. -1.
         -1   -1    0    0    0  501 -0.00000000000E+00 -0.00000000000E+00 -0.21070873615E+02  0.21070873615E+02  0.00000000000E+00 0.  1.
         25    2    1    2    0    0  0.62734238375E+01  0.29115655976E+02  0.41038226759E+03  0.43005830168E+03  0.12509780182E+03 0.  0.
          5    1    3    3  502    0 -0.30308230584E+02  0.61417446064E+02  0.14785399684E+03  0.16299990278E+03  0.41800000000E+01 0.  1.
         -5    1    3    3    0  502  0.36581654422E+02 -0.32301790088E+02  0.26252827075E+03  0.26705839890E+03  0.41800000000E+01 0.  1.
        -11    1    1    2    0    0  0.34147815593E+02 -0.24213537947E+02  0.14094392453E+03  0.14702910798E+03  0.00000000000E+00 0. -1.
         11    1    1    2    0    0 -0.40421239430E+02 -0.49021180291E+01  0.42415771366E+02  0.58796301064E+02  0.00000000000E+00 0.  1.
</event>
<event>
 7    1  0.2873461E-009  0.8416822E+02  0.7561462E-02  0.1317622E+00
         -1   -1    0    0    0  501 -0.00000000000E+00  0.00000000000E+00  0.38039137640E+02  0.38039137640E+02  0.00000000000E+00 0.  1.
          1   -1    0    0  501    0  0.00000000000E+00 -0.00000000000E+00 -0.39692745800E+03  0.39692745800E+03  0.00000000000E+00 0. -1.
         25    2    1    2    0    0  0.59121340917E+02  0.10831298972E+02 -0.24889087006E+03  0.28496831739E+03  0.12509047418E+03 0.  0.
          5    1    3    3  502    0  0.15328032833E+02 -0.37396421743E+02 -0.16965120664E+02  0.44030996683E+02  0.41800000000E+01 0.  1.
         -5    1    3    3    0  502  0.43793308084E+02  0.48227720716E+02 -0.23192574939E+03  0.24093732071E+03  0.41800000000E+01 0.  1.
        -11    1    1    2    0    0 -0.27137035522E+02 -0.13541227275E+02 -0.11371040942E+03  0.11768534634E+03  0.00000000000E+00 0. -1.
         11    1    1    2    0    0 -0.31984305395E+02  0.27099283023E+01  0.37129591174E+01  0.32312931907E+02  0.00000000000E+00 0.  1.
</event>
<event>
 7    1  0.2873461E-009  0.7676691E+02  0.7561462E-02  0.1338485E+00
          1   -1    0    0  501    0  0.00000000000E+00  0.00000000000E+00  0.25673144662E+02  0.25673144662E+02  0.00000000000E+00 0. -1.
         -1   -1    0    0    0  501 -0.00000000000E+00 -0.00000000000E+00 -0.52729915757E+03  0.52729915757E+03  0.00000000000E+00 0.  1.
         25    2    1    2    0    0  0.28130628486E+02  0.37070576579E+01 -0.21725567256E+03  0.25229541787E+03  0.12509147085E+03 0.  0.
          5    1    3    3  502    0 -0.19839477517E+02 -0.31853325100E+01  0.78652765085E+01  0.21979221686E+02  0.41800000000E+01 0.  1.
         -5    1    3    3    0  502  0.47970106003E+02  0.68923901679E+01 -0.22512094907E+03  0.23031619618E+03  0.41800000000E+01 0.  1.
        -11    1    1    2    0    0  0.55111830753E+01  0.33648053542E+02 -0.47139636583E+02  0.58178260401E+02  0.00000000000E+00 0. -1.
         11    1    1    2    0    0 -0.33641811561E+02 -0.37355111200E+02 -0.23723070376E+03  0.24249862397E+03  0.00000000000E+00 0.  1.
</event>
<event>
 7    1  0.2873461E-009  0.1009723E+03  0.7561462E-02  0.1278265E+00
         -2   -1    0    0    0  501 -0.00000000000E+00  0.00000000000E+00  0.44165480495E+02  0.44165480495E+02  0.00000000000E+00 0.  1.
          2   -1    0    0  501    0  0.00000000000E+00 -0.00000000000E+00 -0.31425839797E+03  0.31425839797E+03  0.00000000000E+00 0. -1.
         25    2    1    2    0    0 -0.88902064836E+01  0.36825601557E+02 -0.11331518715E+03  0.17298109503E+03  0.12508783673E+03 0.  0.
          5    1    3    3  502    0  0.46343453750E+02  0.25345289386E+02 -0.10250313534E+03  0.11538832070E+03  0.41800000000E+01 0.  1.
         -5    1    3    3    0  502 -0.55233660233E+02  0.11480312171E+02 -0.10812051805E+02  0.57592774326E+02  0.41800000000E+01 0.  1.
        -11    1    1    2    0    0 -0.37305014349E+02 -0.24316216842E+02 -0.42535713092E+02  0.61581079768E+02  0.00000000000E+00 0.  1.
         11    1    1    2    0    0  0.46195220833E+02 -0.12509384715E+02 -0.11424201724E+03  0.12386170367E+03  0.00000000000E+00 0. -1.
</event>
<event>
 7    1  0.2873461E-009  0.1069828E+03  0.7561462E-02  0.1266262E+00
          1   -1    0    0  501    0  0.00000000000E+00  0.00000000000E+00  0.35651985307E+03  0.35651985307E+03  0.00000000000E+00 0. -1.
         -1   -1    0    0    0  501 -0.00000000000E+00 -0.00000000000E+00 -0.35499395445E+02  0.35499395445E+02  0.00000000000E+00 0.  1.
         25    2    1    2    0    0 -0.64893152518E+01 -0.18887238607E+02  0.13532928870E+03  0.18536572925E+03  0.12509036016E+03 0.  0.
          5    1    3    3  502    0  0.55185731930E+02  0.83620980729E+01  0.82073952109E+02  0.99342819104E+02  0.41800000000E+01 0. -1.
         -5    1    3    3    0  502 -0.61675047182E+02 -0.27249336680E+02  0.53255336589E+02  0.86022910143E+02  0.41800000000E+01 0. -1.
        -11    1    1    2    0    0  0.40566134898E+02  0.34218473164E+02  0.11644796790E+03  0.12797126410E+03  0.00000000000E+00 0.  1.
         11    1    1    2    0    0 -0.34076819647E+02 -0.15331234557E+02  0.69243201026E+02  0.78682255170E+02  0.00000000000E+00 0. -1.
</event>
<event>
 7    1  0.2873461E-009  0.1056349E+03  0.7561462E-02  0.1268874E+00
          1   -1    0    0  501    0  0.00000000000E+00  0.00000000000E+00  0.73113378674E+03  0.73113378674E+03  0.00000000000E+00 0. -1.
         -1   -1    0    0    0  501 -0.00000000000E+00 -0.00000000000E+00 -0.27266171124E+02  0.27266171124E+02  0.00000000000E+00 0.  1.
         25    2    1    2    0    0 -0.74468961862E+02 -0.50497956654E+02  0.36967827523E+03  0.40050616197E+03  0.12508992242E+03 0.  0.
          5    1    3    3  502    0 -0.18623914958E+02 -0.33718399451E+02  0.15820032240E+02  0.41851242395E+02  0.41800000000E+01 0.  1.
         -5    1    3    3    0  502 -0.55845046903E+02 -0.16779557203E+02  0.35385824299E+03  0.35865491957E+03  0.41800000000E+01 0.  1.
        -11    1    1    2    0    0  0.86724644456E+02  0.52883972384E+02  0.32908487405E+03  0.34440489663E+03  0.00000000000E+00 0. -1.
         11    1    1    2    0    0 -0.12255682594E+02 -0.23860157306E+01  0.51044663382E+01  0.13488899270E+02  0.00000000000E+00 0.  1.
</event>
<event>
 7    1  0.2873461E-009  0.1151080E+03  0.7561462E-02  0.1251393E+00
         -2   -1    0    0    0  501 -0.00000000000E+00  0.00000000000E+00  0.28278782595E+02  0.28278782595E+02  0.00000000000E+00 0.  1.
          2   -1    0    0  501    0  0.00000000000E+00 -0.00000000000E+00 -0.51587197195E+03  0.51587197195E+03  0.00000000000E+00 0. -1.
         25    2    1    2    0    0  0.88053070179E+01  0.50591631588E+02 -0.29372513010E+03  0.32335442620E+03  0.12508631529E+03 0.  0.
          5    1    3    3  502    0  0.62156939951E+02  0.17658994879E+02 -0.20235764520E+03  0.21246508950E+03  0.41800000000E+01 0. -1.
         -5    1    3    3    0  502 -0.53351632933E+02  0.32932636709E+02 -0.91367484901E+02  0.11088933670E+03  0.41800000000E+01 0. -1.
        -11    1    1    2    0    0 -0.40808638034E+02  0.22275837376E+01 -0.52541907153E+02  0.66565449558E+02  0.00000000000E+00 0. -1.
         11    1    1    2    0    0  0.32003331017E+02 -0.52819215326E+02 -0.14132615210E+03  0.15423087879E+03  0.00000000000E+00 0.  1.
</event>
<event>
 7    1  0.2873461E-009  0.1075124E+03  0.7561462E-02  0.1265247E+00
          1   -1    0    0  501    0  0.00000000000E+00  0.00000000000E+00  0.13250837064E+03  0.13250837064E+03  0.00000000000E+00 0. -1.
         -1   -1    0    0    0  501 -0.00000000000E+00 -0.00000000000E+00 -0.13525458941E+03  0.13525458941E+03  0.00000000000E+00 0.  1.
         25    2    1    2    0    0 -0.74756251119E+02  0.14096354823E+02  0.16374413651E+02  0.14732100021E+03  0.12509257125E+03 0.  0.
          5    1    3    3  502    0 -0.26529905791E+02 -0.26006338601E+02  0.60078349063E+02  0.70760483144E+02  0.41800000000E+01 0. -1.
         -5    1    3    3    0  502 -0.48226345328E+02  0.40102693424E+02 -0.43703935411E+02  0.76560517070E+02  0.41800000000E+01 0. -1.
        -11    1    1    2    0    0  0.60727873709E+02 -0.48439964287E+02 -0.27507854710E+02  0.82407444178E+02  0.00000000000E+00 0. -1.
         11    1    1    2    0    0  0.14028377411E+02  0.34343609464E+02  0.83872222853E+01  0.38034515659E+02  0.00000000000E+00 0.  1.
</event>
<event>
 7    1  0.2873461E-009  0.7171832E+02  0.7561462E-02  0.1354345E+00
          1   -1    0    0  501    0  0.00000000000E+00  0.00000000000E+00  0.40439545044E+02  0.40439545044E+02  0.00000000000E+00 0. -1.
         -1   -1    0    0    0  501 -0.00000000000E+00 -0.00000000000E+00 -0.39302658004E+03  0.39302658004E+03  0.00000000000E+00 0.  1.
         25    2    1    2    0    0 -0.28534124009E+02 -0.12249972555E+02 -0.97945688875E+02  0.16184044287E+03  0.12503884564E+03 0.  0.
          5    1    3    3  502    0  0.62615367607E+01 -0.23902956498E+02  0.23833452871E+02  0.34584158913E+02  0.41800000000E+01 0. -1.
         -5    1    3    3    0  502 -0.34795660770E+02  0.11652983943E+02 -0.12177914175E+03  0.12725628396E+03  0.41800000000E+01 0. -1.
        -11    1    1    2    0    0  0.37672060260E+02  0.38369541267E+02 -0.22389081509E+03  0.23025747089E+03  0.00000000000E+00 0.  1.
         11    1    1    2    0    0 -0.91379362512E+01 -0.26119568712E+02 -0.30750531031E+02  0.41368211314E+02  0.00000000000E+00 0. -1.
</event>
<event>
 7    1  0.2873461E-009  0.9768854E+02  0.7561462E-02  0.1285233E+00
         -2   -1    0    0    0  501 -0.00000000000E+00  0.00000000000E+00  0.36397740167E+02  0.36397740167E+02  0.00000000000E+00 0.  1.
          2   -1    0    0  501    0  0.00000000000E+00 -0.00000000000E+00 -0.37098188288E+03  0.37098188288E+03  0.00000000000E+00 0. -1.
         25    2    1    2    0    0 -0.35343953937E+02 -0.18352167812E+01 -0.16406520001E+03  0.20932531597E+03  0.12508850846E+03 0.  0.
          5    1    3    3  502    0 -0.27012760587E+02  0.54276836083E+02 -0.39754984134E+02  0.72619524463E+02  0.41800000000E+01 0.  1.
         -5    1    3    3    0  502 -0.83311933504E+01 -0.56112052864E+02 -0.12431021588E+03  0.13670579150E+03  0.41800000000E+01 0.  1.
        -11    1    1    2    0    0  0.42902159537E+00  0.31746581551E+02 -0.13601424251E+02  0.34540240899E+02  0.00000000000E+00 0.  1.
         11    1    1    2    0    0  0.34914932342E+02 -0.29911364769E+02 -0.15691751845E+03  0.16351406619E+03  0.00000000000E+00 0. -1.
</event>
<event>
 7    1  0.2873461E-009  0.2324647E+03  0.7561462E-02  0.1124917E+00
          1   -1    0    0  501    0  0.00000000000E+00  0.00000000000E+00  0.10715465596E+04  0.10715465596E+04  0.00000000000E+00 0. -1.
         -1   -1    0    0    0  501 -0.00000000000E+00 -0.00000000000E+00 -0.57322203063E+02  0.57322203063E+02  0.00000000000E+00 0.  1.
         25    2    1    2    0    0  0.20945976556E+03 -0.69686276194E+02  0.45008614027E+03  0.51667381835E+03  0.12507889680E+03 0.  0.
          5    1    3    3  502    0  0.21449046751E+03 -0.50863631401E+02  0.34300096872E+03  0.40775042194E+03  0.41800000000E+01 0. -1.
         -5    1    3    3    0  502 -0.50307019456E+01 -0.18822644793E+02  0.10708517155E+03  0.10892339640E+03  0.41800000000E+01 0. -1.
        -11    1    1    2    0    0 -0.13264804950E+03  0.64606236460E+02  0.45729671668E+03  0.48050989367E+03  0.00000000000E+00 0. -1.
         11    1    1    2    0    0 -0.76811716065E+02  0.50800397341E+01  0.10684149956E+03  0.13168505062E+03  0.00000000000E+00 0.  1.
</event>
<event>
 7    1  0.2873461E-009  0.2015546E+03  0.7561462E-02  0.1148434E+00
         -2   -1    0    0    0  501 -0.00000000000E+00  0.00000000000E+00  0.55323040832E+03  0.55323040832E+03  0.00000000000E+00 0.  1.
          2   -1    0    0  501    0  0.00000000000E+00 -0.00000000000E+00 -0.90694114259E+02  0.90694114259E+02  0.00000000000E+00 0. -1.
         25    2    1    2    0    0  0.11845909685E+03  0.14383234961E+03  0.31774772798E+03  0.38901421681E+03  0.12509252504E+03 0.  0.
          5    1    3    3  502    0  0.10450766085E+03  0.90329682791E+02  0.11802776450E+03  0.18173972698E+03  0.41800000000E+01 0.  1.
         -5    1    3    3    0  502  0.13951436006E+02  0.53502666820E+02  0.19971996347E+03  0.20727448983E+03  0.41800000000E+01 0.  1.
        -11    1    1    2    0    0 -0.19230490003E+02  0.13468447766E+02  0.20979612284E+02  0.31485789852E+02  0.00000000000E+00 0.  1.
         11    1    1    2    0    0 -0.99228606851E+02 -0.15730079738E+03  0.12380895380E+03  0.22342451592E+03  0.00000000000E+00 0. -1.
</event>
<event>
 7    1  0.2873461E-009  0.1114995E+03  0.7561462E-02  0.1257818E+00
          2   -1    0    0  501    0  0.00000000000E+00  0.00000000000E+00  0.72622258547E+03  0.72622258547E+03  0.00000000000E+00 0. -1.
         -2   -1    0    0    0  501 -0.00000000000E+00 -0.00000000000E+00 -0.30681524666E+02  0.30681524666E+02  0.00000000000E+00 0.  1.
         25    2    1    2    0    0 -0.62174036962E+02  0.60890425268E+02  0.23840270390E+03  0.28294202100E+03  0.12508830186E+03 0.  0.
          5    1    3    3  502    0  0.69420859032E+01 -0.44008499391E+01 -0.11959208019E+02  0.15101493083E+02  0.41800000000E+01 0.  1.
         -5    1    3    3    0  502 -0.69116122865E+02  0.65291275207E+02  0.25036191192E+03  0.26784052792E+03  0.41800000000E+01 0.  1.
        -11    1    1    2    0    0  0.81832440296E+02 -0.52549376235E+02  0.42008722352E+03  0.43119747285E+03  0.00000000000E+00 0. -1.
         11    1    1    2    0    0 -0.19658403334E+02 -0.83410490326E+01  0.37051133384E+02  0.42764616280E+02  0.00000000000E+00 0.  1.
</event>
<event>
 7    1  0.2873461E-009  0.7869418E+02  0.7561462E-02  0.1332799E+00
         -1   -1    0    0    0  501 -0.00000000000E+00  0.00000000000E+00  0.32929146062E+03  0.32929146062E+03  0.00000000000E+00 0.  1.
          1   -1    0    0  501    0  0.00000000000E+00 -0.00000000000E+00 -0.42363203982E+02  0.42363203982E+02  0.00000000000E+00 0. -1.
         25    2    1    2    0    0 -0.26027328542E+02 -0.40790644923E+02  0.16166721645E+03  0.21005910442E+03  0.12508892808E+03 0.  0.
          5    1    3    3  502    0 -0.20972449613E+02 -0.74771643582E+01 -0.16918313604E+02  0.28274606360E+02  0.41800000000E+01 0.  1.
         -5    1    3    3    0  502 -0.50548789286E+01 -0.33313480565E+02  0.17858553006E+03  0.18178449806E+03  0.41800000000E+01 0.  1.
        -11    1    1    2    0    0  0.39658430469E+02 -0.15711815838E+02  0.40505185720E+02  0.58824504540E+02  0.00000000000E+00 0.  1.
         11    1    1    2    0    0 -0.13631101927E+02  0.56502460761E+02  0.84755854462E+02  0.10277105564E+03  0.00000000000E+00 0. -1.
</event>
<event>
 7    1  0.2873461E-009  0.2039496E+03  0.7561462E-02  0.1146449E+00
         -1   -1    0    0    0  501 -0.00000000000E+00  0.00000000000E+00  0.57100246942E+03  0.57100246942E+03  0.00000000000E+00 0.  1.
          1   -1    0    0  501    0  0.00000000000E+00 -0.00000000000E+00 -0.90618140413E+02  0.90618140413E+02  0.00000000000E+00 0. -1.
         25    2    1    2    0    0 -0.17190351998E+03 -0.94210159666E+02  0.19395842049E+03  0.30281036258E+03  0.12509145630E+03 0.  0.
          5    1    3    3  502    0 -0.11103436883E+02  0.34349487269E-01 -0.17349066185E+02  0.21017849272E+02  0.41800000000E+01 0.  1.
         -5    1    3    3    0  502 -0.16080008310E+03 -0.94244509153E+02  0.21130748668E+03  0.28179251331E+03  0.41800000000E+01 0.  1.
        -11    1    1    2    0    0  0.16394024978E+03  0.10611186577E+03  0.23563482042E+03  0.30603905331E+03  0.00000000000E+00 0. -1.
         11    1    1    2    0    0  0.79632702032E+01 -0.11901706106E+02  0.50791088100E+02  0.52771193951E+02  0.00000000000E+00 0.  1.
</event>
<event>
 7    1  0.2873461E-009  0.1306125E+03  0.7561462E-02  0.1226550E+00
          1   -1    0    0  501    0  0.00000000000E+00  0.00000000000E+00  0.19824507794E+04  0.19824507794E+04  0.00000000000E+00 0. -1.
         -1   -1    0    0    0  501 -0.00000000000E+00 -0.00000000000E+00 -0.13811089300E+02  0.13811089300E+02  0.00000000000E+00 0.  1.
         25    2    1    2    0    0  0.19060974055E+02  0.77505794130E+02  0.16298989033E+04  0.16366393076E+04  0.12508924458E+03 0.  0.
          5    1    3    3  502    0  0.69659803397E+02  0.27882865468E+02  0.97904275321E+03  0.98192266875E+03  0.41800000000E+01 0.  1.
         -5    1    3    3    0  502 -0.50598829342E+02  0.49622928662E+02  0.65085615011E+03  0.65471663880E+03  0.41800000000E+01 0.  1.
        -11    1    1    2    0    0  0.31821931749E+02 -0.43438329992E+02  0.21388581076E+03  0.22055988732E+03  0.00000000000E+00 0. -1.
         11    1    1    2    0    0 -0.50882905804E+02 -0.34067464138E+02  0.12485497605E+03  0.13906267386E+03  0.00000000000E+00 0.  1.
</event>
<event>
 7    1  0.3602252E-009  0.2264107E+03  0.7561462E-02  0.1129192E+00
         -2   -1    0    0    0  501 -0.00000000000E+00  0.00000000000E+00  0.53980088232E+02  0.53980088232E+02  0.00000000000E+00 0.  1.
          2   -1    0    0  501    0  0.00000000000E+00 -0.00000000000E+00 -0.99764381388E+03  0.99764381388E+03  0.00000000000E+00 0. -1.
         25    2    1    2    0    0  0.67334197878E+01  0.20331608830E+03 -0.43264092733E+03  0.49417560888E+03  0.12509432322E+03 0.  0.
          5    1    3    3  502    0  0.59105518849E+02  0.97552792295E+02 -0.27043192855E+03  0.29353178707E+03  0.41800000000E+01 0.  1.
         -5    1    3    3    0  502 -0.52372099061E+02  0.10576329600E+03 -0.16220899878E+03  0.20064382180E+03  0.41800000000E+01 0.  1.
        -11    1    1    2    0    0 -0.42418344208E+02 -0.64038832613E+02 -0.14274160646E+03  0.16209705186E+03  0.00000000000E+00 0. -1.
         11    1    1    2    0    0  0.35684924420E+02 -0.13927725568E+03 -0.36828119185E+03  0.39535124137E+03  0.00000000000E+00 0.  1.
</event>
<event>
 7    1  0.2873461E-009  0.1249414E+03  0.7561462E-02  0.1235161E+00
          1   -1    0    0  501    0  0.00000000000E+00  0.00000000000E+00  0.38355409431E+03  0.38355409431E+03  0.00000000000E+00 0. -1.
         -1   -1    0    0    0  501 -0.00000000000E+00 -0.00000000000E+00 -0.10096767369E+03  0.10096767369E+03  0.00000000000E+00 0.  1.
         25    2    1    2    0    0 -0.65538735620E+02  0.71454277338E+02  0.31010234154E+03  0.34815600906E+03  0.12509238506E+03 0.  0.
          5    1    3    3  502    0 -0.14077110781E+02  0.68777265973E+02  0.59035398304E+02  0.91821174113E+02  0.41800000000E+01 0. -1.
         -5    1    3    3    0  502 -0.51461624840E+02  0.26770113651E+01  0.25106694324E+03  0.25633483495E+03  0.41800000000E+01 0. -1.
        -11    1    1    2    0    0  0.32746657952E+01  0.18315264138E+02  0.96607713339E+01  0.20964323010E+02  0.00000000000E+00 0.  1.
         11    1    1    2    0    0  0.62264069825E+02 -0.89769541476E+02 -0.37176692255E+02  0.11540143593E+03  0.00000000000E+00 0. -1.
</event>
<event>
 7    1  0.2873461E-009  0.1111685E+03  0.7561462E-02  0.1258421E+00
         -3   -1    0    0    0  501 -0.00000000000E+00  0.00000000000E+00  0.24864964875E+03  0.24864964875E+03  0.00000000000E+00 0.  1.
          3   -1    0    0  501    0  0.00000000000E+00 -0.00000000000E+00 -0.61236575630E+02  0.61236575630E+02  0.00000000000E+00 0. -1.
         25    2    1    2    0    0  0.52188741994E+01  0.34987396029E+02  0.16334606896E+03  0.20876161880E+03  0.12509244865E+03 0.  0.
          5    1    3    3  502    0 -0.46962989600E+02 -0.22503307846E+02  0.65260373718E+02  0.83596112553E+02  0.41800000000E+01 0. -1.
         -5    1    3    3    0  502  0.52181863799E+02  0.57490703875E+02  0.98085695244E+02  0.12516550624E+03  0.41800000000E+01 0. -1.
        -11    1    1    2    0    0 -0.36102262195E+02  0.10283356924E+02 -0.69172534692E+01  0.38170265401E+02  0.00000000000E+00 0.  1.
         11    1    1    2    0    0  0.30883387995E+02 -0.45270752954E+02  0.30984257625E+02  0.62954340181E+02  0.00000000000E+00 0. -1.
</event>
<event>
 7    1  0.2873461E-009  0.7688020E+02  0.7561462E-02  0.1338146E+00
          1   -1    0    0  501    0  0.00000000000E+00  0.00000000000E+00  0.18237881053E+02  0.18237881053E+02  0.00000000000E+00 0. -1.
         -1   -1    0    0    0  501 -0.00000000000E+00 -0.00000000000E+00 -0.92389678866E+03  0.92389678866E+03  0.00000000000E+00 0.  1.
         25    2    1    2    0    0 -0.10860909656E+02  0.31748354647E+02 -0.73980806211E+03  0.75105983436E+03  0.12509591777E+03 0.  0.
          5    1    3    3  502    0 -0.36429268127E+01 -0.12727131261E+02 -0.48428749071E+01  0.14702946075E+02  0.41800000000E+01 0. -1.
         -5    1    3    3    0  502 -0.72179828433E+01  0.44475485909E+02 -0.73496518721E+03  0.73635688829E+03  0.41800000000E+01 0. -1.
        -11    1    1    2    0    0 -0.38796068986E+02 -0.81271652662E+01 -0.76487721426E+02  0.86148460886E+02  0.00000000000E+00 0. -1.
         11    1    1    2    0    0  0.49656978642E+02 -0.23621189381E+02 -0.89363124072E+02  0.10492637447E+03  0.00000000000E+00 0.  1.
</event>
<event>
 7    1  0.2873461E-009  0.7266059E+02  0.7561462E-02  0.1351272E+00
         -2   -1    0    0    0  501 -0.00000000000E+00  0.00000000000E+00  0.10579835758E+03  0.10579835758E+03  0.00000000000E+00 0.  1.
          2   -1    0    0  501    0  0.00000000000E+00 -0.00000000000E+00 -0.14610648854E+03  0.14610648854E+03  0.00000000000E+00 0. -1.
         25    2    1    2    0    0  0.14199783019E+02  0.55019735556E+02 -0.46246315573E+02  0.14496474878E+03  0.12508897451E+03 0.  0.
          5    1    3    3  502    0  0.12368714471E+02  0.38985072682E+02  0.39857515659E+02  0.57261810522E+02  0.41800000000E+01 0. -1.
         -5    1    3    3    0  502  0.18310685480E+01  0.16034662874E+02 -0.86103831232E+02  0.87702938254E+02  0.41800000000E+01 0. -1.
        -11    1    1    2    0    0  0.26596213889E+02 -0.15742393090E+02  0.32098705021E+02  0.44559043947E+02  0.00000000000E+00 0.  1.
         11    1    1    2    0    0 -0.40795996909E+02 -0.39277342466E+02 -0.26160520410E+02  0.62381053398E+02  0.00000000000E+00 0. -1.
</event>
<event>
 7    1  0.2873461E-009  0.1043679E+03  0.7561462E-02  0.1271370E+00
          4   -1    0    0  501    0  0.00000000000E+00  0.00000000000E+00  0.10010391831E+03  0.10010391831E+03  0.00000000000E+00 0. -1.
         -4   -1    0    0    0  501 -0.00000000000E+00 -0.00000000000E+00 -0.15833901877E+03  0.15833901877E+03  0.00000000000E+00 0.  1.
         25    2    1    2    0    0  0.25735026304E+02  0.57488519915E+02 -0.15029618199E+02  0.14085562209E+03  0.12508874990E+03 0.  0.
          5    1    3    3  502    0  0.31572248763E+02  0.83619768664E+02  0.24643114735E+02  0.92810711167E+02  0.41800000000E+01 0. -1.
         -5    1    3    3    0  502 -0.58372224592E+01 -0.26131248750E+02 -0.39672732933E+02  0.48044910924E+02  0.41800000000E+01 0. -1.
        -11    1    1    2    0    0 -0.49099692786E+01  0.15498145145E+02 -0.38208642343E+02  0.41523495168E+02  0.00000000000E+00 0.  1.
         11    1    1    2    0    0 -0.20825057026E+02 -0.72986665060E+02 -0.49968399101E+01  0.76063819821E+02  0.00000000000E+00 0. -1.
</event>
<event>
 7    1  0.2873461E-009  0.1376978E+03  0.7561462E-02  0.1216461E+00
          2   -1    0    0  501    0  0.00000000000E+00  0.00000000000E+00  0.29682598760E+03  0.29682598760E+03  0.00000000000E+00 0. -1.
         -2   -1    0    0    0  501 -0.00000000000E+00 -0.00000000000E+00 -0.91344175883E+02  0.91344175883E+02  0.00000000000E+00 0.  1.
         25    2    1    2    0    0  0.66386712629E+02 -0.10189390775E+03  0.13248710583E+03  0.21906353096E+03  0.12508570396E+03 0.  0.
          5    1    3    3  502    0 -0.19837964092E+02 -0.13021565871E+02  0.81669514647E+02  0.85149797532E+02  0.41800000000E+01 0.  1.
         -5    1    3    3    0  502  0.86224676722E+02 -0.88872341882E+02  0.50817591188E+02  0.13391373343E+03  0.41800000000E+01 0.  1.
        -11    1    1    2    0    0 -0.42338630127E+02  0.30811374995E+02 -0.14016566343E+02  0.54206683740E+02  0.00000000000E+00 0.  1.
         11    1    1    2    0    0 -0.24048082502E+02  0.71082532758E+02  0.87011272227E+02  0.11489994878E+03  0.00000000000E+00 0. -1.
</event>
<event>
 7    1  0.2873461E-009  0.1332443E+03  0.7561462E-02  0.1222720E+00
         -2   -1    0    0    0  501 -0.00000000000E+00  0.00000000000E+00  0.91220784220E+01  0.91220784220E+01  0.00000000000E+00 0.  1.
          2   -1    0    0  501    0  0.00000000000E+00 -0.00000000000E+00 -0.32357875778E+04  0.32357875778E+04  0.00000000000E+00 0. -1.
         25    2    1    2    0    0 -0.45371845087E+02  0.87239461668E+02 -0.25854511776E+04  0.25903422715E+04  0.12508382783E+03 0.  0.
          5    1    3    3  502    0 -0.74334183526E+02  0.59190487677E+02 -0.10349485552E+04  0.10393099003E+04  0.41800000000E+01 0. -1.
         -5    1    3    3    0  502  0.28962338439E+02  0.28048973991E+02 -0.15505026224E+04  0.15510323712E+04  0.41800000000E+01 0. -1.
        -11    1    1    2    0    0  0.58966897408E+02 -0.20038743177E+02 -0.33902309327E+03  0.34469595876E+03  0.00000000000E+00 0.  1.
         11    1    1    2    0    0 -0.13595052321E+02 -0.67200718491E+02 -0.30219122859E+03  0.30987142599E+03  0.00000000000E+00 0. -1.
</event>
<event>
 7    1  0.2873461E-009  0.1768744E+03  0.7561462E-02  0.1170863E+00
         -1   -1    0    0    0  501 -0.00000000000E+00  0.00000000000E+00  0.23817012228E+02  0.23817012228E+02  0.00000000000E+00 0.  1.
          1   -1    0    0  501    0  0.00000000000E+00 -0.00000000000E+00 -0.15142548304E+04  0.15142548304E+04  0.00000000000E+00 0. -1.
         25    2    1    2    0    0  0.21638151557E+02  0.15360068174E+03 -0.82100257395E+03  0.84483816347E+03  0.12507964256E+03 0.  0.
          5    1    3    3  502    0  0.62496690513E+02  0.12256479319E+03 -0.69893973898E+03  0.71236380872E+03  0.41800000000E+01 0. -1.
         -5    1    3    3    0  502 -0.40858538957E+02  0.31035888542E+02 -0.12206283498E+03  0.13247435475E+03  0.41800000000E+01 0. -1.
        -11    1    1    2    0    0 -0.37738252470E+02 -0.70340456926E+02 -0.18582638700E+03  0.20224589411E+03  0.00000000000E+00 0.  1.
         11    1    1    2    0    0  0.16100100913E+02 -0.83260224809E+02 -0.48360885722E+03  0.49098778504E+03  0.00000000000E+00 0. -1.
</event>
<event>
 7    1  0.2873461E-009  0.1444107E+03  0.7561462E-02  0.1207514E+00
         -2   -1    0    0    0  501 -0.00000000000E+00  0.00000000000E+00  0.38975151996E+02  0.38975151996E+02  0.00000000000E+00 0.  1.
          2   -1    0    0  501    0  0.00000000000E+00 -0.00000000000E+00 -0.57336652794E+03  0.57336652794E+03  0.00000000000E+00 0. -1.
         25    2    1    2    0    0  0.83673843631E+02  0.54765287388E+02 -0.31761059480E+03  0.35570213307E+03  0.12508784407E+03 0.  0.
          5    1    3    3  502    0  0.44594914221E+02  0.89859290043E+02 -0.15419915549E+03  0.18400611494E+03  0.41800000000E+01 0.  1.
         -5    1    3    3    0  502  0.39078929410E+02 -0.35094002655E+02 -0.16341143930E+03  0.17169601813E+03  0.41800000000E+01 0.  1.
        -11    1    1    2    0    0 -0.16211248358E+02  0.25909494886E+02 -0.33628681684E+02  0.45442213089E+02  0.00000000000E+00 0. -1.
         11    1    1    2    0    0 -0.67462595273E+02 -0.80674782275E+02 -0.18315209946E+03  0.21119733378E+03  0.00000000000E+00 0.  1.
</event>
<event>
 7    1  0.2873461E-009  0.1157284E+03  0.7561462E-02  0.1250315E+00
          1   -1    0    0  501    0  0.00000000000E+00  0.00000000000E+00  0.70568546714E+03  0.70568546714E+03  0.00000000000E+00 0. -1.
         -1   -1    0    0    0  501 -0.00000000000E+00 -0.00000000000E+00 -0.19517977013E+02  0.19517977013E+02  0.00000000000E+00 0.  1.
         25    2    1    2    0    0  0.40175378193E+02  0.12590632387E+02  0.34001321909E+03  0.36473180024E+03  0.12509081467E+03 0.  0.
          5    1    3    3  502    0  0.84333756641E+02  0.18839587592E+02  0.24099107267E+03  0.25604937430E+03  0.41800000000E+01 0.  1.
         -5    1    3    3    0  502 -0.44158378448E+02 -0.62489552054E+01  0.99022146419E+02  0.10868242595E+03  0.41800000000E+01 0.  1.
        -11    1    1    2    0    0 -0.43529241219E+02 -0.47875322050E+02  0.23921195713E+03  0.24780880076E+03  0.00000000000E+00 0.  1.
         11    1    1    2    0    0  0.33538630259E+01  0.35284689663E+02  0.10694231391E+03  0.11266284314E+03  0.00000000000E+00 0. -1.
</event>
<event>
 7    1  0.2873461E-009  0.9527922E+02  0.7561462E-02  0.1290548E+00
          1   -1    0    0  501    0  0.00000000000E+00  0.00000000000E+00  0.64846638042E+02  0.64846638042E+02  0.00000000000E+00 0. -1.
         -1   -1    0    0    0  501 -0.00000000000E+00 -0.00000000000E+00 -0.24418658956E+03  0.24418658956E+03  0.00000000000E+00 0.  1.
         25    2    1    2    0    0  0.26418273601E+02 -0.37666088430E+02 -0.46674483947E+02  0.14122093013E+03  0.12509270265E+03 0.  0.
          5    1    3    3  502    0 -0.37191010815E+02  0.23636722170E+02 -0.94261223338E+01  0.45256934304E+02  0.41800000000E+01 0.  1.
         -5    1    3    3    0  502  0.63609284416E+02 -0.61302810600E+02 -0.37248361613E+02  0.95963995822E+02  0.41800000000E+01 0.  1.
        -11    1    1    2    0    0 -0.18993991603E+02 -0.47207981495E+00  0.89220499682E+01  0.20990415717E+02  0.00000000000E+00 0. -1.
         11    1    1    2    0    0 -0.74242819985E+01  0.38138168245E+02 -0.14158751754E+03  0.14682188176E+03  0.00000000000E+00 0.  1.
</event>
<event>
 7    1  0.2873461E-009  0.8341786E+02  0.7561462E-02  0.1319623E+00
         -1   -1    0    0    0  501 -0.00000000000E+00  0.00000000000E+00  0.29210719973E+02  0.29210719973E+02  0.00000000000E+00 0.  1.
          1   -1    0    0  501    0  0.00000000000E+00 -0.00000000000E+00 -0.44454822419E+03  0.44454822419E+03  0.00000000000E+00 0. -1.
         25    2    1    2    0    0 -0.12105106541E+02 -0.17841508228E+01 -0.29876864430E+03  0.32412908990E+03  0.12508895756E+03 0.  0.
          5    1    3    3  502    0  0.10711375781E+02  0.31680170098E+02 -0.14049858932E+02  0.36513527419E+02  0.41800000000E+01 0. -1.
         -5    1    3    3    0  502 -0.22816482321E+02 -0.33464320921E+02 -0.28471878537E+03  0.28761556248E+03  0.41800000000E+01 0. -1.
        -11    1    1    2    0    0 -0.39749137016E+02 -0.52212148361E+01 -0.63548090676E+02  0.75137306356E+02  0.00000000000E+00 0.  1.
         11    1    1    2    0    0  0.51854243557E+02  0.70053656589E+01 -0.53020769245E+02  0.74492547910E+02  0.00000000000E+00 0. -1.
</event>
<event>
 7    1  0.2873461E-009  0.9969601E+02  0.7561462E-02  0.1280936E+00
         -1   -1    0    0    0  501 -0.00000000000E+00  0.00000000000E+00  0.18236406613E+03  0.18236406613E+03  0.00000000000E+00 0.  1.
          1   -1    0    0  501    0  0.00000000000E+00 -0.00000000000E+00 -0.90421708824E+02  0.90421708824E+02  0.00000000000E+00 0. -1.
         25    2    1    2    0    0 -0.53471653882E+01 -0.54414785988E+02  0.98673264684E+02  0.16844328794E+03  0.12508863648E+03 0.  0.
          5    1    3    3  502    0  0.25192651092E+02  0.32167643659E+02  0.13759799721E+02  0.43315487484E+02  0.41800000000E+01 0.  1.
         -5    1    3    3    0  502 -0.30539816480E+02 -0.86582429647E+02  0.84913464964E+02  0.12512780045E+03  0.41800000000E+01 0.  1.
        -11    1    1    2    0    0 -0.15754897455E+02  0.31766966356E+02  0.36685093426E+02  0.51021103722E+02  0.00000000000E+00 0.  1.
         11    1    1    2    0    0  0.21102062843E+02  0.22647819631E+02 -0.43416000806E+02  0.53321383293E+02  0.00000000000E+00 0. -1.
</event>
<event>
 7    1  0.2873461E-009  0.1131608E+03  0.7561462E-02  0.1254826E+00
          2   -1    0    0  501    0  0.00000000000E+00  0.00000000000E+00  0.11716383186E+03  0.11716383186E+03  0.00000000000E+00 0.  1.
         -2   -1    0    0    0  501 -0.00000000000E+00 -0.00000000000E+00 -0.11469790033E+03  0.11469790033E+03  0.00000000000E+00 0. -1.
         25    2    1    2    0    0  0.10653586199E+02 -0.38922281289E+02  0.12331479501E+02  0.13201289651E+03  0.12508755565E+03 0.  0.
          5    1    3    3  502    0  0.58021103884E+00 -0.84219069306E+02  0.13545990935E+02  0.85405822694E+02  0.41800000000E+01 0.  1.
         -5    1    3    3    0  502  0.10073375160E+02  0.45296788017E+02 -0.12145114340E+01  0.46607073817E+02  0.41800000000E+01 0.  1.
        -11    1    1    2    0    0  0.66923662355E+01 -0.26701797982E+02 -0.15752537081E+02  0.31716182081E+02  0.00000000000E+00 0. -1.
         11    1    1    2    0    0 -0.17345952434E+02  0.65624079271E+02  0.58869891055E+01  0.68132653601E+02  0.00000000000E+00 0.  1.
</event>
<event>
 7    1  0.2873461E-009  0.1208772E+03  0.7561462E-02  0.1241657E+00
          1   -1    0    0  501    0  0.00000000000E+00  0.00000000000E+00  0.16151729856E+03  0.16151729856E+03  0.00000000000E+00 0. -1.
         -1   -1    0    0    0  501 -0.00000000000E+00 -0.00000000000E+00 -0.11044048680E+03  0.11044048680E+03  0.00000000000E+00 0.  1.
         25    2    1    2    0    0  0.39630927470E+02 -0.58373508491E+02  0.22760437790E+02  0.14541008838E+03  0.12509188371E+03 0.  0.
          5    1    3    3  502    0  0.76105318590E+02 -0.96030118145E+01 -0.76642528869E+01  0.77203954082E+02  0.41800000000E+01 0.  1.
         -5    1    3    3    0  502 -0.36474391120E+02 -0.48770496676E+02  0.30424690677E+02  0.68206134302E+02  0.41800000000E+01 0.  1.
        -11    1    1    2    0    0  0.86971466114E+01  0.54736079858E+02  0.48882535253E+02  0.73899804128E+02  0.00000000000E+00 0. -1.
         11    1    1    2    0    0 -0.48328074081E+02  0.36374286330E+01 -0.20566161288E+02  0.52647892850E+02  0.00000000000E+00 0.  1.
</event>
<event>
 7    1  0.2873461E-009  0.1352309E+03  0.7561462E-02  0.1219894E+00
         -2   -1    0    0    0  501 -0.00000000000E+00  0.00000000000E+00  0.36781083671E+02  0.36781083671E+02  0.00000000000E+00 0.  1.
          2   -1    0    0  501    0  0.00000000000E+00 -0.00000000000E+00 -0.68266096334E+03  0.68266096334E+03  0.00000000000E+00 0. -1.
         25    2    1    2    0    0  0.73562622132E+01  0.94444176659E+02 -0.20259369191E+03  0.25625236160E+03  0.12508897524E+03 0.  0.
          5    1    3    3  502    0  0.44535388773E+01 -0.27375622514E+02 -0.13184475293E+02  0.30992926698E+02  0.41800000000E+01 0. -1.
         -5    1    3    3    0  502  0.29027233359E+01  0.12181979917E+03 -0.18940921662E+03  0.22525943491E+03  0.41800000000E+01 0. -1.
        -11    1    1    2    0    0 -0.31688966693E+02 -0.10962644806E+02 -0.48645428107E+02  0.59082551290E+02  0.00000000000E+00 0.  1.
         11    1    1    2    0    0  0.24332704480E+02 -0.83481531854E+02 -0.39464075965E+03  0.40410713412E+03  0.00000000000E+00 0. -1.
</event>
<event>
 7    1  0.2873461E-009  0.2023903E+03  0.7561462E-02  0.1147738E+00
         -2   -1    0    0    0  501 -0.00000000000E+00  0.00000000000E+00  0.50221709071E+03  0.50221709071E+03  0.00000000000E+00 0.  1.
          2   -1    0    0  501    0  0.00000000000E+00 -0.00000000000E+00 -0.97513050926E+02  0.97513050926E+02  0.00000000000E+00 0. -1.
         25    2    1    2    0    0 -0.98175119796E+02  0.14686136136E+03  0.10587934444E+03  0.24096708531E+03  0.12509231398E+03 0.  0.
          5    1    3    3  502    0 -0.42061957413E+02  0.15340825815E+03  0.69479313647E+02  0.17363222441E+03  0.41800000000E+01 0.  1.
         -5    1    3    3    0  502 -0.56113162383E+02 -0.65468967942E+01  0.36400030790E+02  0.67334860895E+02  0.41800000000E+01 0.  1.
        -11    1    1    2    0    0  0.55223820483E+02 -0.13278089098E+03  0.17241870665E+03  0.22451869802E+03  0.00000000000E+00 0.  1.
         11    1    1    2    0    0  0.42951299312E+02 -0.14080470378E+02  0.12640598869E+03  0.13424435830E+03  0.00000000000E+00 0. -1.
</event>
<event>
 7    1  0.3287087E-009  0.6988526E+02  0.7561462E-02  0.1360484E+00
          4   -1    0    0  501    0  0.00000000000E+00  0.00000000000E+00  0.33226882656E+02  0.33226882656E+02  0.00000000000E+00 0. -1.
         -4   -1    0    0    0  501 -0.00000000000E+00 -0.00000000000E+00 -0.53697527889E+03  0.53697527889E+03  0.00000000000E+00 0.  1.
         25    2    1    2    0    0  0.23744187042E+01 -0.40586819322E+02 -0.41865457386E+03  0.43883295023E+03  0.12509907364E+03 0.  0.
          5    1    3    3  502    0 -0.30075522297E+02 -0.23008432802E+02 -0.39017253255E+03  0.39202806351E+03  0.41800000000E+01 0. -1.
         -5    1    3    3    0  502  0.32449941002E+02 -0.17578386520E+02 -0.28482041308E+02  0.46804886719E+02  0.41800000000E+01 0. -1.
        -11    1    1    2    0    0 -0.21211394510E+02  0.16468069085E+01 -0.85503269876E+02  0.88110410223E+02  0.00000000000E+00 0.  1.
         11    1    1    2    0    0  0.18836975806E+02  0.38940012414E+02  0.40944750783E+00  0.43258801088E+02  0.00000000000E+00 0. -1.
</event>
<event>
 7    1  0.2873461E-009  0.9289319E+02  0.7561462E-02  0.1295993E+00
         -3   -1    0    0    0  501 -0.00000000000E+00  0.00000000000E+00  0.19213953368E+03  0.19213953368E+03  0.00000000000E+00 0.  1.
          3   -1    0    0  501    0  0.00000000000E+00 -0.00000000000E+00 -0.10219477456E+03  0.10219477456E+03  0.00000000000E+00 0. -1.
         25    2    1    2    0    0  0.38421933605E+02  0.31337422237E+02 -0.27933427891E+02  0.13743053270E+03  0.12509434803E+03 0.  0.
          5    1    3    3  502    0  0.61503042508E+02  0.38610807483E+02  0.26737538970E+02  0.77497013377E+02  0.41800000000E+01 0. -1.
         -5    1    3    3    0  502 -0.23081108902E+02 -0.72733852462E+01 -0.54670966860E+02  0.59933519324E+02  0.41800000000E+01 0. -1.
        -11    1    1    2    0    0 -0.18435375199E+02  0.23647693802E+02  0.58947380946E+01  0.30558540837E+02  0.00000000000E+00 0.  1.
         11    1    1    2    0    0 -0.19986558407E+02 -0.54985116039E+02  0.11198344891E+03  0.12634523471E+03  0.00000000000E+00 0. -1.
</event>
<event>
 7    1  0.2873461E-009  0.1592817E+03  0.7561462E-02  0.1189510E+00
          2   -1    0    0  501    0  0.00000000000E+00  0.00000000000E+00  0.98379482707E+03  0.98379482707E+03  0.00000000000E+00 0. -1.
         -2   -1    0    0    0  501 -0.00000000000E+00 -0.00000000000E+00 -0.45996615384E+02  0.45996615384E+02  0.00000000000E+00 0.  1.
         25    2    1    2    0    0 -0.32189580179E+02 -0.15039675529E+03  0.24901776548E+03  0.31829542801E+03  0.12508708523E+03 0.  0.
          5    1    3    3  502    0 -0.40061714462E+02 -0.70581433127E+02  0.32784904124E+02  0.87629915020E+02  0.41800000000E+01 0.  1.
         -5    1    3    3    0  502  0.78721342829E+01 -0.79815322162E+02  0.21623286136E+03  0.23066551299E+03  0.41800000000E+01 0.  1.
        -11    1    1    2    0    0 -0.25548108234E+01  0.61316840351E+02  0.12049912398E+03  0.13522692353E+03  0.00000000000E+00 0.  1.
         11    1    1    2    0    0  0.34744391003E+02  0.89079914938E+02  0.56828132222E+03  0.57626909091E+03  0.00000000000E+00 0. -1.
</event>
<event>
 7    1  0.2873461E-009  0.1362039E+03  0.7561462E-02  0.1218530E+00
          2   -1    0    0  501    0  0.00000000000E+00  0.00000000000E+00  0.38131160939E+02  0.38131160939E+02  0.00000000000E+00 0. -1.
         -2   -1    0    0    0  501 -0.00000000000E+00 -0.00000000000E+00 -0.86224907175E+03  0.86224907175E+03  0.00000000000E+00 0.  1.
         25    2    1    2    0    0 -0.48450486739E+02  0.88875919881E+02 -0.68706337086E+03  0.70565632093E+03  0.12509352054E+03 0.  0.
          5    1    3    3  502    0 -0.60810856018E+02  0.99937659900E+02 -0.67411276559E+03  0.68420098598E+03  0.41800000000E+01 0. -1.
         -5    1    3    3    0  502  0.12360369279E+02 -0.11061740020E+02 -0.12950605273E+02  0.21455334952E+02  0.41800000000E+01 0. -1.
        -11    1    1    2    0    0 -0.95758728444E+01 -0.78760677355E+02 -0.75339063506E+02  0.10941168186E+03  0.00000000000E+00 0.  1.
         11    1    1    2    0    0  0.58026359584E+02 -0.10115242525E+02 -0.61715476441E+02  0.85312229898E+02  0.00000000000E+00 0. -1.
</event>
<event>
 7    1  0.2873461E-009  0.9208751E+02  0.7561462E-02  0.1297874E+00
         -1   -1    0    0    0  501 -0.00000000000E+00  0.00000000000E+00  0.54376056341E+02  0.54376056341E+02  0.00000000000E+00 0.  1.
          1   -1    0    0  501    0  0.00000000000E+00 -0.00000000000E+00 -0.27102664465E+03  0.27102664465E+03  0.00000000000E+00 0. -1.
         25    2    1    2    0    0 -0.20744229613E+02  0.32218805953E+02 -0.16341939292E+03  0.20934749638E+03  0.12510835998E+03 0.  0.
          5    1    3    3  502    0 -0.70641340087E+02  0.43865151945E+00 -0.77505121323E+02  0.10495192983E+03  0.41800000000E+01 0. -1.
         -5    1    3    3    0  502  0.49897110474E+02  0.31780154433E+02 -0.85914271600E+02  0.10439556654E+03  0.41800000000E+01 0. -1.
        -11    1    1    2    0    0 -0.23049913844E+01 -0.30932139223E+02  0.21564852597E+02  0.37777679782E+02  0.00000000000E+00 0.  1.
         11    1    1    2    0    0  0.23049220997E+02 -0.12866667300E+01 -0.74796047988E+02  0.78277524836E+02  0.00000000000E+00 0. -1.
</event>
<event>
 7    1  0.2873461E-009  0.1576538E+03  0.7561462E-02  0.1191371E+00
          2   -1    0    0  501    0  0.00000000000E+00  0.00000000000E+00  0.10902706860E+04  0.10902706860E+04  0.00000000000E+00 0. -1.
         -2   -1    0    0    0  501 -0.00000000000E+00 -0.00000000000E+00 -0.26253181076E+02  0.26253181076E+02  0.00000000000E+00 0.  1.
         25    2    1    2    0    0  0.57730891153E+02 -0.10373615710E+03  0.70185317776E+03  0.72273077767E+03  0.12509135774E+03 0.  0.
          5    1    3    3  502    0  0.84203095707E+02 -0.23146934713E+02  0.34351275564E+03  0.35446357725E+03  0.41800000000E+01 0. -1.
         -5    1    3    3    0  502 -0.26472204555E+02 -0.80589222386E+02  0.35834042212E+03  0.36826720042E+03  0.41800000000E+01 0. -1.
        -11    1    1    2    0    0  0.51069522598E+01  0.72679616079E+02  0.10902910950E+03  0.13113258281E+03  0.00000000000E+00 0.  1.
         11    1    1    2    0    0 -0.62837843412E+02  0.31056541020E+02  0.25313521768E+03  0.26266050661E+03  0.00000000000E+00 0. -1.
</event>
<event>
 7    1  0.2873461E-009  0.1101488E+03  0.7561462E-02  0.1260295E+00
          2   -1    0    0  501    0  0.00000000000E+00  0.00000000000E+00  0.46045978901E+03  0.46045978901E+03  0.00000000000E+00 0. -1.
         -2   -1    0    0    0  501 -0.00000000000E+00 -0.00000000000E+00 -0.46246335430E+02  0.46246335430E+02  0.00000000000E+00 0.  1.
         25    2    1    2    0    0 -0.72539481695E+01 -0.76316193023E+02  0.12411509458E+03  0.19216718213E+03  0.12508752177E+03 0.  0.
          5    1    3    3  502    0  0.53372684150E+02 -0.40649628005E+02  0.93942747850E+02  0.11551514162E+03  0.41800000000E+01 0.  1.
         -5    1    3    3    0  502 -0.60626632319E+02 -0.35666565018E+02  0.30172346735E+02  0.76652040508E+02  0.41800000000E+01 0.  1.
        -11    1    1    2    0    0 -0.34681585642E+01  0.70168852391E+02  0.29344238522E+03  0.30173519750E+03  0.00000000000E+00 0. -1.
         11    1    1    2    0    0  0.10722106734E+02  0.61473406316E+01 -0.33440262251E+01  0.12803744805E+02  0.00000000000E+00 0.  1.
</event>
<event>
 7    1  0.2873461E-009  0.1130189E+03  0.7561462E-02  0.1255079E+00
         -1   -1    0    0    0  501 -0.00000000000E+00  0.00000000000E+00  0.90541958573E+02  0.90541958573E+02  0.00000000000E+00 0.  1.
          1   -1    0    0  501    0  0.00000000000E+00 -0.00000000000E+00 -0.22060216955E+03  0.22060216955E+03  0.00000000000E+00 0. -1.
         25    2    1    2    0    0 -0.63810995227E+02  0.35306101323E+02 -0.13434978614E+03  0.19752722493E+03  0.12509506645E+03 0.  0.
          5    1    3    3  502    0  0.26406915248E+02 -0.11581172246E+02 -0.73252167729E+02  0.78834010430E+02  0.41800000000E+01 0. -1.
         -5    1    3    3    0  502 -0.90217910475E+02  0.46887273569E+02 -0.61097618409E+02  0.11869321450E+03  0.41800000000E+01 0. -1.
        -11    1    1    2    0    0  0.20765540323E+02 -0.46274553990E+02  0.33196919137E+02  0.60618293048E+02  0.00000000000E+00 0.  1.
         11    1    1    2    0    0  0.43045454904E+02  0.10968452667E+02 -0.28907343981E+02  0.52998610150E+02  0.00000000000E+00 0. -1.
</event>
<event>
 7    1  0.2873461E-009  0.1033065E+03  0.7561462E-02  0.1273493E+00
         -1   -1    0    0    0  501 -0.00000000000E+00  0.00000000000E+00  0.21297256129E+03  0.21297256129E+03  0.00000000000E+00 0.  1.
          1   -1    0    0  501    0  0.00000000000E+00 -0.00000000000E+00 -0.70805683568E+02  0.70805683568E+02  0.00000000000E+00 0. -1.
         25    2    1    2    0    0 -0.11146425800E+02 -0.50869381723E+02  0.58840133654E+02  0.14772823366E+03  0.12509809306E+03 0.  0.
          5    1    3    3  502    0 -0.67150882928E+02 -0.31486124102E+02  0.20647785822E+02  0.77100068406E+02  0.41800000000E+01 0.  1.
         -5    1    3    3    0  502  0.56004457128E+02 -0.19383257621E+02  0.38192347832E+02  0.70628165253E+02  0.41800000000E+01 0.  1.
        -11    1    1    2    0    0 -0.20254419548E+02  0.14740634236E+02  0.84533668327E+02  0.88167277886E+02  0.00000000000E+00 0.  1.
         11    1    1    2    0    0  0.31400845348E+02  0.36128747486E+02 -0.12069242575E+01  0.47882733314E+02  0.00000000000E+00 0. -1.
</event>
<event>
 6    1  0.2873461E-009  0.1890751E+03  0.7561462E-02  0.1159298E+00
          2   -1    0    0  501    0  0.00000000000E+00  0.00000000000E+00  0.22095364968E+03  0.22095364968E+03  0.00000000000E+00 0. -1.
         -2   -1    0    0    0  501 -0.00000000000E+00 -0.00000000000E+00 -0.17754600417E+03  0.17754600417E+03  0.00000000000E+00 0.  1.
          5    1    1    2  502    0  0.93403142706E+02  0.64107771868E+02  0.57991030811E+02  0.12733571980E+03  0.41800000000E+01 0.  1.
         -5    1    1    2    0  502 -0.25695193594E+02  0.80376229035E+02  0.82200762024E+01  0.84885942420E+02  0.41800000000E+01 0.  1.
        -11    1    1    2    0    0 -0.61353894475E+02 -0.35008196625E+02 -0.29189107985E+02  0.76432180547E+02  0.00000000000E+00 0.  1.
         11    1    1    2    0    0 -0.63540546371E+01 -0.10947580428E+03  0.63856464826E+01  0.10984581109E+03  0.00000000000E+00 0. -1.
</event>
<event>
 7    1  0.2873461E-009  0.1723240E+03  0.7561462E-02  0.1175446E+00
         -2   -1    0    0    0  501 -0.00000000000E+00  0.00000000000E+00  0.35287235102E+03  0.35287235102E+03  0.00000000000E+00 0.  1.
          2   -1    0    0  501    0  0.00000000000E+00 -0.00000000000E+00 -0.88187737879E+02  0.88187737879E+02  0.00000000000E+00 0. -1.
         25    2    1    2    0    0  0.12085406086E+03 -0.67461219056E+02  0.14495457241E+03  0.23625576439E+03  0.12509291764E+03 0.  0.
          5    1    3    3  502    0  0.65763407169E+02 -0.98946544664E+02  0.69994707010E+02  0.13795642730E+03  0.41800000000E+01 0.  1.
         -5    1    3    3    0  502  0.55090653687E+02  0.31485325608E+02  0.74959865395E+02  0.98299337090E+02  0.41800000000E+01 0.  1.
        -11    1    1    2    0    0  0.23936402773E+01  0.34519046714E+02  0.86960187143E+01  0.35677932133E+02  0.00000000000E+00 0.  1.
         11    1    1    2    0    0 -0.12324770113E+03  0.32942172342E+02  0.11103402203E+03  0.16912639238E+03  0.00000000000E+00 0. -1.
</event>
<event>
 7    1  0.2873461E-009  0.7744873E+02  0.7561462E-02  0.1336452E+00
         -1   -1    0    0    0  501 -0.00000000000E+00  0.00000000000E+00  0.20437082509E+03  0.20437082509E+03  0.00000000000E+00 0.  1.
          1   -1    0    0  501    0  0.00000000000E+00 -0.00000000000E+00 -0.64456362839E+02  0.64456362839E+02  0.00000000000E+00 0. -1.
         25    2    1    2    0    0 -0.16349165534E+02 -0.10718979716E+02  0.11571630691E+03  0.17152221378E+03  0.12508962544E+03 0.  0.
          5    1    3    3  502    0  0.26704741328E+02  0.33415660288E+01  0.12253895118E+03  0.12552918477E+03  0.41800000000E+01 0. -1.
         -5    1    3    3    0  502 -0.43053906862E+02 -0.14060545745E+02 -0.68226442639E+01  0.45993029009E+02  0.41800000000E+01 0. -1.
        -11    1    1    2    0    0 -0.13809524166E+02 -0.29109530658E+02  0.33509538018E+02  0.46486093308E+02  0.00000000000E+00 0. -1.
         11    1    1    2    0    0  0.30158689700E+02  0.39828510374E+02 -0.93113826788E+01  0.50818880846E+02  0.00000000000E+00 0.  1.
</event>
<event>
 7    1  0.2873461E-009  0.1927882E+03  0.7561462E-02  0.1155970E+00
         -2   -1    0    0    0  501 -0.00000000000E+00  0.00000000000E+00  0.18546736890E+03  0.18546736890E+03  0.00000000000E+00 0.  1.
          2   -1    0    0  501    0  0.00000000000E+00 -0.00000000000E+00 -0.21204623646E+03  0.21204623646E+03  0.00000000000E+00 0. -1.
         25    2    1    2    0    0  0.57501775875E+02 -0.15537106423E+03 -0.33785133611E+02  0.21032227795E+03  0.12508958198E+03 0.  0.
          5    1    3    3  502    0 -0.35199642352E+02 -0.48076980697E+02 -0.33462453773E+02  0.68466189519E+02  0.41800000000E+01 0.  1.
         -5    1    3    3    0  502  0.92701418228E+02 -0.10729408353E+03 -0.32267983817E+00  0.14185608843E+03  0.41800000000E+01 0.  1.
        -11    1    1    2    0    0  0.44138175590E+01  0.10243136968E+03  0.20764997604E+02  0.10460808958E+03  0.00000000000E+00 0.  1.
         11    1    1    2    0    0 -0.61915593434E+02  0.52939694544E+02 -0.13558731548E+02  0.82583237827E+02  0.00000000000E+00 0. -1.
</event>
<event>
 7    1  0.2873461E-009  0.9631316E+02  0.7561462E-02  0.1288246E+00
          1   -1    0    0  501    0  0.00000000000E+00  0.00000000000E+00  0.48997524349E+03  0.48997524349E+03  0.00000000000E+00 0. -1.
         -1   -1    0    0    0  501 -0.00000000000E+00 -0.00000000000E+00 -0.31554884945E+02  0.31554884945E+02  0.00000000000E+00 0.  1.
         25    2    1    2    0    0 -0.49738609066E+02  0.28712621954E+02  0.24035643918E+03  0.27698152518E+03  0.12509677671E+03 0.  0.
          5    1    3    3  502    0 -0.68410008727E+02  0.13035648201E+01  0.23283852206E+03  0.24271975266E+03  0.41800000000E+01 0.  1.
         -5    1    3    3    0  502  0.18671399661E+02  0.27409057134E+02  0.75179171177E+01  0.34261772518E+02  0.41800000000E+01 0.  1.
        -11    1    1    2    0    0 -0.13739681432E+02 -0.23159976776E+02  0.14553098168E+03  0.14800145269E+03  0.00000000000E+00 0. -1.
         11    1    1    2    0    0  0.63478290499E+02 -0.55526451782E+01  0.72532937684E+02  0.96547150565E+02  0.00000000000E+00 0.  1.
</event>
<event>
 7    1  0.2873461E-009  0.1407964E+03  0.7561462E-02  0.1212261E+00
          2   -1    0    0  501    0  0.00000000000E+00  0.00000000000E+00  0.21765265015E+03  0.21765265015E+03  0.00000000000E+00 0.  1.
         -2   -1    0    0    0  501 -0.00000000000E+00 -0.00000000000E+00 -0.11330030674E+03  0.11330030674E+03  0.00000000000E+00 0. -1.
         25    2    1    2    0    0 -0.97477029605E+02 -0.31131676450E+02  0.46106549241E+01  0.16167840231E+03  0.12509074728E+03 0.  0.
          5    1    3    3  502    0 -0.31150055479E+02 -0.63607669477E+02  0.38043147332E+02  0.80504751609E+02  0.41800000000E+01 0.  1.
         -5    1    3    3    0  502 -0.66326974126E+02  0.32475993027E+02 -0.33432492408E+02  0.81173650703E+02  0.41800000000E+01 0.  1.
        -11    1    1    2    0    0  0.14496205697E+02  0.49590389777E+02  0.34691770869E+02  0.62232352550E+02  0.00000000000E+00 0.  1.
         11    1    1    2    0    0  0.82980823908E+02 -0.18458713327E+02  0.65049917608E+02  0.10704220203E+03  0.00000000000E+00 0. -1.
</event>
<event>
 7    1  0.2873461E-009  0.1037562E+03  0.7561462E-02  0.1272590E+00
         -2   -1    0    0    0  501 -0.00000000000E+00  0.00000000000E+00  0.75345488167E+03  0.75345488167E+03  0.00000000000E+00 0. -1.
          2   -1    0    0  501    0  0.00000000000E+00 -0.00000000000E+00 -0.38632394628E+02  0.38632394628E+02  0.00000000000E+00 0.  1.
         25    2    1    2    0    0 -0.17581107936E+02  0.21360222588E+02  0.67826304532E+03  0.69025647570E+03  0.12509152302E+03 0.  0.
          5    1    3    3  502    0  0.21478642386E+02 -0.44208374561E+02  0.20436066258E+03  0.21022955375E+03  0.41800000000E+01 0. -1.
         -5    1    3    3    0  502 -0.39059750322E+02  0.65568597149E+02  0.47390238274E+03  0.48002692194E+03  0.41800000000E+01 0. -1.
        -11    1    1    2    0    0 -0.15321503543E+02 -0.40766285892E+02 -0.67632050632E+01  0.44072434457E+02  0.00000000000E+00 0.  1.
         11    1    1    2    0    0  0.32902611479E+02  0.19406063304E+02  0.43322646786E+02  0.57758366144E+02  0.00000000000E+00 0. -1.
</event>
<event>
 7    1  0.2873461E-009  0.1132834E+03  0.7561462E-02  0.1254608E+00
          1   -1    0    0  501    0  0.00000000000E+00  0.00000000000E+00  0.75043014516E+02  0.75043014516E+02  0.00000000000E+00 0.  1.
         -1   -1    0    0    0  501 -0.00000000000E+00 -0.00000000000E+00 -0.22501717770E+03  0.22501717770E+03  0.00000000000E+00 0. -1.
         25    2    1    2    0    0  0.70767059762E+02  0.75593092449E+01 -0.77185607439E+02  0.16331009011E+03  0.12508975831E+03 0.  0.
          5    1    3    3  502    0  0.13833336516E+02 -0.53194050982E+02 -0.95177957766E+01  0.55937725155E+02  0.41800000000E+01 0. -1.
         -5    1    3    3    0  502  0.56933723246E+02  0.60753360227E+02 -0.67667811662E+02  0.10737236496E+03  0.41800000000E+01 0. -1.
        -11    1    1    2    0    0 -0.20519951006E+02  0.21754983933E+02  0.13396831021E+02  0.32769235521E+02  0.00000000000E+00 0.  1.
         11    1    1    2    0    0 -0.50247108757E+02 -0.29314293178E+02 -0.86185386764E+02  0.10398086658E+03  0.00000000000E+00 0. -1.
</event>
<event>
 7    1  0.2873461E-009  0.1130571E+03  0.7561462E-02  0.1255011E+00
         -2   -1    0    0    0  501 -0.00000000000E+00  0.00000000000E+00  0.43061756920E+02  0.43061756920E+02  0.00000000000E+00 0.  1.
          2   -1    0    0  501    0  0.00000000000E+00 -0.00000000000E+00 -0.35186917554E+03  0.35186917554E+03  0.00000000000E+00 0. -1.
         25    2    1    2    0    0 -0.14094145027E+02 -0.39245076438E+02 -0.23386623637E+03  0.26847493851E+03  0.12508619085E+03 0.  0.
          5    1    3    3  502    0 -0.60058696737E+02  0.86228785752E+01 -0.14696392312E+03  0.15905114959E+03  0.41800000000E+01 0. -1.
         -5    1    3    3    0  502  0.45964551710E+02 -0.47867955013E+02 -0.86902313255E+02  0.10942378891E+03  0.41800000000E+01 0. -1.
        -11    1    1    2    0    0 -0.32401064859E+02  0.41018643519E+02 -0.54868251794E+02  0.75781812957E+02  0.00000000000E+00 0.  1.
         11    1    1    2    0    0  0.46495209886E+02 -0.17735670813E+01 -0.20072930451E+02  0.50674180994E+02  0.00000000000E+00 0. -1.
</event>
<event>
 7    1  0.2873461E-009  0.7061929E+02  0.7561462E-02  0.1358000E+00
         -2   -1    0    0    0  501 -0.00000000000E+00  0.00000000000E+00  0.97688067630E+02  0.97688067630E+02  0.00000000000E+00 0. -1.
          2   -1    0    0  501    0  0.00000000000E+00 -0.00000000000E+00 -0.16715400843E+03  0.16715400843E+03  0.00000000000E+00 0.  1.
         25    2    1    2    0    0 -0.26191532122E+02 -0.80333340526E+01 -0.11595337368E+03  0.17275509221E+03  0.12509438919E+03 0.  0.
          5    1    3    3  502    0 -0.87515708209E+01 -0.41358800915E+02  0.79349073998E+01  0.43215455110E+02  0.41800000000E+01 0.  1.
         -5    1    3    3    0  502 -0.17439961302E+02  0.33325466862E+02 -0.12388828108E+03  0.12953963710E+03  0.41800000000E+01 0.  1.
        -11    1    1    2    0    0 -0.16231999170E+02 -0.41897284439E+01  0.44879690372E+02  0.47908435890E+02  0.00000000000E+00 0. -1.
         11    1    1    2    0    0  0.42423531292E+02  0.12223062496E+02  0.16077425035E+01  0.44178547962E+02  0.00000000000E+00 0.  1.
</event>
<event>
 7    1  0.2873461E-009  0.2211119E+03  0.7561462E-02  0.1133057E+00
          2   -1    0    0  501    0  0.00000000000E+00  0.00000000000E+00  0.19594317451E+03  0.19594317451E+03  0.00000000000E+00 0. -1.
         -2   -1    0    0    0  501 -0.00000000000E+00 -0.00000000000E+00 -0.28926289939E+03  0.28926289939E+03  0.00000000000E+00 0.  1.
         25    2    1    2    0    0  0.20823604286E+03  0.33218634142E+02 -0.59965941606E+02  0.25241039821E+03  0.12509743311E+03 0.  0.
          5    1    3    3  502    0  0.16729081731E+03  0.18499633777E+02  0.11371862055E+02  0.16874609818E+03  0.41800000000E+01 0. -1.
         -5    1    3    3    0  502  0.40945225553E+02  0.14719000365E+02 -0.71337803661E+02  0.83664300024E+02  0.41800000000E+01 0. -1.
        -11    1    1    2    0    0 -0.10795960554E+03  0.29446963248E+02 -0.10870984321E+02  0.11243032675E+03  0.00000000000E+00 0. -1.
         11    1    1    2    0    0 -0.10027643732E+03 -0.62665597389E+02 -0.22482798952E+02  0.12036534895E+03  0.00000000000E+00 0.  1.
</event>
<event>
 7    1  0.2873461E-009  0.1320553E+03  0.7561462E-02  0.1224437E+00
         -3   -1    0    0    0  501 -0.00000000000E+00  0.00000000000E+00  0.50428431050E+03  0.50428431050E+03  0.00000000000E+00 0.  1.
          3   -1    0    0  501    0  0.00000000000E+00 -0.00000000000E+00 -0.42705183986E+02  0.42705183986E+02  0.00000000000E+00 0. -1.
         25    2    1    2    0    0 -0.50186126036E+02  0.67186035908E+02  0.15375838662E+03  0.21522377219E+03  0.12508804896E+03 0.  0.
          5    1    3    3  502    0 -0.76804777178E+02 -0.13510266925E+01  0.76642144736E+02  0.10859231013E+03  0.41800000000E+01 0.  1.
         -5    1    3    3    0  502  0.26618651143E+02  0.68537062601E+02  0.77116241885E+02  0.10663146206E+03  0.41800000000E+01 0.  1.
        -11    1    1    2    0    0 -0.95911294929E+01 -0.50600513647E+02  0.76132084662E+02  0.91915700842E+02  0.00000000000E+00 0. -1.
         11    1    1    2    0    0  0.59777255529E+02 -0.16585522261E+02  0.23168865523E+03  0.23985002145E+03  0.00000000000E+00 0.  1.
</event>
<event>
 7    1  0.4230873E-009  0.1341620E+03  0.7561462E-02  0.1221408E+00
          1   -1    0    0  501    0  0.00000000000E+00  0.00000000000E+00  0.87501509385E+03  0.87501509385E+03  0.00000000000E+00 0. -1.
         -1   -1    0    0    0  501 -0.00000000000E+00 -0.00000000000E+00 -0.35931518486E+02  0.35931518486E+02  0.00000000000E+00 0.  1.
         25    2    1    2    0    0  0.54630658300E+01 -0.11976710036E+03  0.25985739364E+03  0.31232369266E+03  0.12508485341E+03 0.  0.
          5    1    3    3  502    0 -0.24412163792E+01 -0.10298775815E+03  0.27123285220E+03  0.29016748677E+03  0.41800000000E+01 0.  1.
         -5    1    3    3    0  502  0.79042822092E+01 -0.16779342209E+02 -0.11375458558E+02  0.22156205894E+02  0.41800000000E+01 0.  1.
        -11    1    1    2    0    0  0.34753982426E+02  0.89087072266E+02  0.44555102341E+03  0.45569733399E+03  0.00000000000E+00 0. -1.
         11    1    1    2    0    0 -0.40217048256E+02  0.30680028094E+02  0.13367515831E+03  0.14292558569E+03  0.00000000000E+00 0.  1.
</event>
<event>
 7    1  0.2873461E-009  0.8932466E+02  0.7561462E-02  0.1304495E+00
         -2   -1    0    0    0  501 -0.00000000000E+00  0.00000000000E+00  0.42308447109E+02  0.42308447109E+02  0.00000000000E+00 0.  1.
          2   -1    0    0  501    0  0.00000000000E+00 -0.00000000000E+00 -0.31301576327E+03  0.31301576327E+03  0.00000000000E+00 0. -1.
         25    2    1    2    0    0 -0.16914583335E+02  0.11906525541E+01 -0.20329899096E+03  0.23930219778E+03  0.12509013293E+03 0.  0.
          5    1    3    3  502    0 -0.58239598177E+02 -0.37453803435E+02 -0.11725447035E+03  0.13623773854E+03  0.41800000000E+01 0. -1.
         -5    1    3    3    0  502  0.41325014842E+02  0.38644455989E+02 -0.86044520617E+02  0.10306445924E+03  0.41800000000E+01 0. -1.
        -11    1    1    2    0    0  0.34431976897E+02 -0.44840759536E+01  0.10361491601E+02  0.36235734826E+02  0.00000000000E+00 0.  1.
         11    1    1    2    0    0 -0.17517393562E+02  0.32934233995E+01 -0.77769816798E+02  0.79786277766E+02  0.00000000000E+00 0. -1.
</event>
<event>
 7    1  0.2873461E-009  0.1061951E+03  0.7561462E-02  0.1267783E+00
          1   -1    0    0  501    0  0.00000000000E+00  0.00000000000E+00  0.25675027722E+02  0.25675027722E+02  0.00000000000E+00 0. -1.
         -1   -1    0    0    0  501 -0.00000000000E+00 -0.00000000000E+00 -0.62181626981E+03  0.62181626981E+03  0.00000000000E+00 0.  1.
         25    2    1    2    0    0 -0.40794572511E+02  0.10701882139E+02 -0.44579040250E+03  0.46492467288E+03  0.12508853293E+03 0.  0.
          5    1    3    3  502    0 -0.55052128623E+02  0.55101397719E+02 -0.34618872412E+03  0.35486758940E+03  0.41800000000E+01 0.  1.
         -5    1    3    3    0  502  0.14257556112E+02 -0.44399515580E+02 -0.99601678377E+02  0.11005708349E+03  0.41800000000E+01 0.  1.
        -11    1    1    2    0    0  0.86247197116E+01 -0.41886109959E+02 -0.12264898733E+03  0.12989074675E+03  0.00000000000E+00 0.  1.
         11    1    1    2    0    0  0.32169852800E+02  0.31184227819E+02 -0.27701852259E+02  0.52675877899E+02  0.00000000000E+00 0. -1.
</event>
<event>
 7    1  0.2873461E-009  0.9072177E+02  0.7561462E-02  0.1301113E+00
         -1   -1    0    0    0  501 -0.00000000000E+00  0.00000000000E+00  0.42255505049E+02  0.42255505049E+02  0.00000000000E+00 0.  1.
          1   -1    0    0  501    0  0.00000000000E+00 -0.00000000000E+00 -0.40811510081E+03  0.40811510081E+03  0.00000000000E+00 0. -1.
         25    2    1    2    0    0 -0.48777619496E+02  0.56676491071E+02 -0.20571703273E+03  0.25210800909E+03  0.12508984726E+03 0.  0.
          5    1    3    3  502    0 -0.27064652490E+02 -0.47783719134E+01 -0.17964735281E+03  0.18178551105E+03  0.41800000000E+01 0.  1.
         -5    1    3    3    0  502 -0.21712967006E+02  0.61454862985E+02 -0.26069679919E+02  0.70322498048E+02  0.41800000000E+01 0.  1.
        -11    1    1    2    0    0  0.10172598674E+02 -0.47599965818E+02 -0.20011432563E+02  0.52627900802E+02  0.00000000000E+00 0.  1.
         11    1    1    2    0    0  0.38605020822E+02 -0.90765252535E+01 -0.14013113047E+03  0.14563469597E+03  0.00000000000E+00 0. -1.
</event>
<event>
 7    1  0.2873461E-009  0.1268674E+03  0.7561462E-02  0.1232179E+00
         -1   -1    0    0    0  501 -0.00000000000E+00  0.00000000000E+00  0.10438944011E+03  0.10438944011E+03  0.00000000000E+00 0.  1.
          1   -1    0    0  501    0  0.00000000000E+00 -0.00000000000E+00 -0.17203729789E+03  0.17203729789E+03  0.00000000000E+00 0. -1.
         25    2    1    2    0    0  0.39277960843E+02 -0.60565294546E+02 -0.93818026367E+01  0.14472880522E+03  0.12508995055E+03 0.  0.
          5    1    3    3  502    0 -0.17370220174E+02 -0.76073573727E+02 -0.27946469714E+02  0.82990305084E+02  0.41800000000E+01 0.  1.
         -5    1    3    3    0  502  0.56648181017E+02  0.15508279181E+02  0.18564667077E+02  0.61738500139E+02  0.41800000000E+01 0.  1.
        -11    1    1    2    0    0  0.75428900281E+01  0.68764470534E+02 -0.24480320527E+02  0.73380744688E+02  0.00000000000E+00 0.  1.
         11    1    1    2    0    0 -0.46820850871E+02 -0.81991759882E+01 -0.33785734615E+02  0.58317188089E+02  0.00000000000E+00 0. -1.
</event>
<event>
 7    1  0.3457909E-009  0.1622177E+03  0.7561462E-02  0.1186215E+00
         -2   -1    0    0    0  501 -0.00000000000E+00  0.00000000000E+00  0.77708856304E+02  0.77708856304E+02  0.00000000000E+00 0. -1.
          2   -1    0    0  501    0  0.00000000000E+00 -0.00000000000E+00 -0.48954943413E+03  0.48954943413E+03  0.00000000000E+00 0.  1.
         25    2    1    2    0    0 -0.41755684804E+02 -0.15538988865E+03 -0.19016407965E+03  0.27874578435E+03  0.12508908985E+03 0.  0.
          5    1    3    3  502    0 -0.19514478919E+02 -0.10178952306E+03 -0.19447059394E+03  0.22040464196E+03  0.41800000000E+01 0. -1.
         -5    1    3    3    0  502 -0.22241205885E+02 -0.53600365588E+02  0.43065142900E+01  0.58341142392E+02  0.41800000000E+01 0. -1.
        -11    1    1    2    0    0  0.42062309099E+01  0.57933871833E+02 -0.20062649467E+02  0.61453525429E+02  0.00000000000E+00 0. -1.
         11    1    1    2    0    0  0.37549453894E+02  0.97456016815E+02 -0.20161384871E+03  0.22705898065E+03  0.00000000000E+00 0.  1.
</event>
<event>
 7    1  0.2873461E-009  0.2614419E+03  0.7561462E-02  0.1106280E+00
         -3   -1    0    0    0  501 -0.00000000000E+00  0.00000000000E+00  0.45003082556E+03  0.45003082556E+03  0.00000000000E+00 0.  1.
          3   -1    0    0  501    0  0.00000000000E+00 -0.00000000000E+00 -0.36707840507E+03  0.36707840507E+03  0.00000000000E+00 0. -1.
         25    2    1    2    0    0 -0.56410370162E+01 -0.24977063688E+03  0.34564747504E+03  0.44445101362E+03  0.12508930472E+03 0.  0.
          5    1    3    3  502    0 -0.26278144797E+02 -0.24423940243E+03  0.34385392985E+03  0.42260670139E+03  0.41800000000E+01 0.  1.
         -5    1    3    3    0  502  0.20637107781E+02 -0.55312344521E+01  0.17935451961E+01  0.21844312223E+02  0.41800000000E+01 0.  1.
        -11    1    1    2    0    0  0.29142078185E+02  0.11568381452E+03 -0.17109039791E+03  0.20857595719E+03  0.00000000000E+00 0.  1.
         11    1    1    2    0    0 -0.23501041169E+02  0.13408682236E+03 -0.91604656647E+02  0.16408225982E+03  0.00000000000E+00 0. -1.
</event>
<event>
 7    1  0.2878809E-009  0.1042349E+03  0.7561462E-02  0.1271634E+00
         -1   -1    0    0    0  501 -0.00000000000E+00  0.00000000000E+00  0.22378313795E+02  0.22378313795E+02  0.00000000000E+00 0.  1.
          1   -1    0    0  501    0  0.00000000000E+00 -0.00000000000E+00 -0.92242976181E+03  0.92242976181E+03  0.00000000000E+00 0. -1.
         25    2    1    2    0    0 -0.33293016216E+02  0.18105271239E+02 -0.77205598506E+03  0.78304148866E+03  0.12508918070E+03 0.  0.
          5    1    3    3  502    0 -0.74167009701E+01 -0.45401792158E+02 -0.14373208604E+03  0.15097256420E+03  0.41800000000E+01 0. -1.
         -5    1    3    3    0  502 -0.25876315246E+02  0.63507063397E+02 -0.62832389902E+03  0.63206892447E+03  0.41800000000E+01 0. -1.
        -11    1    1    2    0    0 -0.18241707663E+02 -0.34892314846E+02 -0.80865091078E+02  0.89941072313E+02  0.00000000000E+00 0. -1.
         11    1    1    2    0    0  0.51534723880E+02  0.16787043607E+02 -0.47130371882E+02  0.71825514632E+02  0.00000000000E+00 0.  1.
</event>
<event>
 7    1  0.2873461E-009  0.1572862E+03  0.7561462E-02  0.1191795E+00
          1   -1    0    0  501    0  0.00000000000E+00  0.00000000000E+00  0.14222160361E+03  0.14222160361E+03  0.00000000000E+00 0. -1.
         -1   -1    0    0    0  501 -0.00000000000E+00 -0.00000000000E+00 -0.20403741422E+03  0.20403741422E+03  0.00000000000E+00 0.  1.
         25    2    1    2    0    0  0.70996452225E+02  0.98645794711E+02 -0.83747849206E+02  0.19347631440E+03  0.12509153826E+03 0.  0.
          5    1    3    3  502    0 -0.26766948449E+02  0.43047537754E+02  0.36325614508E+01  0.50992430209E+02  0.41800000000E+01 0. -1.
         -5    1    3    3    0  502  0.97763400673E+02  0.55598256957E+02 -0.87380410656E+02  0.14248388419E+03  0.41800000000E+01 0. -1.
        -11    1    1    2    0    0  0.20330423887E+02 -0.32747373681E+02  0.41494156339E+01  0.38767696198E+02  0.00000000000E+00 0.  1.
         11    1    1    2    0    0 -0.91326876112E+02 -0.65898421031E+02  0.17782622955E+02  0.11401500723E+03  0.00000000000E+00 0. -1.
</event>
<event>
 7    1  0.2873461E-009  0.1301580E+03  0.7561462E-02  0.1227222E+00
         -2   -1    0    0    0  501 -0.00000000000E+00  0.00000000000E+00  0.14618216708E+03  0.14618216708E+03  0.00000000000E+00 0.  1.
          2   -1    0    0  501    0  0.00000000000E+00 -0.00000000000E+00 -0.12442910947E+03  0.12442910947E+03  0.00000000000E+00 0. -1.
         25    2    1    2    0    0 -0.65801659139E+02  0.51995585642E+02  0.47454333589E+02  0.15789811007E+03  0.12508597091E+03 0.  0.
          5    1    3    3  502    0 -0.66712980301E+02 -0.26557438420E+02  0.22189090181E+02  0.75271159146E+02  0.41800000000E+01 0. -1.
         -5    1    3    3    0  502  0.91132116237E+00  0.78553024061E+02  0.25265243407E+02  0.82626950929E+02  0.41800000000E+01 0. -1.
        -11    1    1    2    0    0  0.67600867413E+01 -0.50198162721E+02 -0.10700510738E+02  0.51769249979E+02  0.00000000000E+00 0.  1.
         11    1    1    2    0    0  0.59041572398E+02 -0.17974229205E+01 -0.15000765243E+02  0.60943916499E+02  0.00000000000E+00 0. -1.
</event>
<event>
 7    1  0.3307032E-009  0.1514054E+03  0.7561462E-02  0.1198757E+00
         -1   -1    0    0    0  501 -0.00000000000E+00  0.00000000000E+00  0.16758861657E+03  0.16758861657E+03  0.00000000000E+00 0.  1.
          1   -1    0    0  501    0  0.00000000000E+00 -0.00000000000E+00 -0.20179353534E+03  0.20179353534E+03  0.00000000000E+00 0. -1.
         25    2    1    2    0    0  0.12999193338E+03 -0.70032871346E+02 -0.12900335900E+02  0.19394869513E+03  0.12508865602E+03 0.  0.
          5    1    3    3  502    0  0.11291559274E+03 -0.39278554534E+02 -0.60945684344E+02  0.13425566941E+03  0.41800000000E+01 0. -1.
         -5    1    3    3    0  502  0.17076340640E+02 -0.30754316812E+02  0.48045348443E+02  0.59693025717E+02  0.41800000000E+01 0. -1.
        -11    1    1    2    0    0 -0.35541655558E+02  0.21986113045E+02  0.35825283504E+02  0.55045884358E+02  0.00000000000E+00 0.  1.
         11    1    1    2    0    0 -0.94450277817E+02  0.48046758301E+02 -0.57129866367E+02  0.12038757242E+03  0.00000000000E+00 0. -1.
</event>
<event>
 7    1  0.2873461E-009  0.9508430E+02  0.7561462E-02  0.1290986E+00
         -1   -1    0    0    0  501 -0.00000000000E+00  0.00000000000E+00  0.11368962355E+03  0.11368962355E+03  0.00000000000E+00 0.  1.
          1   -1    0    0  501    0  0.00000000000E+00 -0.00000000000E+00 -0.18496498980E+03  0.18496498980E+03  0.00000000000E+00 0. -1.
         25    2    1    2    0    0 -0.22432687565E+02 -0.41053092515E+02  0.47731692449E+02  0.14182212915E+03  0.12508645001E+03 0.  0.
          5    1    3    3  502    0 -0.49382836913E+02 -0.37984279108E+02 -0.22536974379E+02  0.66384167202E+02  0.41800000000E+01 0.  1.
         -5    1    3    3    0  502  0.26950149348E+02 -0.30688134067E+01  0.70268666828E+02  0.75437961951E+02  0.41800000000E+01 0.  1.
        -11    1    1    2    0    0  0.23282650319E+02 -0.25035476618E+02 -0.27093563362E+02  0.43622449164E+02  0.00000000000E+00 0.  1.
         11    1    1    2    0    0 -0.84996275397E+00  0.66088569133E+02 -0.91913495340E+02  0.11321003503E+03  0.00000000000E+00 0. -1.
</event>
<event>
 7    1  0.2873461E-009  0.8292076E+02  0.7561462E-02  0.1320961E+00
          1   -1    0    0  501    0  0.00000000000E+00  0.00000000000E+00  0.16968175234E+03  0.16968175234E+03  0.00000000000E+00 0. -1.
         -1   -1    0    0    0  501 -0.00000000000E+00 -0.00000000000E+00 -0.79218342590E+02  0.79218342590E+02  0.00000000000E+00 0.  1.
         25    2    1    2    0    0 -0.12593427968E+02  0.32439964332E+02  0.43903268864E+02  0.13706331576E+03  0.12509160562E+03 0.  0.
          5    1    3    3  502    0 -0.35014003315E+02  0.22691813779E+02 -0.34832657822E+02  0.54513166223E+02  0.41800000000E+01 0.  1.
         -5    1    3    3    0  502  0.22420575347E+02  0.97481505531E+01  0.78735926686E+02  0.82550149541E+02  0.41800000000E+01 0.  1.
        -11    1    1    2    0    0  0.32303626036E+02  0.23400558004E+02  0.31251076695E+02  0.50672874051E+02  0.00000000000E+00 0. -1.
         11    1    1    2    0    0 -0.19710198069E+02 -0.55840522336E+02  0.15309064193E+02  0.61163905117E+02  0.00000000000E+00 0.  1.
</event>
<event>
 7    1  0.2873461E-009  0.9350344E+02  0.7561462E-02  0.1294583E+00
         -2   -1    0    0    0  501 -0.00000000000E+00  0.00000000000E+00  0.60910797900E+02  0.60910797900E+02  0.00000000000E+00 0.  1.
          2   -1    0    0  501    0  0.00000000000E+00 -0.00000000000E+00 -0.29787147083E+03  0.29787147083E+03  0.00000000000E+00 0. -1.
         25    2    1    2    0    0 -0.62905853193E+02  0.19098307145E+02 -0.19374507247E+03  0.23980364236E+03  0.12508693809E+03 0.  0.
          5    1    3    3  502    0 -0.40465083692E+02 -0.14061851433E+02 -0.19483379000E+03  0.19953154335E+03  0.41800000000E+01 0.  1.
         -5    1    3    3    0  502 -0.22440769501E+02  0.33160158578E+02  0.10887175337E+01  0.40272099009E+02  0.41800000000E+01 0.  1.
        -11    1    1    2    0    0  0.21745734016E+01 -0.39561469890E+02 -0.37640932404E+02  0.54650511997E+02  0.00000000000E+00 0. -1.
         11    1    1    2    0    0  0.60731279791E+02  0.20463162745E+02 -0.55746680516E+01  0.64328114371E+02  0.00000000000E+00 0.  1.
</event>
<event>
 7    1  0.2873461E-009  0.2360336E+03  0.7561462E-02  0.1122464E+00
         -2   -1    0    0    0  501 -0.00000000000E+00  0.00000000000E+00  0.16551547684E+03  0.16551547684E+03  0.00000000000E+00 0.  1.
          2   -1    0    0  501    0  0.00000000000E+00 -0.00000000000E+00 -0.44713025584E+03  0.44713025584E+03  0.00000000000E+00 0. -1.
         25    2    1    2    0    0  0.22396248349E+01  0.23083010926E+03 -0.39202340802E+02  0.26546999913E+03  0.12509972683E+03 0.  0.
          5    1    3    3  502    0  0.10000405182E+02  0.22422296596E+03 -0.68064759032E+02  0.23457670470E+03  0.41800000000E+01 0. -1.
         -5    1    3    3    0  502 -0.77607803469E+01  0.66071432960E+01  0.28862418230E+02  0.30893294422E+02  0.41800000000E+01 0. -1.
        -11    1    1    2    0    0  0.20733048597E+02 -0.17456602564E+03 -0.22176849147E+03  0.28299190875E+03  0.00000000000E+00 0. -1.
         11    1    1    2    0    0 -0.22972673432E+02 -0.56264083615E+02 -0.20643946727E+02  0.64183824801E+02  0.00000000000E+00 0.  1.
</event>
<event>
 7    1  0.2873461E-009  0.1818789E+03  0.7561462E-02  0.1165997E+00
         -1   -1    0    0    0  501 -0.00000000000E+00  0.00000000000E+00  0.11607017971E+04  0.11607017971E+04  0.00000000000E+00 0.  1.
          1   -1    0    0  501    0  0.00000000000E+00 -0.00000000000E+00 -0.33149752645E+02  0.33149752645E+02  0.00000000000E+00 0. -1.
         25    2    1    2    0    0  0.16508120095E+03 -0.45121602384E+01  0.62374660474E+03  0.65725171093E+03  0.12509125509E+03 0.  0.
          5    1    3    3  502    0  0.26960477754E+02 -0.45437287757E+02  0.27219521537E+03  0.27730690967E+03  0.41800000000E+01 0.  1.
         -5    1    3    3    0  502  0.13812072320E+03  0.40925127518E+02  0.35155138937E+03  0.37994480126E+03  0.41800000000E+01 0.  1.
        -11    1    1    2    0    0 -0.53778985465E+02 -0.89850682043E+01  0.29102034780E+03  0.29608403125E+03  0.00000000000E+00 0.  1.
         11    1    1    2    0    0 -0.11130221548E+03  0.13497228443E+02  0.21278509193E+03  0.24051580757E+03  0.00000000000E+00 0. -1.
</event>
<event>
 7    1  0.2873461E-009  0.7089188E+02  0.7561462E-02  0.1357086E+00
          2   -1    0    0  501    0  0.00000000000E+00  0.00000000000E+00  0.50753399014E+02  0.50753399014E+02  0.00000000000E+00 0.  1.
         -2   -1    0    0    0  501 -0.00000000000E+00 -0.00000000000E+00 -0.29741696681E+03  0.29741696681E+03  0.00000000000E+00 0. -1.
         25    2    1    2    0    0  0.10815613551E+02 -0.25239867136E+02 -0.20840898245E+03  0.24461514396E+03  0.12509291066E+03 0.  0.
          5    1    3    3  502    0  0.21766377982E+02  0.29485758021E+02 -0.17624618882E+03  0.18006492331E+03  0.41800000000E+01 0. -1.
         -5    1    3    3    0  502 -0.10950764431E+02 -0.54725625157E+02 -0.32162793636E+02  0.64550220642E+02  0.41800000000E+01 0. -1.
        -11    1    1    2    0    0 -0.26305804487E+02  0.17665181961E+02  0.23492626951E+02  0.39445627444E+02  0.00000000000E+00 0.  1.
         11    1    1    2    0    0  0.15490190936E+02  0.75746851749E+01 -0.61747212294E+02  0.64109594421E+02  0.00000000000E+00 0. -1.
</event>
<event>
 7    1  0.2873461E-009  0.1237826E+03  0.7561462E-02  0.1236984E+00
          1   -1    0    0  501    0  0.00000000000E+00  0.00000000000E+00  0.13849309384E+04  0.13849309384E+04  0.00000000000E+00 0. -1.
         -1   -1    0    0    0  501 -0.00000000000E+00 -0.00000000000E+00 -0.16854234914E+02  0.16854234914E+02  0.00000000000E+00 0.  1.
         25    2    1    2    0    0 -0.57726508678E+02  0.27403736929E+02  0.11275114212E+04  0.11362270413E+04  0.12508624959E+03 0.  0.
          5    1    3    3  502    0 -0.24439959335E+02 -0.50092208002E+02  0.42584731685E+03  0.42949965143E+03  0.41800000000E+01 0. -1.
         -5    1    3    3    0  502 -0.33286549343E+02  0.77495944931E+02  0.70166410439E+03  0.70672738990E+03  0.41800000000E+01 0. -1.
        -11    1    1    2    0    0  0.11782596015E+02 -0.53231985231E+02  0.16219598803E+03  0.17111403319E+03  0.00000000000E+00 0. -1.
         11    1    1    2    0    0  0.45943912663E+02  0.25828248303E+02  0.78369294240E+02  0.94444098814E+02  0.00000000000E+00 0.  1.
</event>
<event>
 7    1  0.2873461E-009  0.1089513E+03  0.7561462E-02  0.1262524E+00
          2   -1    0    0  501    0  0.00000000000E+00  0.00000000000E+00  0.39625926582E+02  0.39625926582E+02  0.00000000000E+00 0. -1.
         -2   -1    0    0    0  501 -0.00000000000E+00 -0.00000000000E+00 -0.43730141798E+03  0.43730141798E+03  0.00000000000E+00 0.  1.
         25    2    1    2    0    0  0.30239265826E+02  0.28667641247E+02 -0.10906476171E+03  0.17111181427E+03  0.12509150204E+03 0.  0.
          5    1    3    3  502    0  0.59372825473E+02  0.56767517828E+02 -0.99895290921E+02  0.12939947849E+03  0.41800000000E+01 0. -1.
         -5    1    3    3    0  502 -0.29133559646E+02 -0.28099876581E+02 -0.91694707908E+01  0.41712335779E+02  0.41800000000E+01 0. -1.
        -11    1    1    2    0    0  0.91073391514E+01  0.26031905219E+02 -0.42632179453E+02  0.50775057269E+02  0.00000000000E+00 0. -1.
         11    1    1    2    0    0 -0.39346604978E+02 -0.54699546466E+02 -0.24597855024E+03  0.25504047303E+03  0.00000000000E+00 0.  1.
</event>
<event>
 7    1  0.2873461E-009  0.7938067E+02  0.7561462E-02  0.1330818E+00
         -1   -1    0    0    0  501 -0.00000000000E+00  0.00000000000E+00  0.44906763986E+02  0.44906763986E+02  0.00000000000E+00 0.  1.
          1   -1    0    0  501    0  0.00000000000E+00 -0.00000000000E+00 -0.35691006866E+03  0.35691006866E+03  0.00000000000E+00 0. -1.
         25    2    1    2    0    0 -0.32017008657E+02  0.12601426724E+02 -0.26669873043E+03  0.29658424399E+03  0.12510042434E+03 0.  0.
          5    1    3    3  502    0 -0.46922286886E+02 -0.29836165148E+02 -0.48948909099E+02  0.74198152668E+02  0.41800000000E+01 0.  1.
         -5    1    3    3    0  502  0.14905278229E+02  0.42437591873E+02 -0.21774982133E+03  0.22238609132E+03  0.41800000000E+01 0.  1.
        -11    1    1    2    0    0  0.42127984263E+02 -0.18620659435E+02 -0.66556845582E+02  0.80940161290E+02  0.00000000000E+00 0. -1.
         11    1    1    2    0    0 -0.10110975606E+02  0.60192327109E+01  0.21252271340E+02  0.24292427364E+02  0.00000000000E+00 0.  1.
</event>
<event>
 7    1  0.2873461E-009  0.1219118E+03  0.7561462E-02  0.1239976E+00
          1   -1    0    0  501    0  0.00000000000E+00  0.00000000000E+00  0.92563120474E+03  0.92563120474E+03  0.00000000000E+00 0. -1.
         -1   -1    0    0    0  501 -0.00000000000E+00 -0.00000000000E+00 -0.26931863224E+02  0.26931863224E+02  0.00000000000E+00 0.  1.
         25    2    1    2    0    0 -0.39001292747E+02  0.81177468388E+02  0.69273378695E+03  0.70967507220E+03  0.12509087220E+03 0.  0.
          5    1    3    3  502    0  0.40880642010E+02  0.70788769238E+01  0.26507498734E+03  0.26833478847E+03  0.41800000000E+01 0.  1.
         -5    1    3    3    0  502 -0.79881934757E+02  0.74098591464E+02  0.42765879961E+03  0.44134028373E+03  0.41800000000E+01 0.  1.
        -11    1    1    2    0    0  0.74369617163E+01 -0.42588474219E+02  0.15375743494E+02  0.45885727889E+02  0.00000000000E+00 0.  1.
         11    1    1    2    0    0  0.31564331031E+02 -0.38588994169E+02  0.19058981107E+03  0.19700226788E+03  0.00000000000E+00 0. -1.
</event>
<event>
 7    1  0.2873461E-009  0.8662304E+02  0.7561462E-02  0.1311242E+00
          1   -1    0    0  501    0  0.00000000000E+00  0.00000000000E+00  0.46815420006E+03  0.46815420006E+03  0.00000000000E+00 0. -1.
         -1   -1    0    0    0  501 -0.00000000000E+00 -0.00000000000E+00 -0.30425408401E+02  0.30425408401E+02  0.00000000000E+00 0.  1.
         25    2    1    2    0    0 -0.37760393195E+02 -0.25795450493E+02  0.20668816041E+03  0.24588529838E+03  0.12509329216E+03 0.  0.
          5    1    3    3  502    0  0.12162007769E+02 -0.34274452510E+02  0.38839715357E+01  0.36813179199E+02  0.41800000000E+01 0. -1.
         -5    1    3    3    0  502 -0.49922400964E+02  0.84790020170E+01  0.20280418887E+03  0.20907211918E+03  0.41800000000E+01 0. -1.
        -11    1    1    2    0    0  0.77083264692E+01  0.47904135075E+02  0.19454300397E+03  0.20050238116E+03  0.00000000000E+00 0. -1.
         11    1    1    2    0    0  0.30052066726E+02 -0.22108684581E+02  0.36497627278E+02  0.52191928930E+02  0.00000000000E+00 0.  1.
</event>
<event>
 7    1  0.2873461E-009  0.1831305E+03  0.7561462E-02  0.1164807E+00
          2   -1    0    0  501    0  0.00000000000E+00  0.00000000000E+00  0.21003489347E+04  0.21003489347E+04  0.00000000000E+00 0. -1.
         -2   -1    0    0    0  501 -0.00000000000E+00 -0.00000000000E+00 -0.19937213868E+02  0.19937213868E+02  0.00000000000E+00 0.  1.
         25    2    1    2    0    0  0.14516176600E+03  0.93528681180E+02  0.11165134890E+04  0.11366926184E+04  0.12509270589E+03 0.  0.
          5    1    3    3  502    0  0.42728300931E+02  0.34357452063E+02  0.10737704773E+03  0.12063765993E+03  0.41800000000E+01 0.  1.
         -5    1    3    3    0  502  0.10243346507E+03  0.59171229117E+02  0.10091364413E+04  0.10160549584E+04  0.41800000000E+01 0.  1.
        -11    1    1    2    0    0  0.19082473219E+01 -0.34304284528E+02  0.11524741248E+03  0.12025968330E+03  0.00000000000E+00 0.  1.
         11    1    1    2    0    0 -0.14707001333E+03 -0.59224396652E+02  0.84865081939E+03  0.86333384692E+03  0.00000000000E+00 0. -1.
</event>
<event>
 7    1  0.2873461E-009  0.1271257E+03  0.7561462E-02  0.1231784E+00
          1   -1    0    0  501    0  0.00000000000E+00  0.00000000000E+00  0.35202842452E+03  0.35202842452E+03  0.00000000000E+00 0. -1.
         -1   -1    0    0    0  501 -0.00000000000E+00 -0.00000000000E+00 -0.73014296784E+02  0.73014296784E+02  0.00000000000E+00 0.  1.
         25    2    1    2    0    0 -0.29249612413E+02 -0.11113765183E+03  0.18648102730E+03  0.25225037556E+03  0.12509181007E+03 0.  0.
          5    1    3    3  502    0 -0.57200958393E+01 -0.10056098292E+03  0.19914702143E+03  0.22320895888E+03  0.41800000000E+01 0. -1.
         -5    1    3    3    0  502 -0.23529516574E+02 -0.10576668916E+02 -0.12665994128E+02  0.29041416681E+02  0.41800000000E+01 0. -1.
        -11    1    1    2    0    0 -0.13695062338E+02  0.54702007408E+02  0.84268314077E+02  0.10139533078E+03  0.00000000000E+00 0. -1.
         11    1    1    2    0    0  0.42944674751E+02  0.56435644423E+02  0.82647863543E+01  0.71397014955E+02  0.00000000000E+00 0.  1.
</event>
<event>
 7    1  0.2873461E-009  0.1196743E+03  0.7561462E-02  0.1243635E+00
          1   -1    0    0  501    0  0.00000000000E+00  0.00000000000E+00  0.10352306063E+04  0.10352306063E+04  0.00000000000E+00 0. -1.
         -1   -1    0    0    0  501 -0.00000000000E+00 -0.00000000000E+00 -0.16769575212E+02  0.16769575212E+02  0.00000000000E+00 0.  1.
         25    2    1    2    0    0 -0.14950961970E+02  0.73084185733E+02  0.57180131854E+03  0.59005866845E+03  0.12509058665E+03 0.  0.
          5    1    3    3  502    0  0.35853150732E+02  0.47836588092E+01  0.52992348236E+02  0.64296136591E+02  0.41800000000E+01 0. -1.
         -5    1    3    3    0  502 -0.50804112703E+02  0.68300526924E+02  0.51880897030E+03  0.52576253186E+03  0.41800000000E+01 0. -1.
        -11    1    1    2    0    0  0.43881383598E+02 -0.76890755558E+02  0.32654839780E+03  0.33833654875E+03  0.00000000000E+00 0.  1.
         11    1    1    2    0    0 -0.28930421628E+02  0.38065698248E+01  0.12011131473E+03  0.12360496428E+03  0.00000000000E+00 0. -1.
</event>
<event>
 7    1  0.2873461E-009  0.9582200E+02  0.7561462E-02  0.1289335E+00
         -1   -1    0    0    0  501 -0.00000000000E+00  0.00000000000E+00  0.35313991008E+02  0.35313991008E+02  0.00000000000E+00 0.  1.
          1   -1    0    0  501    0  0.00000000000E+00 -0.00000000000E+00 -0.44016466423E+03  0.44016466423E+03  0.00000000000E+00 0. -1.
         25    2    1    2    0    0  0.34824067259E+02  0.54393168685E+02 -0.23355803143E+03  0.27270519073E+03  0.12508970599E+03 0.  0.
          5    1    3    3  502    0  0.17491818641E+02 -0.19024288340E+02  0.10820246187E+01  0.26201725964E+02  0.41800000000E+01 0.  1.
         -5    1    3    3    0  502  0.17332248618E+02  0.73417457025E+02 -0.23464005605E+03  0.24650346477E+03  0.41800000000E+01 0.  1.
        -11    1    1    2    0    0 -0.46281571411E+01  0.14217517934E+02  0.89256004856E+00  0.14978461809E+02  0.00000000000E+00 0.  1.
         11    1    1    2    0    0 -0.30195910118E+02 -0.68610686620E+02 -0.17218520184E+03  0.18779500270E+03  0.00000000000E+00 0. -1.
</event>
<event>
 7    1  0.2873461E-009  0.1084795E+03  0.7561462E-02  0.1263412E+00
          3   -1    0    0  501    0  0.00000000000E+00  0.00000000000E+00  0.58125426365E+03  0.58125426365E+03  0.00000000000E+00 0.  1.
         -3   -1    0    0    0  501 -0.00000000000E+00 -0.00000000000E+00 -0.29137294508E+02  0.29137294508E+02  0.00000000000E+00 0. -1.
         25    2    1    2    0    0 -0.39202432536E+02 -0.59279721301E+02  0.34185357851E+03  0.37089410043E+03  0.12509056127E+03 0.  0.
          5    1    3    3  502    0  0.43410800134E+01  0.14988536529E+02  0.22557632497E+03  0.22615404482E+03  0.41800000000E+01 0.  1.
         -5    1    3    3    0  502 -0.43543512549E+02 -0.74268257831E+02  0.11627725354E+03  0.14474005561E+03  0.41800000000E+01 0.  1.
        -11    1    1    2    0    0  0.92488712313E+01 -0.24206884397E+02  0.44487255382E+02  0.51484276849E+02  0.00000000000E+00 0. -1.
         11    1    1    2    0    0  0.29953561305E+02  0.83486605699E+02  0.16577613525E+03  0.18801318088E+03  0.00000000000E+00 0.  1.
</event>
<event>
 7    1  0.2873461E-009  0.8791501E+02  0.7561462E-02  0.1307981E+00
          1   -1    0    0  501    0  0.00000000000E+00  0.00000000000E+00  0.15786746063E+03  0.15786746063E+03  0.00000000000E+00 0. -1.
         -1   -1    0    0    0  501 -0.00000000000E+00 -0.00000000000E+00 -0.93791035220E+02  0.93791035220E+02  0.00000000000E+00 0.  1.
         25    2    1    2    0    0  0.39179975734E+02  0.36048210721E+02  0.63364627819E+02  0.14998821408E+03  0.12508734673E+03 0.  0.
          5    1    3    3  502    0 -0.16068427087E+02  0.43694516115E+01  0.81778914386E+02  0.83561652057E+02  0.41800000000E+01 0.  1.
         -5    1    3    3    0  502  0.55248402821E+02  0.31678759109E+02 -0.18414286567E+02  0.66426562027E+02  0.41800000000E+01 0.  1.
        -11    1    1    2    0    0 -0.62979808475E+02 -0.19792174896E+02 -0.16570187414E+02  0.68064363463E+02  0.00000000000E+00 0.  1.
         11    1    1    2    0    0  0.23799832742E+02 -0.16256035825E+02  0.17281985007E+02  0.33605918304E+02  0.00000000000E+00 0. -1.
</event>
<event>
 7    1  0.2873461E-009  0.1386011E+03  0.7561462E-02  0.1215224E+00
         -1   -1    0    0    0  501 -0.00000000000E+00  0.00000000000E+00  0.67827146939E+02  0.67827146939E+02  0.00000000000E+00 0.  1.
          1   -1    0    0  501    0  0.00000000000E+00 -0.00000000000E+00 -0.31252557437E+03  0.31252557437E+03  0.00000000000E+00 0. -1.
         25    2    1    2    0    0 -0.37655169945E+02  0.80182611197E+02 -0.82175537268E+02  0.17391813926E+03  0.12509011662E+03 0.  0.
          5    1    3    3  502    0  0.16067622428E+02  0.93702196698E+02 -0.36229489029E+02  0.10182494013E+03  0.41800000000E+01 0.  1.
         -5    1    3    3    0  502 -0.53722792373E+02 -0.13519585501E+02 -0.45946048240E+02  0.72093199134E+02  0.41800000000E+01 0.  1.
        -11    1    1    2    0    0 -0.22447894654E+02  0.42486076342E+01 -0.21077649983E+02  0.31084175557E+02  0.00000000000E+00 0.  1.
         11    1    1    2    0    0  0.60103064599E+02 -0.84431218831E+02 -0.14144524017E+03  0.17535040649E+03  0.00000000000E+00 0. -1.
</event>
<event>
 7    1  0.2873461E-009  0.1771876E+03  0.7561462E-02  0.1170553E+00
         -2   -1    0    0    0  501 -0.00000000000E+00  0.00000000000E+00  0.82729472029E+02  0.82729472029E+02  0.00000000000E+00 0.  1.
          2   -1    0    0  501    0  0.00000000000E+00 -0.00000000000E+00 -0.70113678929E+03  0.70113678929E+03  0.00000000000E+00 0. -1.
         25    2    1    2    0    0  0.21890206257E+02  0.14456792164E+03 -0.63520456420E+02  0.20263609477E+03  0.12508986140E+03 0.  0.
          5    1    3    3  502    0  0.46619636597E+02  0.23141570726E+01 -0.25117691209E+02  0.53170637114E+02  0.41800000000E+01 0. -1.
         -5    1    3    3    0  502 -0.24729430340E+02  0.14225376456E+03 -0.38402765211E+02  0.14946545766E+03  0.41800000000E+01 0. -1.
        -11    1    1    2    0    0 -0.30406325583E+02 -0.16274101311E+02 -0.53757306403E+02  0.63868920459E+02  0.00000000000E+00 0. -1.
         11    1    1    2    0    0  0.85161193263E+01 -0.12829382032E+03 -0.50112955444E+03  0.51736124609E+03  0.00000000000E+00 0.  1.
</event>
<event>
 7    1  0.2873461E-009  0.9735722E+02  0.7561462E-02  0.1285954E+00
         -2   -1    0    0    0  501 -0.00000000000E+00  0.00000000000E+00  0.36200576811E+03  0.36200576811E+03  0.00000000000E+00 0.  1.
          2   -1    0    0  501    0  0.00000000000E+00 -0.00000000000E+00 -0.32909710862E+02  0.32909710862E+02  0.00000000000E+00 0. -1.
         25    2    1    2    0    0  0.48784328621E+01  0.15239433249E+02  0.20268440473E+03  0.23871397214E+03  0.12508938062E+03 0.  0.
          5    1    3    3  502    0 -0.52129780205E+02 -0.15448797349E+02  0.13172434806E+03  0.14256561856E+03  0.41800000000E+01 0. -1.
         -5    1    3    3    0  502  0.57008213067E+02  0.30688230597E+02  0.70960056663E+02  0.96148353579E+02  0.41800000000E+01 0. -1.
        -11    1    1    2    0    0 -0.26255145499E+02  0.20737108115E+02  0.14027125400E+02  0.36278375999E+02  0.00000000000E+00 0. -1.
         11    1    1    2    0    0  0.21376712637E+02 -0.35976541364E+02  0.11238452712E+03  0.11992313083E+03  0.00000000000E+00 0.  1.
</event>
<event>
 7    1  0.2873461E-009  0.1195146E+03  0.7561462E-02  0.1243900E+00
          2   -1    0    0  501    0  0.00000000000E+00  0.00000000000E+00  0.32743559657E+03  0.32743559657E+03  0.00000000000E+00 0.  1.
         -2   -1    0    0    0  501 -0.00000000000E+00 -0.00000000000E+00 -0.63888399389E+02  0.63888399389E+02  0.00000000000E+00 0. -1.
         25    2    1    2    0    0  0.61348844676E+02  0.50468107166E+02  0.21681211709E+03  0.26261216372E+03  0.12508774454E+03 0.  0.
          5    1    3    3  502    0  0.27498885418E+01 -0.24116902729E+02  0.13516379967E+03  0.13738963580E+03  0.41800000000E+01 0.  1.
         -5    1    3    3    0  502  0.58598956134E+02  0.74585009894E+02  0.81648317416E+02  0.12522252792E+03  0.41800000000E+01 0.  1.
        -11    1    1    2    0    0 -0.72090551072E+02 -0.44800641995E+01  0.22642506760E+02  0.75695453241E+02  0.00000000000E+00 0.  1.
         11    1    1    2    0    0  0.10741706396E+02 -0.45988042966E+02  0.24092573333E+02  0.53016378997E+02  0.00000000000E+00 0. -1.
</event>
<event>
 7    1  0.2873461E-009  0.1834824E+03  0.7561462E-02  0.1164475E+00
          1   -1    0    0  501    0  0.00000000000E+00  0.00000000000E+00  0.23054973750E+03  0.23054973750E+03  0.00000000000E+00 0. -1.
         -1   -1    0    0    0  501 -0.00000000000E+00 -0.00000000000E+00 -0.19798955019E+03  0.19798955019E+03  0.00000000000E+00 0.  1.
         25    2    1    2    0    0  0.11767284893E+03  0.90683114650E+02  0.12512952529E+03  0.23102832737E+03  0.12508542398E+03 0.  0.
          5    1    3    3  502    0 -0.20544251902E+02  0.42796481447E+02  0.35487962345E+02  0.59417783380E+02  0.41800000000E+01 0.  1.
         -5    1    3    3    0  502  0.13821710083E+03  0.47886633204E+02  0.89641562943E+02  0.17161054399E+03  0.41800000000E+01 0.  1.
        -11    1    1    2    0    0 -0.24758460603E+02 -0.74695694092E+02 -0.55068571235E+02  0.96046736671E+02  0.00000000000E+00 0.  1.
         11    1    1    2    0    0 -0.92914388329E+02 -0.15987420558E+02 -0.37500766745E+02  0.10146422365E+03  0.00000000000E+00 0. -1.
</event>
<event>
 7    1  0.2885713E-009  0.1099206E+03  0.7561462E-02  0.1260717E+00
          1   -1    0    0  501    0  0.00000000000E+00  0.00000000000E+00  0.51206176476E+02  0.51206176476E+02  0.00000000000E+00 0. -1.
         -1   -1    0    0    0  501 -0.00000000000E+00 -0.00000000000E+00 -0.26764522497E+03  0.26764522497E+03  0.00000000000E+00 0.  1.
         25    2    1    2    0    0 -0.34574365259E+02  0.70864332585E+01 -0.15943369572E+03  0.20570029794E+03  0.12509158633E+03 0.  0.
          5    1    3    3  502    0 -0.27424874391E+02  0.65338938474E+02 -0.82199432698E+02  0.10860718094E+03  0.41800000000E+01 0.  1.
         -5    1    3    3    0  502 -0.71494908683E+01 -0.58252505216E+02 -0.77234263019E+02  0.97093116994E+02  0.41800000000E+01 0.  1.
        -11    1    1    2    0    0  0.61842193739E+02 -0.98086652949E+01 -0.58521929704E+02  0.85705793839E+02  0.00000000000E+00 0. -1.
         11    1    1    2    0    0 -0.27267828479E+02  0.27222320364E+01  0.15165769281E+01  0.27445309669E+02  0.00000000000E+00 0.  1.
</event>
<event>
 7    1  0.2994145E-009  0.9829136E+02  0.7561462E-02  0.1283931E+00
         -2   -1    0    0    0  501 -0.00000000000E+00  0.00000000000E+00  0.33817446103E+02  0.33817446103E+02  0.00000000000E+00 0. -1.
          2   -1    0    0  501    0  0.00000000000E+00 -0.00000000000E+00 -0.52673800699E+03  0.52673800699E+03  0.00000000000E+00 0.  1.
         25    2    1    2    0    0 -0.63490927738E+02  0.43975328836E+02 -0.28228781590E+03  0.31827503829E+03  0.12509061333E+03 0.  0.
          5    1    3    3  502    0 -0.36881842082E+02 -0.24129020728E+02 -0.25161623643E+02  0.50922093644E+02  0.41800000000E+01 0.  1.
         -5    1    3    3    0  502 -0.26609085655E+02  0.68104349564E+02 -0.25712619225E+03  0.26735294465E+03  0.41800000000E+01 0.  1.
        -11    1    1    2    0    0  0.35053491141E+02 -0.13972512307E+02 -0.12306333126E+02  0.39691613426E+02  0.00000000000E+00 0. -1.
         11    1    1    2    0    0  0.28437436597E+02 -0.30002816529E+02 -0.19832641187E+03  0.20258880138E+03  0.00000000000E+00 0.  1.
</event>
<event>
 7    1  0.2873461E-009  0.2122854E+03  0.7561462E-02  0.1139769E+00
         -3   -1    0    0    0  501 -0.00000000000E+00  0.00000000000E+00  0.27008995562E+03  0.27008995562E+03  0.00000000000E+00 0.  1.
          3   -1    0    0  501    0  0.00000000000E+00 -0.00000000000E+00 -0.18530928580E+03  0.18530928580E+03  0.00000000000E+00 0. -1.
         25    2    1    2    0    0 -0.18247953727E+03  0.66058854044E+02  0.46783792319E+02  0.23557531935E+03  0.12507779236E+03 0.  0.
          5    1    3    3  502    0 -0.11131963590E+03 -0.14223531208E+02 -0.12394548424E+02  0.11298436798E+03  0.41800000000E+01 0. -1.
         -5    1    3    3    0  502 -0.71159901372E+02  0.80282385252E+02  0.59178340743E+02  0.12259095137E+03  0.41800000000E+01 0. -1.
        -11    1    1    2    0    0  0.93102568386E+02  0.11015966753E+01  0.52819547009E+02  0.10704768237E+03  0.00000000000E+00 0.  1.
         11    1    1    2    0    0  0.89376968888E+02 -0.67160450719E+02 -0.14822669509E+02  0.11277623970E+03  0.00000000000E+00 0. -1.
</event>
<event>
 7    1  0.2873461E-009  0.8538953E+02  0.7561462E-02  0.1314417E+00
         -1   -1    0    0    0  501 -0.00000000000E+00  0.00000000000E+00  0.42281762719E+03  0.42281762719E+03  0.00000000000E+00 0.  1.
          1   -1    0    0  501    0  0.00000000000E+00 -0.00000000000E+00 -0.46513558887E+02  0.46513558887E+02  0.00000000000E+00 0. -1.
         25    2    1    2    0    0  0.31350112440E+02  0.76244183934E+02  0.25152620845E+03  0.29275890944E+03  0.12508533243E+03 0.  0.
          5    1    3    3  502    0  0.18404576946E+01  0.44534211417E+02  0.24463645288E+03  0.24869891384E+03  0.41800000000E+01 0.  1.
         -5    1    3    3    0  502  0.29509654745E+02  0.31709972517E+02  0.68897555685E+01  0.44059995597E+02  0.41800000000E+01 0.  1.
        -11    1    1    2    0    0 -0.26369518270E+02 -0.60985783848E+02  0.13967543868E+03  0.15467335096E+03  0.00000000000E+00 0.  1.
         11    1    1    2    0    0 -0.49805941701E+01 -0.15258400086E+02 -0.14897578818E+02  0.21898925684E+02  0.00000000000E+00 0. -1.
</event>
<event>
 7    1  0.2873461E-009  0.3554228E+03  0.7561462E-02  0.1060411E+00
          2   -1    0    0  501    0  0.00000000000E+00  0.00000000000E+00  0.10588261337E+04  0.10588261337E+04  0.00000000000E+00 0. -1.
         -2   -1    0    0    0  501 -0.00000000000E+00 -0.00000000000E+00 -0.15020136354E+03  0.15020136354E+03  0.00000000000E+00 0.  1.
         25    2    1    2    0    0  0.33403314414E+03 -0.10728478253E+03  0.22489742358E+03  0.43510213921E+03  0.12508738730E+03 0.  0.
          5    1    3    3  502    0  0.12984436370E+03 -0.43602531596E+02  0.16186143478E+03  0.21207860810E+03  0.41800000000E+01 0. -1.
         -5    1    3    3    0  502  0.20418878044E+03 -0.63682250933E+02  0.63035988809E+02  0.22302353111E+03  0.41800000000E+01 0. -1.
        -11    1    1    2    0    0 -0.22177174933E+03  0.11007361047E+03  0.51232135512E+03  0.56900973580E+03  0.00000000000E+00 0. -1.
         11    1    1    2    0    0 -0.11226139481E+03 -0.27888279455E+01  0.17140599144E+03  0.20491562221E+03  0.00000000000E+00 0.  1.
</event>
<event>
 7    1  0.2873461E-009  0.6819859E+02  0.7561462E-02  0.1366328E+00
          2   -1    0    0  501    0  0.00000000000E+00  0.00000000000E+00  0.61227147525E+03  0.61227147525E+03  0.00000000000E+00 0.  1.
         -2   -1    0    0    0  501 -0.00000000000E+00 -0.00000000000E+00 -0.38772577885E+02  0.38772577885E+02  0.00000000000E+00 0. -1.
         25    2    1    2    0    0 -0.43278926916E+02 -0.16752618318E+02  0.49322550150E+03  0.51095235001E+03  0.12508874019E+03 0.  0.
          5    1    3    3  502    0 -0.46906631510E+02 -0.90763249893E+00  0.55027749604E+02  0.72433290018E+02  0.41800000000E+01 0.  1.
         -5    1    3    3    0  502  0.36277045942E+01 -0.15844985819E+02  0.43819775189E+03  0.43851906000E+03  0.41800000000E+01 0.  1.
        -11    1    1    2    0    0 -0.13552167353E+02  0.12804001017E+01  0.80042385493E+02  0.81191650678E+02  0.00000000000E+00 0.  1.
         11    1    1    2    0    0  0.56831094269E+02  0.15472218216E+02  0.23101037819E+00  0.58900052446E+02  0.00000000000E+00 0. -1.
</event>
<event>
 7    1  0.2873461E-009  0.6431074E+02  0.7561462E-02  0.1380583E+00
          1   -1    0    0  501    0  0.00000000000E+00  0.00000000000E+00  0.11051543460E+03  0.11051543460E+03  0.00000000000E+00 0. -1.
         -1   -1    0    0    0  501 -0.00000000000E+00 -0.00000000000E+00 -0.11477908746E+03  0.11477908746E+03  0.00000000000E+00 0.  1.
         25    2    1    2    0    0 -0.28255536417E+02  0.79266869698E+00  0.66200519167E+01  0.12841426798E+03  0.12508954981E+03 0.  0.
          5    1    3    3  502    0 -0.23476743297E+02  0.23088669838E+02  0.60918437583E+02  0.69374149280E+02  0.41800000000E+01 0. -1.
         -5    1    3    3    0  502 -0.47787931191E+01 -0.22296001141E+02 -0.54298385667E+02  0.59040118704E+02  0.41800000000E+01 0. -1.
        -11    1    1    2    0    0 -0.79755552739E+01  0.25993397578E+02  0.26773311756E+02  0.38158569443E+02  0.00000000000E+00 0. -1.
         11    1    1    2    0    0  0.36231091691E+02 -0.26786066275E+02 -0.37657016535E+02  0.58721684631E+02  0.00000000000E+00 0.  1.
</event>
<event>
 7    1  0.2873461E-009  0.1146612E+03  0.7561462E-02  0.1252174E+00
          2   -1    0    0  501    0  0.00000000000E+00  0.00000000000E+00  0.35640645355E+03  0.35640645355E+03  0.00000000000E+00 0. -1.
         -2   -1    0    0    0  501 -0.00000000000E+00 -0.00000000000E+00 -0.74315920539E+02  0.74315920539E+02  0.00000000000E+00 0.  1.
         25    2    1    2    0    0  0.41344645505E+02 -0.70104019367E+02  0.26962173849E+03  0.30816672169E+03  0.12508754233E+03 0.  0.
          5    1    3    3  502    0  0.29963373236E+01  0.32308368518E+02  0.10902507313E+03  0.11382771053E+03  0.41800000000E+01 0. -1.
         -5    1    3    3    0  502  0.38348308181E+02 -0.10241238788E+03  0.16059666537E+03  0.19433901116E+03  0.41800000000E+01 0. -1.
        -11    1    1    2    0    0 -0.31019139346E+02  0.22145280802E+02 -0.36834589367E+02  0.53003654982E+02  0.00000000000E+00 0.  1.
         11    1    1    2    0    0 -0.10325506159E+02  0.47958738565E+02  0.49303383885E+02  0.69551997417E+02  0.00000000000E+00 0. -1.
</event>
<event>
 7    1  0.2873461E-009  0.1615531E+03  0.7561462E-02  0.1186954E+00
         -2   -1    0    0    0  501 -0.00000000000E+00  0.00000000000E+00  0.55788179789E+02  0.55788179789E+02  0.00000000000E+00 0. -1.
          2   -1    0    0  501    0  0.00000000000E+00 -0.00000000000E+00 -0.72375663998E+03  0.72375663998E+03  0.00000000000E+00 0.  1.
         25    2    1    2    0    0  0.12992787901E+03  0.13072940284E+02 -0.14151848705E+03  0.22962340329E+03  0.12508904688E+03 0.  0.
          5    1    3    3  502    0  0.11416933928E+02 -0.34502227686E+02  0.30199116535E+01  0.36706162453E+02  0.41800000000E+01 0. -1.
         -5    1    3    3    0  502  0.11851094508E+03  0.47575167970E+02 -0.14453839870E+03  0.19291724083E+03  0.41800000000E+01 0. -1.
        -11    1    1    2    0    0 -0.85783203951E+02  0.35746979149E+02 -0.29468455474E+03  0.30899124809E+03  0.00000000000E+00 0. -1.
         11    1    1    2    0    0 -0.44144675062E+02 -0.48819919433E+02 -0.23176541841E+03  0.24093016839E+03  0.00000000000E+00 0.  1.
</event>
<event>
 7    1  0.2873461E-009  0.1124651E+03  0.7561462E-02  0.1256072E+00
         -2   -1    0    0    0  501 -0.00000000000E+00  0.00000000000E+00  0.35725533433E+03  0.35725533433E+03  0.00000000000E+00 0.  1.
          2   -1    0    0  501    0  0.00000000000E+00 -0.00000000000E+00 -0.46696579638E+02  0.46696579638E+02  0.00000000000E+00 0. -1.
         25    2    1    2    0    0 -0.17847943196E+02  0.25787989850E+02  0.75561187245E+02  0.14945194769E+03  0.12507126830E+03 0.  0.
          5    1    3    3  502    0 -0.58201650357E+02  0.52644290945E+02  0.34671395368E+02  0.85897797004E+02  0.41800000000E+01 0. -1.
         -5    1    3    3    0  502  0.40353707160E+02 -0.26856301094E+02  0.40889791877E+02  0.63554150689E+02  0.41800000000E+01 0. -1.
        -11    1    1    2    0    0  0.54710715799E+02 -0.26558925244E+02  0.14390301047E+03  0.15622648737E+03  0.00000000000E+00 0. -1.
         11    1    1    2    0    0 -0.36862772603E+02  0.77093539328E+00  0.91094556981E+02  0.98273478909E+02  0.00000000000E+00 0.  1.
</event>
<event>
 7    1  0.2873461E-009  0.1133615E+03  0.7561462E-02  0.1254469E+00
          3   -1    0    0  501    0  0.00000000000E+00  0.00000000000E+00  0.16207398953E+02  0.16207398953E+02  0.00000000000E+00 0. -1.
         -3   -1    0    0    0  501 -0.00000000000E+00 -0.00000000000E+00 -0.10234677750E+04  0.10234677750E+04  0.00000000000E+00 0.  1.
         25    2    1    2    0    0  0.78370299973E+00 -0.40878034200E+02 -0.80221306627E+03  0.81293424449E+03  0.12507859248E+03 0.  0.
          5    1    3    3  502    0 -0.44414020986E+02  0.24729228467E+02 -0.27008899163E+03  0.27486301279E+03  0.41800000000E+01 0.  1.
         -5    1    3    3    0  502  0.45197723986E+02 -0.65607262667E+02 -0.53212407464E+03  0.53807123170E+03  0.41800000000E+01 0.  1.
        -11    1    1    2    0    0  0.33976288669E+02  0.49581011542E+02 -0.11353941553E+03  0.12846736463E+03  0.00000000000E+00 0.  1.
         11    1    1    2    0    0 -0.34759991669E+02 -0.87029773422E+01 -0.91507894272E+02  0.98273564856E+02  0.00000000000E+00 0. -1.
</event>
<event>
 7    1  0.2873461E-009  0.2188337E+03  0.7561462E-02  0.1134756E+00
         -2   -1    0    0    0  501 -0.00000000000E+00  0.00000000000E+00  0.18763509905E+03  0.18763509905E+03  0.00000000000E+00 0.  1.
          2   -1    0    0  501    0  0.00000000000E+00 -0.00000000000E+00 -0.30151467490E+03  0.30151467490E+03  0.00000000000E+00 0. -1.
         25    2    1    2    0    0  0.64087904727E+02  0.18496766689E+03 -0.11650452141E+03  0.25988684703E+03  0.12509025710E+03 0.  0.
          5    1    3    3  502    0 -0.32271558339E+02  0.19218829441E+02 -0.51767180342E+01  0.38145611704E+02  0.41800000000E+01 0.  1.
         -5    1    3    3    0  502  0.96359463066E+02  0.16574883745E+03 -0.11132780338E+03  0.22174123532E+03  0.41800000000E+01 0.  1.
        -11    1    1    2    0    0 -0.11829946124E+02 -0.13592655031E+03 -0.44474344316E+02  0.14350589538E+03  0.00000000000E+00 0. -1.
         11    1    1    2    0    0 -0.52257958603E+02 -0.49041116574E+02  0.47099289876E+02  0.85757031542E+02  0.00000000000E+00 0.  1.
</event>
<event>
 7    1  0.3426847E-009  0.1069122E+03  0.7561462E-02  0.1266397E+00
         -1   -1    0    0    0  501 -0.00000000000E+00  0.00000000000E+00  0.37591660486E+03  0.37591660486E+03  0.00000000000E+00 0. -1.
          1   -1    0    0  501    0  0.00000000000E+00 -0.00000000000E+00 -0.52622815360E+02  0.52622815360E+02  0.00000000000E+00 0.  1.
         25    2    1    2    0    0 -0.73464452277E+01 -0.57318118752E+02  0.27943986301E+03  0.31156547253E+03  0.12508824742E+03 0.  0.
          5    1    3    3  502    0  0.40647592896E+02 -0.23017132803E+02  0.22925459852E+03  0.23400247553E+03  0.41800000000E+01 0.  1.
         -5    1    3    3    0  502 -0.47994038124E+02 -0.34300985949E+02  0.50185264486E+02  0.77562997002E+02  0.41800000000E+01 0.  1.
        -11    1    1    2    0    0  0.39788892397E+02 -0.23611942840E+01  0.22490536023E+02  0.45766313017E+02  0.00000000000E+00 0.  1.
         11    1    1    2    0    0 -0.32442447169E+02  0.59679313036E+02  0.21363390466E+02  0.71207634668E+02  0.00000000000E+00 0. -1.
</event>
<event>
 6    1  0.2873461E-009  0.8415797E+02  0.7561462E-02  0.1317649E+00
         -2   -1    0    0    0  501 -0.00000000000E+00  0.00000000000E+00  0.11793418463E+03  0.11793418463E+03  0.00000000000E+00 0.  1.
          2   -1    0    0  501    0  0.00000000000E+00 -0.00000000000E+00 -0.14847377014E+03  0.14847377014E+03  0.00000000000E+00 0. -1.
          5    1    1    2  502    0  0.21917823730E+02  0.12518435660E+02  0.36457917517E+02  0.44539357630E+02  0.41800000000E+01 0. -1.
         -5    1    1    2    0  502  0.36714847817E+02 -0.49487145965E+02 -0.88043000168E+02  0.10754533902E+03  0.41800000000E+01 0. -1.
        -11    1    1    2    0    0 -0.53922426677E+02  0.11584613543E+02  0.50762544237E+02  0.74957769891E+02  0.00000000000E+00 0.  1.
         11    1    1    2    0    0 -0.47102448704E+01  0.25384096763E+02 -0.29717047099E+02  0.39365488229E+02  0.00000000000E+00 0. -1.
</event>
<event>
 7    1  0.2873461E-009  0.1706989E+03  0.7561462E-02  0.1177121E+00
         -2   -1    0    0    0  501 -0.00000000000E+00  0.00000000000E+00  0.66953724597E+03  0.66953724597E+03  0.00000000000E+00 0.  1.
          2   -1    0    0  501    0  0.00000000000E+00 -0.00000000000E+00 -0.52568843428E+02  0.52568843428E+02  0.00000000000E+00 0. -1.
         25    2    1    2    0    0  0.24261563485E+02  0.14455939938E+03  0.41346852329E+03  0.45617551523E+03  0.12511529697E+03 0.  0.
          5    1    3    3  502    0  0.20208552538E+02 -0.44282856995E+01  0.54949301656E+01  0.21809676005E+02  0.41800000000E+01 0.  1.
         -5    1    3    3    0  502  0.40530109469E+01  0.14898768508E+03  0.40797359312E+03  0.43436583923E+03  0.41800000000E+01 0.  1.
        -11    1    1    2    0    0 -0.49101495799E+02 -0.38879656786E+02  0.75093968191E+02  0.97783887529E+02  0.00000000000E+00 0. -1.
         11    1    1    2    0    0  0.24839932314E+02 -0.10567974259E+03  0.12840591106E+03  0.16814668664E+03  0.00000000000E+00 0.  1.
</event>
<event>
 7    1  0.2873461E-009  0.2096494E+03  0.7561462E-02  0.1141844E+00
         -1   -1    0    0    0  501 -0.00000000000E+00  0.00000000000E+00  0.21647452253E+03  0.21647452253E+03  0.00000000000E+00 0.  1.
          1   -1    0    0  501    0  0.00000000000E+00 -0.00000000000E+00 -0.74121263135E+03  0.74121263135E+03  0.00000000000E+00 0. -1.
         25    2    1    2    0    0 -0.13659337988E+03  0.14726155183E+03  0.12749489158E+03  0.26878522409E+03  0.12508730245E+03 0.  0.
          5    1    3    3  502    0 -0.99098236508E+02  0.97264954924E+02  0.14605518588E+02  0.13968437818E+03  0.41800000000E+01 0. -1.
         -5    1    3    3    0  502 -0.37495143372E+02  0.49996596909E+02  0.11288937299E+03  0.12910084590E+03  0.41800000000E+01 0. -1.
        -11    1    1    2    0    0  0.11867981408E+03 -0.15742625754E+03 -0.54156754621E+03  0.57633612757E+03  0.00000000000E+00 0.  1.
         11    1    1    2    0    0  0.17913565800E+02  0.10164705702E+02 -0.11066545419E+03  0.11256580223E+03  0.00000000000E+00 0. -1.
</event>
<event>
 7    1  0.2873461E-009  0.2136994E+03  0.7561462E-02  0.1138669E+00
         -2   -1    0    0    0  501 -0.00000000000E+00  0.00000000000E+00  0.20490270733E+03  0.20490270733E+03  0.00000000000E+00 0. -1.
          2   -1    0    0  501    0  0.00000000000E+00 -0.00000000000E+00 -0.29972607977E+03  0.29972607977E+03  0.00000000000E+00 0.  1.
         25    2    1    2    0    0  0.17022499122E+02  0.19028644601E+03 -0.17045835840E+03  0.28496112547E+03  0.12509234217E+03 0.  0.
          5    1    3    3  502    0  0.58842204772E+02  0.59466682726E+02 -0.10031543984E+03  0.13068799213E+03  0.41800000000E+01 0. -1.
         -5    1    3    3    0  502 -0.41819705650E+02  0.13081976328E+03 -0.70142918563E+02  0.15427313334E+03  0.41800000000E+01 0. -1.
        -11    1    1    2    0    0 -0.41697096439E+02 -0.16761144101E+03  0.62798627906E+02  0.18378223710E+03  0.00000000000E+00 0.  1.
         11    1    1    2    0    0  0.24674597318E+02 -0.22675005002E+02  0.12836358059E+02  0.35885424518E+02  0.00000000000E+00 0. -1.
</event>
<event>
 7    1  0.2873461E-009  0.1122478E+03  0.7561462E-02  0.1256463E+00
          2   -1    0    0  501    0  0.00000000000E+00  0.00000000000E+00  0.19043429270E+03  0.19043429270E+03  0.00000000000E+00 0.  1.
         -2   -1    0    0    0  501 -0.00000000000E+00 -0.00000000000E+00 -0.88668882593E+02  0.88668882593E+02  0.00000000000E+00 0. -1.
         25    2    1    2    0    0 -0.56869276723E+02  0.53418826963E+01  0.10970923030E+02  0.13795340937E+03  0.12509249242E+03 0.  0.
          5    1    3    3  502    0  0.33295731250E+02 -0.25149431252E+02  0.76172319645E+01  0.42621523138E+02  0.41800000000E+01 0. -1.
         -5    1    3    3    0  502 -0.90165007973E+02  0.30491313948E+02  0.33536910653E+01  0.95331886234E+02  0.41800000000E+01 0. -1.
        -11    1    1    2    0    0  0.71919236478E+02 -0.63794977176E+01  0.29448625433E+02  0.77976253479E+02  0.00000000000E+00 0. -1.
         11    1    1    2    0    0 -0.15049959755E+02  0.10376150213E+01  0.61345861643E+02  0.63173512442E+02  0.00000000000E+00 0.  1.
</event>
<event>
 7    1  0.2873461E-009  0.8254565E+02  0.7561462E-02  0.1321979E+00
          1   -1    0    0  501    0  0.00000000000E+00  0.00000000000E+00  0.56589263862E+03  0.56589263862E+03  0.00000000000E+00 0. -1.
         -1   -1    0    0    0  501 -0.00000000000E+00 -0.00000000000E+00 -0.23329150409E+02  0.23329150409E+02  0.00000000000E+00 0.  1.
         25    2    1    2    0    0 -0.11004778383E+02  0.24666138027E+02  0.38928778902E+03  0.40977916196E+03  0.12507779734E+03 0.  0.
          5    1    3    3  502    0 -0.46456123546E+02  0.38932173128E+02  0.93515110009E+02  0.11151875950E+03  0.41800000000E+01 0. -1.
         -5    1    3    3    0  502  0.35451345163E+02 -0.14266035101E+02  0.29577267901E+03  0.29826040247E+03  0.41800000000E+01 0. -1.
        -11    1    1    2    0    0 -0.21723834115E+02  0.43484456372E+01  0.12592063720E+03  0.12785476456E+03  0.00000000000E+00 0. -1.
         11    1    1    2    0    0  0.32728612498E+02 -0.29014583665E+02  0.27355061994E+02  0.51587862507E+02  0.00000000000E+00 0.  1.
</event>
<event>
 7    1  0.2873461E-009  0.2033555E+03  0.7561462E-02  0.1146938E+00
          1   -1    0    0  501    0  0.00000000000E+00  0.00000000000E+00  0.30863317555E+03  0.30863317555E+03  0.00000000000E+00 0. -1.
         -1   -1    0    0    0  501 -0.00000000000E+00 -0.00000000000E+00 -0.23351641913E+03  0.23351641913E+03  0.00000000000E+00 0.  1.
         25    2    1    2    0    0  0.34208407503E+02 -0.17215489656E+03 -0.13476879345E+03  0.25421752422E+03  0.12512553047E+03 0.  0.
          5    1    3    3  502    0  0.76585533215E+02 -0.11742877160E+03 -0.60921049361E+02  0.15291732064E+03  0.41800000000E+01 0. -1.
         -5    1    3    3    0  502 -0.42377125712E+02 -0.54726124965E+02 -0.73847744093E+02  0.10130020358E+03  0.41800000000E+01 0. -1.
        -11    1    1    2    0    0  0.25160040236E+02  0.10271791699E+03  0.11267515177E+03  0.15453054042E+03  0.00000000000E+00 0.  1.
         11    1    1    2    0    0 -0.59368447740E+02  0.69436979573E+02  0.97210398108E+02  0.13340153005E+03  0.00000000000E+00 0. -1.
</event>
<event>
 7    1  0.3001920E-009  0.1151274E+03  0.7561462E-02  0.1251359E+00
          2   -1    0    0  501    0  0.00000000000E+00  0.00000000000E+00  0.72290509029E+03  0.72290509029E+03  0.00000000000E+00 0. -1.
         -2   -1    0    0    0  501 -0.00000000000E+00 -0.00000000000E+00 -0.22618078048E+02  0.22618078048E+02  0.00000000000E+00 0.  1.
         25    2    1    2    0    0 -0.41531459945E+02  0.51909439003E+02  0.41942348960E+03  0.44269936793E+03  0.12508882731E+03 0.  0.
          5    1    3    3  502    0 -0.63800818990E+02  0.33775122063E+01  0.34566826038E+03  0.35154796362E+03  0.41800000000E+01 0.  1.
         -5    1    3    3    0  502  0.22269359045E+02  0.48531926797E+02  0.73755229220E+02  0.91151404313E+02  0.41800000000E+01 0.  1.
        -11    1    1    2    0    0 -0.13864249434E+02 -0.55451647745E+02  0.12757812023E+03  0.13979727970E+03  0.00000000000E+00 0.  1.
         11    1    1    2    0    0  0.55395709379E+02  0.35422087422E+01  0.15328540241E+03  0.16302652070E+03  0.00000000000E+00 0. -1.
</event>
<event>
 7    1  0.2873461E-009  0.1447432E+03  0.7561462E-02  0.1207085E+00
         -3   -1    0    0    0  501 -0.00000000000E+00  0.00000000000E+00  0.11525061419E+03  0.11525061419E+03  0.00000000000E+00 0.  1.
          3   -1    0    0  501    0  0.00000000000E+00 -0.00000000000E+00 -0.18941209162E+03  0.18941209162E+03  0.00000000000E+00 0. -1.
         25    2    1    2    0    0  0.83652698123E+02  0.49972207704E+02 -0.60846149617E+02  0.16983336126E+03  0.12508445637E+03 0.  0.
          5    1    3    3  502    0 -0.19997337081E+01  0.67643106955E+02 -0.98629290309E+01  0.68515243723E+02  0.41800000000E+01 0.  1.
         -5    1    3    3    0  502  0.85652431831E+02 -0.17670899251E+02 -0.50983220586E+02  0.10131811753E+03  0.41800000000E+01 0.  1.
        -11    1    1    2    0    0 -0.79024415717E+01  0.25801775107E+02 -0.40276145119E+01  0.27283728853E+02  0.00000000000E+00 0.  1.
         11    1    1    2    0    0 -0.75750256551E+02 -0.75773982811E+02 -0.92877133057E+01  0.10754561570E+03  0.00000000000E+00 0. -1.
</event>
<event>
 7    1  0.2873461E-009  0.5692941E+02  0.7561462E-02  0.1411189E+00
          1   -1    0    0  501    0  0.00000000000E+00  0.00000000000E+00  0.23732778771E+02  0.23732778771E+02  0.00000000000E+00 0. -1.
         -1   -1    0    0    0  501 -0.00000000000E+00 -0.00000000000E+00 -0.84745252426E+03  0.84745252426E+03  0.00000000000E+00 0.  1.
         25    2    1    2    0    0  0.25163729949E+02  0.14525328095E+02 -0.71338469838E+03  0.72485152142E+03  0.12509117374E+03 0.  0.
          5    1    3    3  502    0 -0.70777331698E+01  0.13755076410E+02 -0.67212687301E+03  0.67231785806E+03  0.41800000000E+01 0. -1.
         -5    1    3    3    0  502  0.32241463119E+02  0.77025168509E+00 -0.41257825371E+02  0.52533663361E+02  0.41800000000E+01 0. -1.
        -11    1    1    2    0    0 -0.21073740606E+02 -0.36940649151E+02 -0.10329611378E+02  0.43765454117E+02  0.00000000000E+00 0. -1.
         11    1    1    2    0    0 -0.40899893430E+01  0.22415321056E+02 -0.10000543573E+03  0.10256832750E+03  0.00000000000E+00 0.  1.
</event>
<event>
 7    1  0.2873461E-009  0.2322385E+03  0.7561462E-02  0.1125074E+00
         -1   -1    0    0    0  501 -0.00000000000E+00  0.00000000000E+00  0.15074921196E+03  0.15074921196E+03  0.00000000000E+00 0.  1.
          1   -1    0    0  501    0  0.00000000000E+00 -0.00000000000E+00 -0.83299423300E+03  0.83299423300E+03  0.00000000000E+00 0. -1.
         25    2    1    2    0    0  0.63821395720E+02  0.21382023787E+03  0.35390659643E+01  0.25585325655E+03  0.12512433505E+03 0.  0.
          5    1    3    3  502    0  0.63035694888E+02  0.21798989193E+03  0.29816220665E+02  0.22890952630E+03  0.41800000000E+01 0.  1.
         -5    1    3    3    0  502  0.78570083186E+00 -0.41696540573E+01 -0.26277154701E+02  0.26943730253E+02  0.41800000000E+01 0.  1.
        -11    1    1    2    0    0 -0.11226847845E+02 -0.14252131183E+03 -0.52714418072E+03  0.54618618959E+03  0.00000000000E+00 0.  1.
         11    1    1    2    0    0 -0.52594547875E+02 -0.71298926042E+02 -0.15863990629E+03  0.18170399882E+03  0.00000000000E+00 0. -1.
</event>
<event>
 7    1  0.2873461E-009  0.1592726E+03  0.7561462E-02  0.1189520E+00
          2   -1    0    0  501    0  0.00000000000E+00  0.00000000000E+00  0.24876782567E+03  0.24876782567E+03  0.00000000000E+00 0. -1.
         -2   -1    0    0    0  501 -0.00000000000E+00 -0.00000000000E+00 -0.14764902812E+03  0.14764902812E+03  0.00000000000E+00 0.  1.
         25    2    1    2    0    0 -0.14575714014E+03  0.51831196000E+02  0.69368265626E+02  0.21069086266E+03  0.12508823506E+03 0.  0.
          5    1    3    3  502    0 -0.14271044153E+03  0.58936925900E+02  0.96531046893E+02  0.18214155696E+03  0.41800000000E+01 0. -1.
         -5    1    3    3    0  502 -0.30466986095E+01 -0.71057299006E+01 -0.27162781267E+02  0.28549305701E+02  0.41800000000E+01 0. -1.
        -11    1    1    2    0    0  0.34089360999E+02 -0.18374720866E+02  0.54596418304E+02  0.66936416037E+02  0.00000000000E+00 0. -1.
         11    1    1    2    0    0  0.11166777914E+03 -0.33456475134E+02 -0.22845886377E+02  0.11878957510E+03  0.00000000000E+00 0.  1.
</event>
<event>
 7    1  0.2873461E-009  0.1466843E+03  0.7561462E-02  0.1204607E+00
          2   -1    0    0  501    0  0.00000000000E+00  0.00000000000E+00  0.31427590092E+03  0.31427590092E+03  0.00000000000E+00 0. -1.
         -2   -1    0    0    0  501 -0.00000000000E+00 -0.00000000000E+00 -0.10521258740E+03  0.10521258740E+03  0.00000000000E+00 0.  1.
         25    2    1    2    0    0 -0.43190456466E+01 -0.14170346302E+03  0.15058451336E+03  0.24170547767E+03  0.12508923488E+03 0.  0.
          5    1    3    3  502    0  0.16879070231E+02 -0.20805962131E+02  0.10856958524E+03  0.11190450532E+03  0.41800000000E+01 0. -1.
         -5    1    3    3    0  502 -0.21198115878E+02 -0.12089750089E+03  0.42014928125E+02  0.12980097235E+03  0.41800000000E+01 0. -1.
        -11    1    1    2    0    0 -0.88720491772E+01  0.48082021195E+02 -0.22006917728E+02  0.53618079476E+02  0.00000000000E+00 0.  1.
         11    1    1    2    0    0  0.13191094824E+02  0.93621441822E+02  0.80485717882E+02  0.12416493118E+03  0.00000000000E+00 0. -1.
</event>
<event>
 7    1  0.2873461E-009  0.1490267E+03  0.7561462E-02  0.1201674E+00
         -1   -1    0    0    0  501 -0.00000000000E+00  0.00000000000E+00  0.25835456090E+03  0.25835456090E+03  0.00000000000E+00 0. -1.
          1   -1    0    0  501    0  0.00000000000E+00 -0.00000000000E+00 -0.95926448048E+02  0.95926448048E+02  0.00000000000E+00 0.  1.
         25    2    1    2    0    0  0.39288966685E+02 -0.10524830115E+03  0.86668999190E+02  0.18914684208E+03  0.12507671506E+03 0.  0.
          5    1    3    3  502    0  0.71597342101E+02 -0.10634197986E+03  0.89535103739E+02  0.15642507241E+03  0.41800000000E+01 0. -1.
         -5    1    3    3    0  502 -0.32308375416E+02  0.10936787094E+01 -0.28661045498E+01  0.32721769672E+02  0.41800000000E+01 0. -1.
        -11    1    1    2    0    0 -0.59296790408E+02  0.47192300668E+02  0.12205448278E+02  0.76760638108E+02  0.00000000000E+00 0.  1.
         11    1    1    2    0    0  0.20007823724E+02  0.58056000481E+02  0.63553665383E+02  0.88373528761E+02  0.00000000000E+00 0. -1.
</event>
<event>
 7    1  0.2873461E-009  0.1845341E+03  0.7561462E-02  0.1163486E+00
          1   -1    0    0  501    0  0.00000000000E+00  0.00000000000E+00  0.50294891309E+03  0.50294891309E+03  0.00000000000E+00 0. -1.
         -1   -1    0    0    0  501 -0.00000000000E+00 -0.00000000000E+00 -0.87372815670E+02  0.87372815670E+02  0.00000000000E+00 0.  1.
         25    2    1    2    0    0  0.13667569657E+03  0.87446916364E+02  0.10850979195E+03  0.23184600261E+03  0.12510389587E+03 0.  0.
          5    1    3    3  502    0  0.14963560195E+03  0.46839565014E+02  0.10525293301E+03  0.18889258992E+03  0.41800000000E+01 0. -1.
         -5    1    3    3    0  502 -0.12959905382E+02  0.40607351350E+02  0.32568589457E+01  0.42953412686E+02  0.41800000000E+01 0. -1.
        -11    1    1    2    0    0 -0.12642842850E+03 -0.59712074179E+02  0.17951284975E+03  0.22754019988E+03  0.00000000000E+00 0.  1.
         11    1    1    2    0    0 -0.10247268064E+02 -0.27734842185E+02  0.12755345572E+03  0.13093552627E+03  0.00000000000E+00 0. -1.
</event>
<event>
 7    1  0.2873461E-009  0.1092714E+03  0.7561462E-02  0.1261925E+00
          1   -1    0    0  501    0  0.00000000000E+00  0.00000000000E+00  0.27067727229E+02  0.27067727229E+02  0.00000000000E+00 0. -1.
         -1   -1    0    0    0  501 -0.00000000000E+00 -0.00000000000E+00 -0.59422251209E+03  0.59422251209E+03  0.00000000000E+00 0.  1.
         25    2    1    2    0    0  0.49632648377E+02  0.39020218343E+02 -0.35890693510E+03  0.38528903518E+03  0.12508986907E+03 0.  0.
          5    1    3    3  502    0  0.88652860935E+01  0.60760552341E+02 -0.72284348439E+02  0.94936491654E+02  0.41800000000E+01 0.  1.
         -5    1    3    3    0  502  0.40767362284E+02 -0.21740333997E+02 -0.28662258666E+03  0.29035254352E+03  0.41800000000E+01 0.  1.
        -11    1    1    2    0    0  0.24830576494E+02 -0.24219370860E+02 -0.75259397636E+02  0.82868042009E+02  0.00000000000E+00 0.  1.
         11    1    1    2    0    0 -0.74463224871E+02 -0.14800847484E+02 -0.13298845213E+03  0.15313316213E+03  0.00000000000E+00 0. -1.
</event>
<event>
 7    1  0.2873461E-009  0.1035761E+03  0.7561462E-02  0.1272951E+00
         -4   -1    0    0    0  501 -0.00000000000E+00  0.00000000000E+00  0.34711967790E+02  0.34711967790E+02  0.00000000000E+00 0.  1.
          4   -1    0    0  501    0  0.00000000000E+00 -0.00000000000E+00 -0.47260758403E+03  0.47260758403E+03  0.00000000000E+00 0. -1.
         25    2    1    2    0    0 -0.43662056059E+02  0.42870079608E+02 -0.17379273785E+03  0.22270139348E+03  0.12509107108E+03 0.  0.
          5    1    3    3  502    0  0.38942427975E+02  0.16937461618E+02 -0.22260098108E+02  0.48128730198E+02  0.41800000000E+01 0. -1.
         -5    1    3    3    0  502 -0.82604484034E+02  0.25932617990E+02 -0.15153263974E+03  0.17457266328E+03  0.41800000000E+01 0. -1.
        -11    1    1    2    0    0  0.72416724664E+01 -0.40674229358E+02 -0.23311726801E+03  0.23674985828E+03  0.00000000000E+00 0. -1.
         11    1    1    2    0    0  0.36420383593E+02 -0.21958502507E+01 -0.30985610378E+02  0.47868300052E+02  0.00000000000E+00 0.  1.
</event>
<event>
 7    1  0.2873461E-009  0.1056252E+03  0.7561462E-02  0.1268893E+00
         -1   -1    0    0    0  501 -0.00000000000E+00  0.00000000000E+00  0.16179914461E+03  0.16179914461E+03  0.00000000000E+00 0.  1.
          1   -1    0    0  501    0  0.00000000000E+00 -0.00000000000E+00 -0.97657342685E+02  0.97657342685E+02  0.00000000000E+00 0. -1.
         25    2    1    2    0    0  0.27497620050E+02  0.26469376444E+02  0.94651480175E+02  0.16144363793E+03  0.12509355912E+03 0.  0.
          5    1    3    3  502    0 -0.47003494262E+02  0.24967281345E+02  0.56095327655E+02  0.77439342683E+02  0.41800000000E+01 0.  1.
         -5    1    3    3    0  502  0.74501114312E+02  0.15020950992E+01  0.38556152521E+02  0.84004295251E+02  0.41800000000E+01 0.  1.
        -11    1    1    2    0    0 -0.35733023514E+02  0.16585544107E+02  0.73702947227E+01  0.40078054931E+02  0.00000000000E+00 0.  1.
         11    1    1    2    0    0  0.82354034633E+01 -0.43054920551E+02 -0.37879972969E+02  0.57934794433E+02  0.00000000000E+00 0. -1.
</event>
<event>
 7    1  0.2873461E-009  0.1020168E+03  0.7561462E-02  0.1276111E+00
          2   -1    0    0  501    0  0.00000000000E+00  0.00000000000E+00  0.22334451087E+03  0.22334451087E+03  0.00000000000E+00 0. -1.
         -2   -1    0    0    0  501 -0.00000000000E+00 -0.00000000000E+00 -0.60522374097E+02  0.60522374097E+02  0.00000000000E+00 0.  1.
         25    2    1    2    0    0  0.17363393298E+02 -0.30749389293E+02  0.11543822188E+03  0.17384191867E+03  0.12509203511E+03 0.  0.
          5    1    3    3  502    0  0.57790235630E+02 -0.11715435497E+01  0.10862347329E+03  0.12311626700E+03  0.41800000000E+01 0. -1.
         -5    1    3    3    0  502 -0.40426842332E+02 -0.29577845743E+02  0.68147485869E+01  0.50725651677E+02  0.41800000000E+01 0. -1.
        -11    1    1    2    0    0 -0.26072472379E+02 -0.26929010730E+02  0.33014415182E+02  0.49948944380E+02  0.00000000000E+00 0. -1.
         11    1    1    2    0    0  0.87090790811E+01  0.57678400023E+02  0.14369499715E+02  0.60076021920E+02  0.00000000000E+00 0.  1.
</event>
<event>
 7    1  0.2873461E-009  0.2064655E+03  0.7561462E-02  0.1144396E+00
         -2   -1    0    0    0  501 -0.00000000000E+00  0.00000000000E+00  0.26690708623E+02  0.26690708623E+02  0.00000000000E+00 0.  1.
          2   -1    0    0  501    0  0.00000000000E+00 -0.00000000000E+00 -0.24832158200E+04  0.24832158200E+04  0.00000000000E+00 0. -1.
         25    2    1    2    0    0 -0.18916090251E+03 -0.16230838748E+02 -0.19179427653E+04  0.19313711213E+04  0.12507865576E+03 0.  0.
          5    1    3    3  502    0 -0.26592186755E+02 -0.29698543684E+02 -0.85850876456E+03  0.85944395926E+03  0.41800000000E+01 0. -1.
         -5    1    3    3    0  502 -0.16256871576E+03  0.13467704936E+02 -0.10594340007E+04  0.10719271621E+04  0.41800000000E+01 0. -1.
        -11    1    1    2    0    0 -0.82002024101E+01  0.90001416661E+01 -0.17823392149E+02  0.21585161043E+02  0.00000000000E+00 0.  1.
         11    1    1    2    0    0  0.19736110492E+03  0.72306970823E+01 -0.52075895396E+03  0.55695024630E+03  0.00000000000E+00 0. -1.
</event>
<event>
 7    1  0.2873461E-009  0.2082213E+03  0.7561462E-02  0.1142982E+00
         -1   -1    0    0    0  501 -0.00000000000E+00  0.00000000000E+00  0.22121630982E+02  0.22121630982E+02  0.00000000000E+00 0.  1.
          1   -1    0    0  501    0  0.00000000000E+00 -0.00000000000E+00 -0.22339067315E+04  0.22339067315E+04  0.00000000000E+00 0. -1.
         25    2    1    2    0    0  0.86143664578E+02  0.15456784950E+03 -0.15397055336E+04  0.15548816557E+04  0.12510748153E+03 0.  0.
          5    1    3    3  502    0  0.11013199620E+03  0.15739921122E+03 -0.13547449933E+04  0.13683037080E+04  0.41800000000E+01 0. -1.
         -5    1    3    3    0  502 -0.23988331617E+02 -0.28313617210E+01 -0.18496054033E+03  0.18657794763E+03  0.41800000000E+01 0. -1.
        -11    1    1    2    0    0 -0.85659615037E+02 -0.58542030323E+02 -0.35235774287E+03  0.36731555633E+03  0.00000000000E+00 0. -1.
         11    1    1    2    0    0 -0.48404954102E+00 -0.96025819172E+02 -0.31972182408E+03  0.33383115050E+03  0.00000000000E+00 0.  1.
</event>
<event>
 7    1  0.2873461E-009  0.9392939E+02  0.7561462E-02  0.1293606E+00
          4   -1    0    0  501    0  0.00000000000E+00  0.00000000000E+00  0.12497389271E+02  0.12497389271E+02  0.00000000000E+00 0. -1.
         -4   -1    0    0    0  501 -0.00000000000E+00 -0.00000000000E+00 -0.12811063755E+04  0.12811063755E+04  0.00000000000E+00 0.  1.
         25    2    1    2    0    0 -0.61655763163E+02  0.17705313227E+02 -0.82457533718E+03  0.83647322225E+03  0.12509218044E+03 0.  0.
          5    1    3    3  502    0 -0.64813383074E+02  0.25990994317E+02 -0.82366258613E+03  0.82662799045E+03  0.41800000000E+01 0. -1.
         -5    1    3    3    0  502  0.31576199119E+01 -0.82856810899E+01 -0.91275105044E+00  0.98452317957E+01  0.41800000000E+01 0. -1.
        -11    1    1    2    0    0  0.66065665696E+02  0.20862388480E+02 -0.30578302919E+03  0.31353336725E+03  0.00000000000E+00 0.  1.
         11    1    1    2    0    0 -0.44099025333E+01 -0.38567701707E+02 -0.13825061987E+03  0.14359717528E+03  0.00000000000E+00 0. -1.
</event>
<event>
 6    1  0.2873461E-009  0.1186035E+03  0.7561462E-02  0.1245419E+00
         -1   -1    0    0    0  501 -0.00000000000E+00  0.00000000000E+00  0.17125706112E+03  0.17125706112E+03  0.00000000000E+00 0.  1.
          1   -1    0    0  501    0  0.00000000000E+00 -0.00000000000E+00 -0.85113344952E+02  0.85113344952E+02  0.00000000000E+00 0. -1.
          5    1    1    2  502    0  0.32054425644E+02 -0.22021718129E+02  0.86489151318E+01  0.40058936652E+02  0.41800000000E+01 0. -1.
         -5    1    1    2    0  502 -0.10333235370E+03  0.18024798627E+02  0.29594228417E+02  0.10906768285E+03  0.41800000000E+01 0. -1.
        -11    1    1    2    0    0  0.81365565031E+02  0.89911216563E+01  0.49814079383E+02  0.95826081764E+02  0.00000000000E+00 0.  1.
         11    1    1    2    0    0 -0.10087636971E+02 -0.49942021541E+01 -0.19135067637E+01  0.11417704802E+02  0.00000000000E+00 0. -1.
</event>
<event>
 7    1  0.2873461E-009  0.1169211E+03  0.7561462E-02  0.1248264E+00
          1   -1    0    0  501    0  0.00000000000E+00  0.00000000000E+00  0.56544172104E+02  0.56544172104E+02  0.00000000000E+00 0. -1.
         -1   -1    0    0    0  501 -0.00000000000E+00 -0.00000000000E+00 -0.41034926361E+03  0.41034926361E+03  0.00000000000E+00 0.  1.
         25    2    1    2    0    0  0.36237581601E+00 -0.42557397026E+02 -0.33876638209E+03  0.36362237816E+03  0.12508920378E+03 0.  0.
          5    1    3    3  502    0  0.55891908499E+02  0.78118637130E+01 -0.13084081241E+03  0.14255427473E+03  0.41800000000E+01 0.  1.
         -5    1    3    3    0  502 -0.55529532683E+02 -0.50369260739E+02 -0.20792556968E+03  0.22106810343E+03  0.41800000000E+01 0.  1.
        -11    1    1    2    0    0  0.17722341418E+02 -0.25886899174E+02 -0.50807348989E+01  0.31780918824E+02  0.00000000000E+00 0.  1.
         11    1    1    2    0    0 -0.18084717234E+02  0.68444296200E+02 -0.99579745170E+01  0.71490138734E+02  0.00000000000E+00 0. -1.
</event>
<event>
 7    1  0.2873461E-009  0.1185085E+03  0.7561462E-02  0.1245578E+00
         -1   -1    0    0    0  501 -0.00000000000E+00  0.00000000000E+00  0.46179014706E+02  0.46179014706E+02  0.00000000000E+00 0.  1.
          1   -1    0    0  501    0  0.00000000000E+00 -0.00000000000E+00 -0.59308316785E+03  0.59308316785E+03  0.00000000000E+00 0. -1.
         25    2    1    2    0    0  0.11157360201E+03  0.46195256262E+00 -0.39567054103E+03  0.42971020180E+03  0.12508716332E+03 0.  0.
          5    1    3    3  502    0  0.36991472563E+02 -0.20244538907E+02 -0.31498407035E+03  0.31782172262E+03  0.41800000000E+01 0.  1.
         -5    1    3    3    0  502  0.74582129447E+02  0.20706491470E+02 -0.80686470683E+02  0.11188847918E+03  0.41800000000E+01 0.  1.
        -11    1    1    2    0    0 -0.81482567684E+02  0.15681185764E+02 -0.37969716139E+02  0.91252439787E+02  0.00000000000E+00 0.  1.
         11    1    1    2    0    0 -0.30091034326E+02 -0.16143138327E+02 -0.11326389597E+03  0.11829954096E+03  0.00000000000E+00 0. -1.
</event>
<event>
 7    1  0.2873461E-009  0.2772534E+03  0.7561462E-02  0.1097199E+00
          1   -1    0    0  501    0  0.00000000000E+00  0.00000000000E+00  0.25324510537E+03  0.25324510537E+03  0.00000000000E+00 0. -1.
         -1   -1    0    0    0  501 -0.00000000000E+00 -0.00000000000E+00 -0.32485087863E+03  0.32485087863E+03  0.00000000000E+00 0.  1.
         25    2    1    2    0    0 -0.25810162895E+03  0.27581612508E+02  0.17072661784E+02  0.28864563646E+03  0.12509049306E+03 0.  0.
          5    1    3    3  502    0 -0.20368968444E+03  0.63864841155E+02  0.43656721792E+02  0.21792564613E+03  0.41800000000E+01 0. -1.
         -5    1    3    3    0  502 -0.54411944508E+02 -0.36283228647E+02 -0.26584060008E+02  0.70719990332E+02  0.41800000000E+01 0. -1.
        -11    1    1    2    0    0  0.11509557080E+03  0.33632395238E+02 -0.35462640237E+02  0.12504290175E+03  0.00000000000E+00 0.  1.
         11    1    1    2    0    0  0.14300605815E+03 -0.61214007747E+02 -0.53215794808E+02  0.16440744578E+03  0.00000000000E+00 0. -1.
</event>
<event>
 7    1  0.2873461E-009  0.7860892E+02  0.7561462E-02  0.1333046E+00
          3   -1    0    0  501    0  0.00000000000E+00  0.00000000000E+00  0.27444505775E+02  0.27444505775E+02  0.00000000000E+00 0. -1.
         -3   -1    0    0    0  501 -0.00000000000E+00 -0.00000000000E+00 -0.51155785177E+03  0.51155785177E+03  0.00000000000E+00 0.  1.
         25    2    1    2    0    0 -0.34990172052E+02  0.28305017273E+02 -0.23168655838E+03  0.26711863503E+03  0.12509283635E+03 0.  0.
          5    1    3    3  502    0 -0.19649142606E+01 -0.12126360545E+02  0.12116665052E+02  0.17753745523E+02  0.41800000000E+01 0. -1.
         -5    1    3    3    0  502 -0.33025257791E+02  0.40431377818E+02 -0.24380322343E+03  0.24936488951E+03  0.41800000000E+01 0. -1.
        -11    1    1    2    0    0  0.61036364583E+02 -0.23384546895E+02 -0.22251852703E+03  0.23191974842E+03  0.00000000000E+00 0.  1.
         11    1    1    2    0    0 -0.26046192531E+02 -0.49204703779E+01 -0.29908260589E+02  0.39963974097E+02  0.00000000000E+00 0. -1.
</event>
<event>
 7    1  0.2873461E-009  0.1741387E+03  0.7561462E-02  0.1173599E+00
         -1   -1    0    0    0  501 -0.00000000000E+00  0.00000000000E+00  0.16610282226E+03  0.16610282226E+03  0.00000000000E+00 0. -1.
          1   -1    0    0  501    0  0.00000000000E+00 -0.00000000000E+00 -0.20089623231E+03  0.20089623231E+03  0.00000000000E+00 0.  1.
         25    2    1    2    0    0  0.88958628546E+02 -0.11569388757E+03 -0.32055818840E+02  0.19486814332E+03  0.12508918637E+03 0.  0.
          5    1    3    3  502    0  0.37554482706E+02  0.19721698172E+02 -0.25811092433E+02  0.49829403395E+02  0.41800000000E+01 0. -1.
         -5    1    3    3    0  502  0.51404145840E+02 -0.13541558574E+03 -0.62447264073E+01  0.14503873993E+03  0.41800000000E+01 0. -1.
        -11    1    1    2    0    0 -0.58650857189E+02  0.22613410751E+02  0.28996894118E+02  0.69225062393E+02  0.00000000000E+00 0. -1.
         11    1    1    2    0    0 -0.30307771357E+02  0.93080476820E+02 -0.31734485333E+02  0.10290584886E+03  0.00000000000E+00 0.  1.
</event>
<event>
 7    1  0.2873461E-009  0.8151721E+02  0.7561462E-02  0.1324800E+00
         -2   -1    0    0    0  501 -0.00000000000E+00  0.00000000000E+00  0.10868381015E+02  0.10868381015E+02  0.00000000000E+00 0.  1.
          2   -1    0    0  501    0  0.00000000000E+00 -0.00000000000E+00 -0.16935542128E+04  0.16935542128E+04  0.00000000000E+00 0. -1.
         25    2    1    2    0    0 -0.27481289624E+02  0.19181774320E+02 -0.14147832039E+04  0.14206979489E+04  0.12509191136E+03 0.  0.
          5    1    3    3  502    0  0.23266445287E+02  0.19430656553E+01 -0.55546662649E+02  0.60398734357E+02  0.41800000000E+01 0.  1.
         -5    1    3    3    0  502 -0.50747734911E+02  0.17238708665E+02 -0.13592365412E+04  0.13602992145E+04  0.41800000000E+01 0.  1.
        -11    1    1    2    0    0 -0.47787592230E+01 -0.44371205782E+02 -0.19573822456E+03  0.20076128361E+03  0.00000000000E+00 0. -1.
         11    1    1    2    0    0  0.32260048847E+02  0.25189431462E+02 -0.72164403359E+02  0.82963361317E+02  0.00000000000E+00 0.  1.
</event>
<event>
 7    1  0.2873461E-009  0.1651474E+03  0.7561462E-02  0.1183005E+00
         -2   -1    0    0    0  501 -0.00000000000E+00  0.00000000000E+00  0.58703710108E+03  0.58703710108E+03  0.00000000000E+00 0.  1.
          2   -1    0    0  501    0  0.00000000000E+00 -0.00000000000E+00 -0.66267723897E+02  0.66267723897E+02  0.00000000000E+00 0. -1.
         25    2    1    2    0    0  0.13893038206E+02 -0.14883172961E+03  0.39177364381E+03  0.43758192821E+03  0.12508979040E+03 0.  0.
          5    1    3    3  502    0  0.10407324289E+02 -0.15181905293E+03  0.39958635320E+03  0.42760269327E+03  0.41800000000E+01 0.  1.
         -5    1    3    3    0  502  0.34857139169E+01  0.29873233247E+01 -0.78127093821E+01  0.99792349429E+01  0.41800000000E+01 0.  1.
        -11    1    1    2    0    0  0.30204018028E+02  0.21424735511E+02  0.38040931235E+02  0.53088741236E+02  0.00000000000E+00 0.  1.
         11    1    1    2    0    0 -0.44097056235E+02  0.12740699410E+03  0.90954802136E+02  0.16263415553E+03  0.00000000000E+00 0. -1.
</event>
<event>
 7    1  0.2873461E-009  0.3709851E+03  0.7561462E-02  0.1054317E+00
         -3   -1    0    0    0  501 -0.00000000000E+00  0.00000000000E+00  0.16926489442E+03  0.16926489442E+03  0.00000000000E+00 0.  1.
          3   -1    0    0  501    0  0.00000000000E+00 -0.00000000000E+00 -0.88832706298E+03  0.88832706298E+03  0.00000000000E+00 0. -1.
         25    2    1    2    0    0  0.26912756651E+03 -0.25434169305E+03 -0.30605458546E+03  0.49642424577E+03  0.12509307985E+03 0.  0.
          5    1    3    3  502    0  0.17329040102E+03 -0.16829190600E+03 -0.27062151721E+03  0.36277431922E+03  0.41800000000E+01 0.  1.
         -5    1    3    3    0  502  0.95837165489E+02 -0.86049787050E+02 -0.35433068257E+02  0.13364992655E+03  0.41800000000E+01 0.  1.
        -11    1    1    2    0    0 -0.13697888760E+03  0.14996799445E+03 -0.16649910884E+03  0.26263200158E+03  0.00000000000E+00 0.  1.
         11    1    1    2    0    0 -0.13214867890E+03  0.10437369860E+03 -0.24650847425E+03  0.29853571004E+03  0.00000000000E+00 0. -1.
</event>
<event>
 7    1  0.2873461E-009  0.1246386E+03  0.7561462E-02  0.1235635E+00
          2   -1    0    0  501    0  0.00000000000E+00  0.00000000000E+00  0.22072580704E+03  0.22072580704E+03  0.00000000000E+00 0. -1.
         -2   -1    0    0    0  501 -0.00000000000E+00 -0.00000000000E+00 -0.78174501418E+02  0.78174501418E+02  0.00000000000E+00 0.  1.
         25    2    1    2    0    0  0.40672621105E+02  0.52100707323E+02  0.11515185517E+03  0.18242649315E+03  0.12510287704E+03 0.  0.
          5    1    3    3  502    0  0.34302617510E+02 -0.37149315951E+02  0.30604942698E+02  0.59252646871E+02  0.41800000000E+01 0. -1.
         -5    1    3    3    0  502  0.63700035951E+01  0.89250023274E+02  0.84546912470E+02  0.12317384628E+03  0.41800000000E+01 0. -1.
        -11    1    1    2    0    0  0.13936533892E+02 -0.52537978215E+02 -0.21178930533E+01  0.54396246220E+02  0.00000000000E+00 0.  1.
         11    1    1    2    0    0 -0.54609154997E+02  0.43727089183E+00  0.29517343503E+02  0.62077569079E+02  0.00000000000E+00 0. -1.
</event>
<event>
 7    1  0.2873461E-009  0.1261665E+03  0.7561462E-02  0.1233257E+00
         -1   -1    0    0    0  501 -0.00000000000E+00  0.00000000000E+00  0.71461783532E+02  0.71461783532E+02  0.00000000000E+00 0.  1.
          1   -1    0    0  501    0  0.00000000000E+00 -0.00000000000E+00 -0.79976387631E+03  0.79976387631E+03  0.00000000000E+00 0. -1.
         25    2    1    2    0    0 -0.85667872784E+02 -0.61558017975E+02 -0.71241895873E+03  0.73096891631E+03  0.12508561011E+03 0.  0.
          5    1    3    3  502    0  0.18768854874E+02  0.42755459925E+01 -0.21764662594E+02  0.29355121268E+02  0.41800000000E+01 0.  1.
         -5    1    3    3    0  502 -0.10443672766E+03 -0.65833563967E+02 -0.69065429613E+03  0.70161379504E+03  0.41800000000E+01 0.  1.
        -11    1    1    2    0    0  0.34616422926E+02  0.42030376852E+02  0.35692469501E+02  0.65106080312E+02  0.00000000000E+00 0.  1.
         11    1    1    2    0    0  0.51051449857E+02  0.19527641123E+02 -0.51575603552E+02  0.75150663218E+02  0.00000000000E+00 0. -1.
</event>
<event>
 7    1  0.2873461E-009  0.1061332E+03  0.7561462E-02  0.1267903E+00
         -2   -1    0    0    0  501 -0.00000000000E+00  0.00000000000E+00  0.15256036179E+02  0.15256036179E+02  0.00000000000E+00 0.  1.
          2   -1    0    0  501    0  0.00000000000E+00 -0.00000000000E+00 -0.97904970011E+03  0.97904970011E+03  0.00000000000E+00 0. -1.
         25    2    1    2    0    0 -0.40733072962E+01 -0.12835908742E+02 -0.75767070900E+03  0.76804497836E+03  0.12508730200E+03 0.  0.
          5    1    3    3  502    0 -0.53014972385E+02 -0.38300652818E+02 -0.51462773582E+03  0.51878387232E+03  0.41800000000E+01 0. -1.
         -5    1    3    3    0  502  0.48941665089E+02  0.25464744076E+02 -0.24304297318E+03  0.24926110604E+03  0.41800000000E+01 0. -1.
        -11    1    1    2    0    0  0.37804876453E+02  0.34608616046E+02 -0.92462081250E+02  0.10571755511E+03  0.00000000000E+00 0.  1.
         11    1    1    2    0    0 -0.33731569157E+02 -0.21772707304E+02 -0.11366087368E+03  0.12054320282E+03  0.00000000000E+00 0. -1.
</event>
<event>
 7    1  0.2873461E-009  0.1793828E+03  0.7561462E-02  0.1168402E+00
         -2   -1    0    0    0  501 -0.00000000000E+00  0.00000000000E+00  0.40511816112E+02  0.40511816112E+02  0.00000000000E+00 0.  1.
          2   -1    0    0  501    0  0.00000000000E+00 -0.00000000000E+00 -0.98744267050E+03  0.98744267050E+03  0.00000000000E+00 0. -1.
         25    2    1    2    0    0 -0.13262959249E+03  0.14933529880E+02 -0.70744044520E+03  0.73070787066E+03  0.12509352349E+03 0.  0.
          5    1    3    3  502    0 -0.87553371024E+01 -0.44283188580E+02 -0.16020765812E+03  0.16649811662E+03  0.41800000000E+01 0. -1.
         -5    1    3    3    0  502 -0.12387425539E+03  0.59216718460E+02 -0.54723278708E+03  0.56420975404E+03  0.41800000000E+01 0. -1.
        -11    1    1    2    0    0  0.52746687552E+02 -0.63523390998E+02 -0.11215423546E+03  0.13926954722E+03  0.00000000000E+00 0. -1.
         11    1    1    2    0    0  0.79882904940E+02  0.48589861118E+02 -0.12733617372E+03  0.15797706872E+03  0.00000000000E+00 0.  1.
</event>
<event>
 7    1  0.2873461E-009  0.2033485E+03  0.7561462E-02  0.1146944E+00
         -1   -1    0    0    0  501 -0.00000000000E+00  0.00000000000E+00  0.11801635378E+04  0.11801635378E+04  0.00000000000E+00 0.  1.
          1   -1    0    0  501    0  0.00000000000E+00 -0.00000000000E+00 -0.40964958433E+02  0.40964958433E+02  0.00000000000E+00 0. -1.
         25    2    1    2    0    0 -0.15938530746E+03  0.75313765596E+02  0.38694655419E+03  0.44322705089E+03  0.12508694305E+03 0.  0.
          5    1    3    3  502    0 -0.52226364324E+02 -0.34444196565E+02  0.11293959921E+03  0.12917747976E+03  0.41800000000E+01 0. -1.
         -5    1    3    3    0  502 -0.10715894314E+03  0.10975796216E+03  0.27400695498E+03  0.31404957113E+03  0.41800000000E+01 0. -1.
        -11    1    1    2    0    0  0.12022106397E+03 -0.88430819697E+02  0.66250248133E+03  0.67910430117E+03  0.00000000000E+00 0.  1.
         11    1    1    2    0    0  0.39164243489E+02  0.13117054102E+02  0.89749543872E+02  0.98797144198E+02  0.00000000000E+00 0. -1.
</event>
<event>
 7    1  0.2873461E-009  0.1066679E+03  0.7561462E-02  0.1266868E+00
          2   -1    0    0  501    0  0.00000000000E+00  0.00000000000E+00  0.32314453376E+03  0.32314453376E+03  0.00000000000E+00 0. -1.
         -2   -1    0    0    0  501 -0.00000000000E+00 -0.00000000000E+00 -0.41568572503E+02  0.41568572503E+02  0.00000000000E+00 0.  1.
         25    2    1    2    0    0  0.15062066344E+02  0.27859511186E+02  0.12194717378E+03  0.17754504619E+03  0.12509241394E+03 0.  0.
          5    1    3    3  502    0 -0.30163957978E+02  0.61524527521E+02  0.45082428954E+02  0.82128129456E+02  0.41800000000E+01 0.  1.
         -5    1    3    3    0  502  0.45226024323E+02 -0.33665016336E+02  0.76864744828E+02  0.95416916731E+02  0.41800000000E+01 0.  1.
        -11    1    1    2    0    0 -0.41018766005E+02  0.10027573541E+02  0.36720381639E+02  0.55959608857E+02  0.00000000000E+00 0.  1.
         11    1    1    2    0    0  0.25956699661E+02 -0.37887084726E+02  0.12290840584E+03  0.13120845122E+03  0.00000000000E+00 0. -1.
</event>
<event>
 7    1  0.2873461E-009  0.1210036E+03  0.7561462E-02  0.1241450E+00
         -3   -1    0    0    0  501 -0.00000000000E+00  0.00000000000E+00  0.10795547398E+03  0.10795547398E+03  0.00000000000E+00 0.  1.
          3   -1    0    0  501    0  0.00000000000E+00 -0.00000000000E+00 -0.21757997336E+03  0.21757997336E+03  0.00000000000E+00 0. -1.
         25    2    1    2    0    0  0.37384629656E+02  0.96552106390E+02 -0.27151987304E+02  0.16462923108E+03  0.12508250688E+03 0.  0.
          5    1    3    3  502    0  0.39348460964E+01  0.25879924581E+02  0.48805444348E+02  0.55540051388E+02  0.41800000000E+01 0.  1.
         -5    1    3    3    0  502  0.33449783559E+02  0.70672181808E+02 -0.75957431653E+02  0.10908917969E+03  0.41800000000E+01 0.  1.
        -11    1    1    2    0    0  0.66524686898E+01 -0.92759813392E+02 -0.64579878602E+02  0.11322190177E+03  0.00000000000E+00 0.  1.
         11    1    1    2    0    0 -0.44037098345E+02 -0.37922929975E+01 -0.17892633470E+02  0.47684314500E+02  0.00000000000E+00 0. -1.
</event>
<event>
 7    1  0.2873461E-009  0.1279210E+03  0.7561462E-02  0.1230574E+00
         -1   -1    0    0    0  501 -0.00000000000E+00  0.00000000000E+00  0.16435469573E+03  0.16435469573E+03  0.00000000000E+00 0.  1.
          1   -1    0    0  501    0  0.00000000000E+00 -0.00000000000E+00 -0.14973622339E+03  0.14973622339E+03  0.00000000000E+00 0. -1.
         25    2    1    2    0    0 -0.39997165622E+02 -0.10552650976E+03 -0.67808853330E+00  0.16847277381E+03  0.12508796182E+03 0.  0.
          5    1    3    3  502    0 -0.66920043541E+02 -0.85686615591E+02  0.39752088475E+02  0.11583690801E+03  0.41800000000E+01 0.  1.
         -5    1    3    3    0  502  0.26922877919E+02 -0.19839894165E+02 -0.40430177008E+02  0.52635865803E+02  0.41800000000E+01 0.  1.
        -11    1    1    2    0    0  0.37267395697E+02  0.87525238955E+02 -0.27571347896E+02  0.99043957216E+02  0.00000000000E+00 0. -1.
         11    1    1    2    0    0  0.27297699251E+01  0.18001270801E+02  0.42867908771E+02  0.46574188095E+02  0.00000000000E+00 0.  1.
</event>
<event>
 7    1  0.2873461E-009  0.1817523E+03  0.7561462E-02  0.1166118E+00
         -1   -1    0    0    0  501 -0.00000000000E+00  0.00000000000E+00  0.60996378713E+03  0.60996378713E+03  0.00000000000E+00 0.  1.
          1   -1    0    0  501    0  0.00000000000E+00 -0.00000000000E+00 -0.94162477874E+02  0.94162477874E+02  0.00000000000E+00 0. -1.
         25    2    1    2    0    0  0.67757739837E+02  0.14460449875E+03  0.47395841603E+03  0.51554433230E+03  0.12509119106E+03 0.  0.
          5    1    3    3  502    0  0.97293420887E+02  0.93055356275E+02  0.39001400244E+03  0.41261810864E+03  0.41800000000E+01 0. -1.
         -5    1    3    3    0  502 -0.29535681050E+02  0.51549142474E+02  0.83944413592E+02  0.10292622367E+03  0.41800000000E+01 0. -1.
        -11    1    1    2    0    0 -0.52848701075E+02 -0.47652523504E+02  0.54560445855E+02  0.89669339540E+02  0.00000000000E+00 0.  1.
         11    1    1    2    0    0 -0.14909038762E+02 -0.96951975245E+02 -0.12717552629E+02  0.98912593160E+02  0.00000000000E+00 0. -1.
</event>
<event>
 7    1  0.2884844E-009  0.1089323E+03  0.7561462E-02  0.1262560E+00
         -2   -1    0    0    0  501 -0.00000000000E+00  0.00000000000E+00  0.20558184330E+02  0.20558184330E+02  0.00000000000E+00 0.  1.
          2   -1    0    0  501    0  0.00000000000E+00 -0.00000000000E+00 -0.68003075259E+03  0.68003075259E+03  0.00000000000E+00 0. -1.
         25    2    1    2    0    0  0.21352818975E+02 -0.41533770567E+02 -0.35619859248E+03  0.38040310251E+03  0.12509231047E+03 0.  0.
          5    1    3    3  502    0 -0.36246911479E+02 -0.52154446483E+02 -0.10807209213E+03  0.12542318118E+03  0.41800000000E+01 0. -1.
         -5    1    3    3    0  502  0.57599730454E+02  0.10620675915E+02 -0.24812650035E+03  0.25497992133E+03  0.41800000000E+01 0. -1.
        -11    1    1    2    0    0  0.14985396545E+02  0.54798613994E+02 -0.11860757968E+03  0.13151124729E+03  0.00000000000E+00 0.  1.
         11    1    1    2    0    0 -0.36338215520E+02 -0.13264843427E+02 -0.18466639609E+03  0.18867458712E+03  0.00000000000E+00 0. -1.
</event>
<event>
 7    1  0.2873461E-009  0.8490942E+02  0.7561462E-02  0.1315670E+00
          1   -1    0    0  501    0  0.00000000000E+00  0.00000000000E+00  0.65941168068E+03  0.65941168068E+03  0.00000000000E+00 0. -1.
         -1   -1    0    0    0  501 -0.00000000000E+00 -0.00000000000E+00 -0.20195927831E+02  0.20195927831E+02  0.00000000000E+00 0.  1.
         25    2    1    2    0    0  0.13230837889E+02  0.30412074936E+02  0.33070920172E+03  0.35512855667E+03  0.12509103201E+03 0.  0.
          5    1    3    3  502    0 -0.31343723035E+02  0.39338094484E+02  0.28873620317E+03  0.29311428159E+03  0.41800000000E+01 0.  1.
         -5    1    3    3    0  502  0.44574560924E+02 -0.89260195485E+01  0.41972998548E+02  0.62014275079E+02  0.41800000000E+01 0.  1.
        -11    1    1    2    0    0 -0.12895124390E+02 -0.51254014825E+02  0.29487261305E+03  0.29957155438E+03  0.00000000000E+00 0. -1.
         11    1    1    2    0    0 -0.33571349906E+00  0.20841939890E+02  0.13633938080E+02  0.24907497455E+02  0.00000000000E+00 0.  1.
</event>
<event>
 7    1  0.2873461E-009  0.9640850E+02  0.7561462E-02  0.1288035E+00
          2   -1    0    0  501    0  0.00000000000E+00  0.00000000000E+00  0.11164153772E+03  0.11164153772E+03  0.00000000000E+00 0. -1.
         -2   -1    0    0    0  501 -0.00000000000E+00 -0.00000000000E+00 -0.15558183725E+03  0.15558183725E+03  0.00000000000E+00 0.  1.
         25    2    1    2    0    0 -0.65554361884E+02  0.38037398827E+02 -0.25875080228E+02  0.14852636077E+03  0.12508533885E+03 0.  0.
          5    1    3    3  502    0 -0.14330151321E+02  0.48621490902E+02 -0.65388065907E+02  0.82840051771E+02  0.41800000000E+01 0.  1.
         -5    1    3    3    0  502 -0.51224210563E+02 -0.10584092075E+02  0.39512985679E+02  0.65686309001E+02  0.41800000000E+01 0.  1.
        -11    1    1    2    0    0 -0.17396114192E+00 -0.21770702081E+02 -0.41649053086E+02  0.46996141912E+02  0.00000000000E+00 0.  1.
         11    1    1    2    0    0  0.65728323026E+02 -0.16266696745E+02  0.23583833786E+02  0.71700872288E+02  0.00000000000E+00 0. -1.
</event>
<event>
 7    1  0.2873461E-009  0.2846398E+03  0.7561462E-02  0.1093181E+00
         -2   -1    0    0    0  501 -0.00000000000E+00  0.00000000000E+00  0.97163385400E+02  0.97163385400E+02  0.00000000000E+00 0.  1.
          2   -1    0    0  501    0  0.00000000000E+00 -0.00000000000E+00 -0.93304557961E+03  0.93304557961E+03  0.00000000000E+00 0. -1.
         25    2    1    2    0    0 -0.26703659452E+02 -0.27221446890E+03 -0.53233716087E+03  0.61142797013E+03  0.12508999683E+03 0.  0.
          5    1    3    3  502    0  0.21559212599E+02 -0.22855886372E+03 -0.35813458914E+03  0.42541956957E+03  0.41800000000E+01 0.  1.
         -5    1    3    3    0  502 -0.48262872051E+02 -0.43655605183E+02 -0.17420257173E+03  0.18600840056E+03  0.41800000000E+01 0.  1.
        -11    1    1    2    0    0 -0.26448095553E+01  0.77236673570E+02 -0.33057149109E+02  0.84055183475E+02  0.00000000000E+00 0.  1.
         11    1    1    2    0    0  0.29348469007E+02  0.19497779533E+03 -0.27048788423E+03  0.33472581141E+03  0.00000000000E+00 0. -1.
</event>
<event>
 7    1  0.2873461E-009  0.1382843E+03  0.7561462E-02  0.1215656E+00
          1   -1    0    0  501    0  0.00000000000E+00  0.00000000000E+00  0.10759153064E+04  0.10759153064E+04  0.00000000000E+00 0. -1.
         -1   -1    0    0    0  501 -0.00000000000E+00 -0.00000000000E+00 -0.30568285397E+02  0.30568285397E+02  0.00000000000E+00 0.  1.
         25    2    1    2    0    0 -0.79318176392E+02 -0.68230047726E+02  0.85910569657E+03  0.87444632688E+03  0.12508824161E+03 0.  0.
          5    1    3    3  502    0 -0.99427194102E+02 -0.58949137628E+02  0.44691019818E+03  0.46163509983E+03  0.41800000000E+01 0. -1.
         -5    1    3    3    0  502  0.20109017710E+02 -0.92809100987E+01  0.41219549839E+03  0.41281122705E+03  0.41800000000E+01 0. -1.
        -11    1    1    2    0    0  0.60675860627E+02 -0.67989649553E+01  0.84862471828E+02  0.10454389084E+03  0.00000000000E+00 0. -1.
         11    1    1    2    0    0  0.18642315765E+02  0.75029012681E+02  0.10137885264E+03  0.12749337412E+03  0.00000000000E+00 0.  1.
</event>
<event>
 7    1  0.5512648E-009  0.1110121E+03  0.7561462E-02  0.1258707E+00
         -2   -1    0    0    0  501 -0.00000000000E+00  0.00000000000E+00  0.21659147183E+02  0.21659147183E+02  0.00000000000E+00 0.  1.
          2   -1    0    0  501    0  0.00000000000E+00 -0.00000000000E+00 -0.81394295443E+03  0.81394295443E+03  0.00000000000E+00 0. -1.
         25    2    1    2    0    0 -0.13615735161E+01  0.72176563812E+02 -0.51429322970E+03  0.53418776599E+03  0.12509089881E+03 0.  0.
          5    1    3    3  502    0 -0.30009510360E+02 -0.21696387159E+02 -0.23909310313E+03  0.24197993365E+03  0.41800000000E+01 0.  1.
         -5    1    3    3    0  502  0.28647936844E+02  0.93872950972E+02 -0.27520012657E+03  0.29220783233E+03  0.41800000000E+01 0.  1.
        -11    1    1    2    0    0  0.24536993217E+02 -0.36794457415E+02 -0.39799494705E+02  0.59497024391E+02  0.00000000000E+00 0.  1.
         11    1    1    2    0    0 -0.23175419701E+02 -0.35382106398E+02 -0.23819108284E+03  0.24191731123E+03  0.00000000000E+00 0. -1.
</event>
<event>
 7    1  0.2873461E-009  0.1273816E+03  0.7561462E-02  0.1231394E+00
          1   -1    0    0  501    0  0.00000000000E+00  0.00000000000E+00  0.87712050466E+03  0.87712050466E+03  0.00000000000E+00 0. -1.
         -1   -1    0    0    0  501 -0.00000000000E+00 -0.00000000000E+00 -0.30292886489E+02  0.30292886489E+02  0.00000000000E+00 0.  1.
         25    2    1    2    0    0  0.48491815634E+02  0.81772746396E+02  0.66434185952E+03  0.68266837332E+03  0.12509102039E+03 0.  0.
          5    1    3    3  502    0  0.68341731255E+02  0.30177978929E+02  0.17676176082E+03  0.19194659447E+03  0.41800000000E+01 0.  1.
         -5    1    3    3    0  502 -0.19849915622E+02  0.51594767467E+02  0.48758009871E+03  0.49072177885E+03  0.41800000000E+01 0.  1.
        -11    1    1    2    0    0 -0.11400329863E+02 -0.86374062349E+02  0.15685015925E+03  0.17942245852E+03  0.00000000000E+00 0. -1.
         11    1    1    2    0    0 -0.37091485771E+02  0.46013159529E+01  0.25635599404E+02  0.45322559305E+02  0.00000000000E+00 0.  1.
</event>
<event>
 7    1  0.2873461E-009  0.1081957E+03  0.7561462E-02  0.1263948E+00
         -3   -1    0    0    0  501 -0.00000000000E+00  0.00000000000E+00  0.19487116635E+03  0.19487116635E+03  0.00000000000E+00 0.  1.
          3   -1    0    0  501    0  0.00000000000E+00 -0.00000000000E+00 -0.10741227758E+03  0.10741227758E+03  0.00000000000E+00 0. -1.
         25    2    1    2    0    0 -0.13439823645E+02  0.80236617321E+02  0.98836657569E+02  0.17898577998E+03  0.12509468788E+03 0.  0.
          5    1    3    3  502    0 -0.28249105935E+02  0.69663339985E+02  0.12555023455E+03  0.14639442175E+03  0.41800000000E+01 0. -1.
         -5    1    3    3    0  502  0.14809282291E+02  0.10573277336E+02 -0.26713576984E+02  0.32591358224E+02  0.41800000000E+01 0. -1.
        -11    1    1    2    0    0 -0.23566729416E+02  0.94650711657E+01 -0.61003312751E+01  0.26118812171E+02  0.00000000000E+00 0.  1.
         11    1    1    2    0    0  0.37006553061E+02 -0.89701688486E+02 -0.52774375156E+01  0.97178851781E+02  0.00000000000E+00 0. -1.
</event>
<event>
 7    1  0.2873461E-009  0.1848347E+03  0.7561462E-02  0.1163204E+00
         -2   -1    0    0    0  501 -0.00000000000E+00  0.00000000000E+00  0.72191669497E+02  0.72191669497E+02  0.00000000000E+00 0.  1.
          2   -1    0    0  501    0  0.00000000000E+00 -0.00000000000E+00 -0.58353242278E+03  0.58353242278E+03  0.00000000000E+00 0. -1.
         25    2    1    2    0    0  0.22174731203E+02 -0.17089807832E+03 -0.29816377447E+03  0.36638891343E+03  0.12506529335E+03 0.  0.
          5    1    3    3  502    0  0.28067025811E+02 -0.12830423786E+03 -0.29515200379E+03  0.32308189849E+03  0.41800000000E+01 0.  1.
         -5    1    3    3    0  502 -0.58922946085E+01 -0.42593840453E+02 -0.30117706824E+01  0.43307014939E+02  0.41800000000E+01 0.  1.
        -11    1    1    2    0    0 -0.57970752913E+02  0.11274150081E+03 -0.12786959535E+03  0.18006078866E+03  0.00000000000E+00 0.  1.
         11    1    1    2    0    0  0.35796021710E+02  0.58156577508E+02 -0.85307383458E+02  0.10927439018E+03  0.00000000000E+00 0. -1.
</event>
<event>
 7    1  0.3668229E-009  0.1149337E+03  0.7561462E-02  0.1251697E+00
          2   -1    0    0  501    0  0.00000000000E+00  0.00000000000E+00  0.11473271172E+04  0.11473271172E+04  0.00000000000E+00 0. -1.
         -2   -1    0    0    0  501 -0.00000000000E+00 -0.00000000000E+00 -0.19016243243E+02  0.19016243243E+02  0.00000000000E+00 0.  1.
         25    2    1    2    0    0 -0.88495338536E+01  0.95374961051E+02  0.72201386972E+03  0.73900377684E+03  0.12509139328E+03 0.  0.
          5    1    3    3  502    0  0.24545296033E+02  0.13635795745E+02  0.29757883917E+02  0.41126761825E+02  0.41800000000E+01 0.  1.
         -5    1    3    3    0  502 -0.33394829887E+02  0.81739165305E+02  0.69225598580E+03  0.69787701501E+03  0.41800000000E+01 0.  1.
        -11    1    1    2    0    0 -0.25873582117E+02 -0.44812115702E+02  0.30152943308E+03  0.30593719450E+03  0.00000000000E+00 0. -1.
         11    1    1    2    0    0  0.34723115971E+02 -0.50562845348E+02  0.10476757113E+03  0.12140238907E+03  0.00000000000E+00 0.  1.
</event>
<event>
 7    1  0.2873461E-009  0.1025047E+03  0.7561462E-02  0.1275115E+00
          3   -1    0    0  501    0  0.00000000000E+00  0.00000000000E+00  0.13512225922E+03  0.13512225922E+03  0.00000000000E+00 0. -1.
         -3   -1    0    0    0  501 -0.00000000000E+00 -0.00000000000E+00 -0.11181973457E+03  0.11181973457E+03  0.00000000000E+00 0.  1.
         25    2    1    2    0    0  0.12117979856E+02 -0.55779627663E+02  0.26942633500E+01  0.13752558830E+03  0.12509123104E+03 0.  0.
          5    1    3    3  502    0  0.44572378561E+02 -0.75323087617E+02  0.27751421742E+02  0.91912340126E+02  0.41800000000E+01 0.  1.
         -5    1    3    3    0  502 -0.32454398705E+02  0.19543459954E+02 -0.25057158391E+02  0.45613248174E+02  0.41800000000E+01 0.  1.
        -11    1    1    2    0    0 -0.29945613292E+02  0.12472250890E+02 -0.27316017167E+02  0.42408272678E+02  0.00000000000E+00 0.  1.
         11    1    1    2    0    0  0.17827633436E+02  0.43307376773E+02  0.47924278460E+02  0.67008132811E+02  0.00000000000E+00 0. -1.
</event>
<event>
 7    1  0.2873461E-009  0.1083705E+03  0.7561462E-02  0.1263617E+00
          2   -1    0    0  501    0  0.00000000000E+00  0.00000000000E+00  0.53497015772E+03  0.53497015772E+03  0.00000000000E+00 0. -1.
         -2   -1    0    0    0  501 -0.00000000000E+00 -0.00000000000E+00 -0.23957533884E+02  0.23957533884E+02  0.00000000000E+00 0.  1.
         25    2    1    2    0    0 -0.25406292550E+02 -0.18068750189E+02  0.26983224853E+03  0.29904745549E+03  0.12509188165E+03 0.  0.
          5    1    3    3  502    0  0.44552464957E+02 -0.32743065011E+02  0.14340803861E+03  0.15375424670E+03  0.41800000000E+01 0. -1.
         -5    1    3    3    0  502 -0.69958757507E+02  0.14674314822E+02  0.12642420992E+03  0.14529320879E+03  0.41800000000E+01 0. -1.
        -11    1    1    2    0    0  0.53226538583E+02 -0.51201937527E+01  0.92416760736E+02  0.10677143091E+03  0.00000000000E+00 0. -1.
         11    1    1    2    0    0 -0.27820246032E+02  0.23188943942E+02  0.14876361457E+03  0.15310880521E+03  0.00000000000E+00 0.  1.
</event>
<event>
 7    1  0.2873461E-009  0.2062073E+03  0.7561462E-02  0.1144605E+00
         -3   -1    0    0    0  501 -0.00000000000E+00  0.00000000000E+00  0.86662652990E+02  0.86662652990E+02  0.00000000000E+00 0.  1.
          3   -1    0    0  501    0  0.00000000000E+00 -0.00000000000E+00 -0.58295630375E+03  0.58295630375E+03  0.00000000000E+00 0. -1.
         25    2    1    2    0    0 -0.31306114296E+02 -0.17963749690E+03 -0.14792772050E+03  0.26604432436E+03  0.12508904406E+03 0.  0.
          5    1    3    3  502    0  0.89174782863E+00 -0.17918723580E+03 -0.14969204566E+03  0.23352524836E+03  0.41800000000E+01 0. -1.
         -5    1    3    3    0  502 -0.32197862125E+02 -0.45026109620E+00  0.17643251534E+01  0.32519075997E+02  0.41800000000E+01 0. -1.
        -11    1    1    2    0    0 -0.28979155640E+02  0.65527791603E+02 -0.92499624492E+02  0.11700368996E+03  0.00000000000E+00 0.  1.
         11    1    1    2    0    0  0.60285269937E+02  0.11410970529E+03 -0.25586630576E+03  0.28657094242E+03  0.00000000000E+00 0. -1.
</event>
<event>
 7    1  0.2873461E-009  0.1499927E+03  0.7561462E-02  0.1200482E+00
         -2   -1    0    0    0  501 -0.00000000000E+00  0.00000000000E+00  0.11757693055E+03  0.11757693055E+03  0.00000000000E+00 0.  1.
          2   -1    0    0  501    0  0.00000000000E+00 -0.00000000000E+00 -0.32118779837E+03  0.32118779837E+03  0.00000000000E+00 0. -1.
         25    2    1    2    0    0  0.64076216081E+02  0.37702740129E+02 -0.17556907250E+03  0.22801929026E+03  0.12506414127E+03 0.  0.
          5    1    3    3  502    0 -0.13054845462E+02 -0.29888748317E+02 -0.84976983837E+02  0.91117102939E+02  0.41800000000E+01 0. -1.
         -5    1    3    3    0  502  0.77131061543E+02  0.67591488446E+02 -0.90592088663E+02  0.13690218732E+03  0.41800000000E+01 0. -1.
        -11    1    1    2    0    0  0.47371412614E+02 -0.19193737490E+01 -0.71581740074E+02  0.85858489625E+02  0.00000000000E+00 0. -1.
         11    1    1    2    0    0 -0.11144762869E+03 -0.35783366380E+02  0.43539944758E+02  0.12488694904E+03  0.00000000000E+00 0.  1.
</event>
<event>
 7    1  0.2873461E-009  0.7588439E+02  0.7561462E-02  0.1341154E+00
          2   -1    0    0  501    0  0.00000000000E+00  0.00000000000E+00  0.13241348370E+03  0.13241348370E+03  0.00000000000E+00 0. -1.
         -2   -1    0    0    0  501 -0.00000000000E+00 -0.00000000000E+00 -0.13325232772E+03  0.13325232772E+03  0.00000000000E+00 0.  1.
         25    2    1    2    0    0 -0.65522888808E+02  0.31334783677E+01 -0.39255236829E+02  0.14659461861E+03  0.12508373572E+03 0.  0.
          5    1    3    3  502    0 -0.20590451049E+02  0.32877114615E+01 -0.81833548112E+02  0.84551627528E+02  0.41800000000E+01 0.  1.
         -5    1    3    3    0  502 -0.44932437759E+02 -0.15423309378E+00  0.42578311283E+02  0.62042991083E+02  0.41800000000E+01 0.  1.
        -11    1    1    2    0    0  0.13303970145E+02 -0.25348817505E+02  0.53213742739E+02  0.60425661658E+02  0.00000000000E+00 0. -1.
         11    1    1    2    0    0  0.52218918664E+02  0.22215339138E+02 -0.14797349928E+02  0.58645531154E+02  0.00000000000E+00 0.  1.
</event>
<event>
 7    1  0.2873461E-009  0.1830477E+03  0.7561462E-02  0.1164886E+00
         -2   -1    0    0    0  501 -0.00000000000E+00  0.00000000000E+00  0.38219324303E+02  0.38219324303E+02  0.00000000000E+00 0.  1.
          2   -1    0    0  501    0  0.00000000000E+00 -0.00000000000E+00 -0.10039573575E+04  0.10039573575E+04  0.00000000000E+00 0. -1.
         25    2    1    2    0    0  0.13681929884E+03  0.84799588226E+02 -0.44282212664E+03  0.48749355672E+03  0.12509213128E+03 0.  0.
          5    1    3    3  502    0  0.11910541591E+03  0.28121067504E+02 -0.17792506876E+03  0.21599003920E+03  0.41800000000E+01 0. -1.
         -5    1    3    3    0  502  0.17713882928E+02  0.56678520721E+02 -0.26489705787E+03  0.27150351752E+03  0.41800000000E+01 0. -1.
        -11    1    1    2    0    0 -0.14946412235E+03 -0.71238145019E+02 -0.48484671115E+03  0.51233849210E+03  0.00000000000E+00 0. -1.
         11    1    1    2    0    0  0.12644823506E+02 -0.13561443206E+02 -0.38069195457E+02  0.42344633025E+02  0.00000000000E+00 0.  1.
</event>
<event>
 7    1  0.2873461E-009  0.1226336E+03  0.7561462E-02  0.1238815E+00
         -2   -1    0    0    0  501 -0.00000000000E+00  0.00000000000E+00  0.13386439908E+02  0.13386439908E+02  0.00000000000E+00 0.  1.
          2   -1    0    0  501    0  0.00000000000E+00 -0.00000000000E+00 -0.13283107884E+04  0.13283107884E+04  0.00000000000E+00 0. -1.
         25    2    1    2    0    0 -0.56870770995E+02  0.16270053054E+02 -0.96811389276E+03  0.97795223393E+03  0.12508822192E+03 0.  0.
          5    1    3    3  502    0 -0.12267206673E+02  0.67083292521E+02 -0.57491750330E+03  0.57896309079E+03  0.41800000000E+01 0.  1.
         -5    1    3    3    0  502 -0.44603564322E+02 -0.50813239468E+02 -0.39319638946E+03  0.39898914313E+03  0.41800000000E+01 0.  1.
        -11    1    1    2    0    0  0.78445268149E+02  0.53901225139E+01 -0.26451572922E+03  0.27595522195E+03  0.00000000000E+00 0. -1.
         11    1    1    2    0    0 -0.21574497154E+02 -0.21660175568E+02 -0.82294726552E+02  0.87789772476E+02  0.00000000000E+00 0.  1.
</event>
<event>
 7    1  0.2873461E-009  0.7260026E+02  0.7561462E-02  0.1351467E+00
          2   -1    0    0  501    0  0.00000000000E+00  0.00000000000E+00  0.22990109088E+03  0.22990109088E+03  0.00000000000E+00 0. -1.
         -2   -1    0    0    0  501 -0.00000000000E+00 -0.00000000000E+00 -0.53235926517E+02  0.53235926517E+02  0.00000000000E+00 0.  1.
         25    2    1    2    0    0 -0.15750644348E+02 -0.10113631087E+02  0.11535759878E+03  0.17118749094E+03  0.12508962038E+03 0.  0.
          5    1    3    3  502    0 -0.33333344173E+02  0.14652564687E+02  0.13151839629E+03  0.13652974199E+03  0.41800000000E+01 0. -1.
         -5    1    3    3    0  502  0.17582699825E+02 -0.24766195774E+02 -0.16160797508E+02  0.34657748950E+02  0.41800000000E+01 0. -1.
        -11    1    1    2    0    0  0.46478206820E+02  0.51113809322E+01  0.42498547401E+01  0.46951157489E+02  0.00000000000E+00 0.  1.
         11    1    1    2    0    0 -0.30727562472E+02  0.50022501543E+01  0.57057710850E+02  0.64998368976E+02  0.00000000000E+00 0. -1.
</event>
<event>
 7    1  0.2873461E-009  0.1044782E+03  0.7561462E-02  0.1271151E+00
         -2   -1    0    0    0  501 -0.00000000000E+00  0.00000000000E+00  0.12058385117E+03  0.12058385117E+03  0.00000000000E+00 0.  1.
          2   -1    0    0  501    0  0.00000000000E+00 -0.00000000000E+00 -0.17641179725E+03  0.17641179725E+03  0.00000000000E+00 0. -1.
         25    2    1    2    0    0  0.47993601689E+02 -0.79606108858E+02 -0.42386071533E+02  0.16150762617E+03  0.12509043082E+03 0.  0.
          5    1    3    3  502    0  0.10532545657E+02 -0.37362693369E+02 -0.83071739210E+02  0.91789387345E+02  0.41800000000E+01 0. -1.
         -5    1    3    3    0  502  0.37461056032E+02 -0.42243415489E+02  0.40685667677E+02  0.69718238830E+02  0.41800000000E+01 0. -1.
        -11    1    1    2    0    0  0.16234303598E+02  0.13327457209E+02  0.27431043777E+02  0.34549036045E+02  0.00000000000E+00 0.  1.
         11    1    1    2    0    0 -0.64227905286E+02  0.66278651649E+02 -0.40872918325E+02  0.10093898620E+03  0.00000000000E+00 0. -1.
</event>
<event>
 7    1  0.2873461E-009  0.1096815E+03  0.7561462E-02  0.1261161E+00
          1   -1    0    0  501    0  0.00000000000E+00  0.00000000000E+00  0.53806519738E+03  0.53806519738E+03  0.00000000000E+00 0. -1.
         -1   -1    0    0    0  501 -0.00000000000E+00 -0.00000000000E+00 -0.27158801282E+02  0.27158801282E+02  0.00000000000E+00 0.  1.
         25    2    1    2    0    0 -0.47885465371E+02  0.10534025710E+02  0.33926085554E+03  0.36491337976E+03  0.12513937483E+03 0.  0.
          5    1    3    3  502    0 -0.76112218270E+02  0.32384940256E+02  0.14185456569E+03  0.16426212081E+03  0.41800000000E+01 0.  1.
         -5    1    3    3    0  502  0.28226752899E+02 -0.21850914546E+02  0.19740628985E+03  0.20065125895E+03  0.41800000000E+01 0.  1.
        -11    1    1    2    0    0  0.66913801760E+02  0.15179010431E+02  0.94379814055E+02  0.11668508270E+03  0.00000000000E+00 0.  1.
         11    1    1    2    0    0 -0.19028336389E+02 -0.25713036140E+02  0.77265726496E+02  0.83625536197E+02  0.00000000000E+00 0. -1.
</event>
<event>
 7    1  0.2873461E-009  0.5947007E+02  0.7561462E-02  0.1400069E+00
         -2   -1    0    0    0  501 -0.00000000000E+00  0.00000000000E+00  0.31805959035E+02  0.31805959035E+02  0.00000000000E+00 0. -1.
          2   -1    0    0  501    0  0.00000000000E+00 -0.00000000000E+00 -0.38856228643E+03  0.38856228643E+03  0.00000000000E+00 0.  1.
         25    2    1    2    0    0 -0.22386216320E+02  0.37400702841E+01 -0.21315358705E+03  0.24818770884E+03  0.12509019283E+03 0.  0.
          5    1    3    3  502    0 -0.32533789757E+02  0.24477505460E+02 -0.21997795637E+03  0.22375292051E+03  0.41800000000E+01 0. -1.
         -5    1    3    3    0  502  0.10147573437E+02 -0.20737435176E+02  0.68243693179E+01  0.24434788334E+02  0.41800000000E+01 0. -1.
        -11    1    1    2    0    0  0.22445998936E+02 -0.24823350481E+02 -0.14705614215E+03  0.15081621445E+03  0.00000000000E+00 0.  1.
         11    1    1    2    0    0 -0.59782616162E-01  0.21083280197E+02  0.34534018027E+01  0.21364322171E+02  0.00000000000E+00 0. -1.
</event>
<event>
 7    1  0.2873461E-009  0.1124911E+03  0.7561462E-02  0.1256025E+00
          1   -1    0    0  501    0  0.00000000000E+00  0.00000000000E+00  0.19644679589E+03  0.19644679589E+03  0.00000000000E+00 0. -1.
         -1   -1    0    0    0  501 -0.00000000000E+00 -0.00000000000E+00 -0.10805996679E+03  0.10805996679E+03  0.00000000000E+00 0.  1.
         25    2    1    2    0    0 -0.77885772862E+02 -0.53077889555E+02  0.26468756979E+02  0.15884582609E+03  0.12509174791E+03 0.  0.
          5    1    3    3  502    0  0.81591872773E+00  0.93662180186E+00  0.58051831088E+02  0.58215380068E+02  0.41800000000E+01 0. -1.
         -5    1    3    3    0  502 -0.78701691589E+02 -0.54014511357E+02 -0.31583074109E+02  0.10063044602E+03  0.41800000000E+01 0. -1.
        -11    1    1    2    0    0  0.63653704835E+02  0.75354363275E+02  0.27767994028E+02  0.10247504914E+03  0.00000000000E+00 0.  1.
         11    1    1    2    0    0  0.14232068027E+02 -0.22276473720E+02  0.34150078092E+02  0.43185887456E+02  0.00000000000E+00 0. -1.
</event>
<event>
 7    1  0.2873461E-009  0.1949068E+03  0.7561462E-02  0.1154109E+00
          2   -1    0    0  501    0  0.00000000000E+00  0.00000000000E+00  0.12398494604E+04  0.12398494604E+04  0.00000000000E+00 0.  1.
         -2   -1    0    0    0  501 -0.00000000000E+00 -0.00000000000E+00 -0.38748324287E+02  0.38748324287E+02  0.00000000000E+00 0. -1.
         25    2    1    2    0    0  0.95348304742E+02 -0.14714866891E+03  0.45210394261E+03  0.50078859763E+03  0.12508882687E+03 0.  0.
          5    1    3    3  502    0 -0.13485308127E+02  0.21274918291E+01  0.22402652006E+01  0.14452368143E+02  0.41800000000E+01 0. -1.
         -5    1    3    3    0  502  0.10883361287E+03 -0.14927616074E+03  0.44986367741E+03  0.48633622949E+03  0.41800000000E+01 0. -1.
        -11    1    1    2    0    0 -0.10345002079E+03  0.10342521932E+03  0.68120277228E+03  0.69673230135E+03  0.00000000000E+00 0.  1.
         11    1    1    2    0    0  0.81017160505E+01  0.43723449590E+02  0.67794421234E+02  0.81076885716E+02  0.00000000000E+00 0. -1.
</event>
<event>
 7    1  0.2873461E-009  0.1283108E+03  0.7561462E-02  0.1229984E+00
         -2   -1    0    0    0  501 -0.00000000000E+00  0.00000000000E+00  0.18038063034E+02  0.18038063034E+02  0.00000000000E+00 0.  1.
          2   -1    0    0  501    0  0.00000000000E+00 -0.00000000000E+00 -0.10650597769E+04  0.10650597769E+04  0.00000000000E+00 0. -1.
         25    2    1    2    0    0  0.71678051436E+02  0.26000780338E+02 -0.73455047599E+03  0.74901593377E+03  0.12508670447E+03 0.  0.
          5    1    3    3  502    0 -0.17387265170E+02 -0.28997639114E+02 -0.94605249061E+02  0.10055250178E+03  0.41800000000E+01 0. -1.
         -5    1    3    3    0  502  0.89065316605E+02  0.54998419453E+02 -0.63994522693E+03  0.64846343200E+03  0.41800000000E+01 0. -1.
        -11    1    1    2    0    0 -0.80417501717E+01 -0.49354806048E+02 -0.14661037739E+03  0.15490374232E+03  0.00000000000E+00 0.  1.
         11    1    1    2    0    0 -0.63636301264E+02  0.23354025709E+02 -0.16586086044E+03  0.17917816379E+03  0.00000000000E+00 0. -1.
</event>
<event>
 7    1  0.2873461E-009  0.9534955E+02  0.7561462E-02  0.1290391E+00
         -2   -1    0    0    0  501 -0.00000000000E+00  0.00000000000E+00  0.35029903382E+02  0.35029903382E+02  0.00000000000E+00 0.  1.
          2   -1    0    0  501    0  0.00000000000E+00 -0.00000000000E+00 -0.35811970643E+03  0.35811970643E+03  0.00000000000E+00 0. -1.
         25    2    1    2    0    0  0.18086874738E+02 -0.16705675396E+02 -0.22778868526E+03  0.26103701454E+03  0.12508566345E+03 0.  0.
          5    1    3    3  502    0 -0.50430659872E+02  0.65489124828E+01 -0.63419047414E+02  0.81397713019E+02  0.41800000000E+01 0. -1.
         -5    1    3    3    0  502  0.68517534610E+02 -0.23254587878E+02 -0.16436963784E+03  0.17963930152E+03  0.41800000000E+01 0. -1.
        -11    1    1    2    0    0 -0.79653326952E+01 -0.23981322743E+02  0.28032094812E+01  0.25424561920E+02  0.00000000000E+00 0.  1.
         11    1    1    2    0    0 -0.10121542043E+02  0.40686998138E+02 -0.98104327272E+02  0.10668803335E+03  0.00000000000E+00 0. -1.
</event>
<event>
 7    1  0.2873461E-009  0.1456142E+03  0.7561462E-02  0.1205968E+00
         -2   -1    0    0    0  501 -0.00000000000E+00  0.00000000000E+00  0.11299808853E+03  0.11299808853E+03  0.00000000000E+00 0. -1.
          2   -1    0    0  501    0  0.00000000000E+00 -0.00000000000E+00 -0.31869393702E+03  0.31869393702E+03  0.00000000000E+00 0.  1.
         25    2    1    2    0    0 -0.91799821220E+02 -0.43259789353E+02 -0.24266621643E+03  0.29125386222E+03  0.12507319102E+03 0.  0.
          5    1    3    3  502    0 -0.11456969525E+02 -0.69939400519E+02 -0.14825528942E+03  0.16437726466E+03  0.41800000000E+01 0.  1.
         -5    1    3    3    0  502 -0.80342851695E+02  0.26679611166E+02 -0.94410927010E+02  0.12687659756E+03  0.41800000000E+01 0.  1.
        -11    1    1    2    0    0 -0.83414938485E+01  0.33882659130E+02  0.10300934338E+02  0.36383022931E+02  0.00000000000E+00 0.  1.
         11    1    1    2    0    0  0.10014131507E+03  0.93771302224E+01  0.26669433604E+02  0.10405514040E+03  0.00000000000E+00 0. -1.
</event>
<event>
 7    1  0.2873461E-009  0.1098014E+03  0.7561462E-02  0.1260938E+00
         -2   -1    0    0    0  501 -0.00000000000E+00  0.00000000000E+00  0.24909231017E+02  0.24909231017E+02  0.00000000000E+00 0.  1.
          2   -1    0    0  501    0  0.00000000000E+00 -0.00000000000E+00 -0.61406860972E+03  0.61406860972E+03  0.00000000000E+00 0. -1.
         25    2    1    2    0    0  0.42634913004E+02 -0.14480194210E+01 -0.36881434506E+03  0.39178018986E+03  0.12509142047E+03 0.  0.
          5    1    3    3  502    0 -0.66291287975E+01  0.47259629277E+02 -0.24681500597E+03  0.25142103627E+03  0.41800000000E+01 0. -1.
         -5    1    3    3    0  502  0.49264041801E+02 -0.48707648698E+02 -0.12199933909E+03  0.14035915358E+03  0.41800000000E+01 0. -1.
        -11    1    1    2    0    0 -0.33560149366E+02  0.45936432325E+02 -0.70311060138E+02  0.90443820231E+02  0.00000000000E+00 0.  1.
         11    1    1    2    0    0 -0.90747636381E+01 -0.44488412904E+02 -0.15003397350E+03  0.15675383065E+03  0.00000000000E+00 0. -1.
</event>
<event>
 7    1  0.2873461E-009  0.9469890E+02  0.7561462E-02  0.1291856E+00
          2   -1    0    0  501    0  0.00000000000E+00  0.00000000000E+00  0.15941455251E+04  0.15941455251E+04  0.00000000000E+00 0. -1.
         -2   -1    0    0    0  501 -0.00000000000E+00 -0.00000000000E+00 -0.82527797905E+01  0.82527797905E+01  0.00000000000E+00 0.  1.
         25    2    1    2    0    0 -0.23787388940E+02  0.53972710324E+01  0.10180190477E+04  0.10259639258E+04  0.12507687765E+03 0.  0.
          5    1    3    3  502    0 -0.15488100180E+01  0.44792301734E+02  0.14645196354E+03  0.15321357359E+03  0.41800000000E+01 0.  1.
         -5    1    3    3    0  502 -0.22238578922E+02 -0.39395030702E+02  0.87156708411E+03  0.87275035224E+03  0.41800000000E+01 0.  1.
        -11    1    1    2    0    0  0.26886406992E+02 -0.48652305505E+02  0.31295550877E+03  0.31785385978E+03  0.00000000000E+00 0. -1.
         11    1    1    2    0    0 -0.30990180527E+01  0.43255034472E+02  0.25491818887E+03  0.25858051925E+03  0.00000000000E+00 0.  1.
</event>
<event>
 7    1  0.2873461E-009  0.1166213E+03  0.7561462E-02  0.1248777E+00
          2   -1    0    0  501    0  0.00000000000E+00  0.00000000000E+00  0.67143152718E+03  0.67143152718E+03  0.00000000000E+00 0. -1.
         -2   -1    0    0    0  501 -0.00000000000E+00 -0.00000000000E+00 -0.30373469714E+02  0.30373469714E+02  0.00000000000E+00 0.  1.
         25    2    1    2    0    0  0.42619578061E+02  0.47154144220E+02  0.51732912365E+03  0.53601925718E+03  0.12508908881E+03 0.  0.
          5    1    3    3  502    0 -0.33690095312E+02 -0.11140326668E+02  0.23679391710E+03  0.23947434304E+03  0.41800000000E+01 0.  1.
         -5    1    3    3    0  502  0.76309673373E+02  0.58294470887E+02  0.28053520655E+03  0.29654491414E+03  0.41800000000E+01 0.  1.
        -11    1    1    2    0    0 -0.65754497645E+02 -0.40868735410E+02  0.60786196924E+02  0.98432053880E+02  0.00000000000E+00 0.  1.
         11    1    1    2    0    0  0.23134919584E+02 -0.62854088096E+01  0.62942736888E+02  0.67353685831E+02  0.00000000000E+00 0. -1.
</event>
<event>
 7    1  0.2873461E-009  0.1064894E+03  0.7561462E-02  0.1267213E+00
         -1   -1    0    0    0  501 -0.00000000000E+00  0.00000000000E+00  0.27799986317E+03  0.27799986317E+03  0.00000000000E+00 0.  1.
          1   -1    0    0  501    0  0.00000000000E+00 -0.00000000000E+00 -0.59700470149E+02  0.59700470149E+02  0.00000000000E+00 0. -1.
         25    2    1    2    0    0  0.37114662895E+02 -0.55503327741E+02  0.96599937458E+02  0.17159934441E+03  0.12512661385E+03 0.  0.
          5    1    3    3  502    0 -0.22082634625E+02 -0.30749616768E+02 -0.16492884375E+02  0.41505051721E+02  0.41800000000E+01 0.  1.
         -5    1    3    3    0  502  0.59197297520E+02 -0.24753710973E+02  0.11309282183E+03  0.13009429269E+03  0.41800000000E+01 0.  1.
        -11    1    1    2    0    0 -0.31399396352E+02 -0.18448977566E+02  0.24750992931E+02  0.44032925358E+02  0.00000000000E+00 0. -1.
         11    1    1    2    0    0 -0.57152665428E+01  0.73952305307E+02  0.96948462628E+02  0.12206806355E+03  0.00000000000E+00 0.  1.
</event>
<event>
 7    1  0.2873461E-009  0.1186211E+03  0.7561462E-02  0.1245389E+00
          2   -1    0    0  501    0  0.00000000000E+00  0.00000000000E+00  0.17290190846E+03  0.17290190846E+03  0.00000000000E+00 0. -1.
         -2   -1    0    0    0  501 -0.00000000000E+00 -0.00000000000E+00 -0.10431556097E+03  0.10431556097E+03  0.00000000000E+00 0.  1.
         25    2    1    2    0    0  0.50487454829E+02  0.31135507627E+02  0.92434235353E+02  0.16646212023E+03  0.12508855533E+03 0.  0.
          5    1    3    3  502    0  0.18637349498E+01 -0.44859299592E+02  0.15077487650E+02  0.47546117630E+02  0.41800000000E+01 0. -1.
         -5    1    3    3    0  502  0.48623719879E+02  0.75994807219E+02  0.77356747702E+02  0.11891600260E+03  0.41800000000E+01 0. -1.
        -11    1    1    2    0    0  0.21575112885E+02  0.35388995515E+01 -0.21628321790E+02  0.30753757648E+02  0.00000000000E+00 0.  1.
         11    1    1    2    0    0 -0.72062567714E+02 -0.34674407178E+02 -0.22195660716E+01  0.80001591560E+02  0.00000000000E+00 0. -1.
</event>
<event>
 7    1  0.2873461E-009  0.1064007E+03  0.7561462E-02  0.1267384E+00
         -2   -1    0    0    0  501 -0.00000000000E+00  0.00000000000E+00  0.28637424919E+02  0.28637424919E+02  0.00000000000E+00 0.  1.
          2   -1    0    0  501    0  0.00000000000E+00 -0.00000000000E+00 -0.50566937480E+03  0.50566937480E+03  0.00000000000E+00 0. -1.
         25    2    1    2    0    0 -0.19488571380E+02  0.47514784243E+02 -0.26032315275E+03  0.29334712852E+03  0.12508770850E+03 0.  0.
          5    1    3    3  502    0 -0.55375388807E+02  0.45289542626E+02 -0.24275596242E+03  0.25311164739E+03  0.41800000000E+01 0.  1.
         -5    1    3    3    0  502  0.35886817427E+02  0.22252416167E+01 -0.17567190331E+02  0.40235481126E+02  0.41800000000E+01 0.  1.
        -11    1    1    2    0    0  0.26555332639E+02  0.22358631070E+02 -0.81925928314E+02  0.88977254425E+02  0.00000000000E+00 0.  1.
         11    1    1    2    0    0 -0.70667612593E+01 -0.69873415312E+02 -0.13478286882E+03  0.15198241678E+03  0.00000000000E+00 0. -1.
</event>
<event>
 7    1  0.2873461E-009  0.1198624E+03  0.7561462E-02  0.1243324E+00
          1   -1    0    0  501    0  0.00000000000E+00  0.00000000000E+00  0.59220930382E+02  0.59220930382E+02  0.00000000000E+00 0. -1.
         -1   -1    0    0    0  501 -0.00000000000E+00 -0.00000000000E+00 -0.33900973982E+03  0.33900973982E+03  0.00000000000E+00 0.  1.
         25    2    1    2    0    0  0.83631806193E+02  0.73977287281E+01 -0.10331639722E+03  0.18267567998E+03  0.12508845160E+03 0.  0.
          5    1    3    3  502    0  0.10055504130E+03  0.61726958073E+01 -0.12120871155E+03  0.15766560392E+03  0.41800000000E+01 0.  1.
         -5    1    3    3    0  502 -0.16923235105E+02  0.12250329208E+01  0.17892314334E+02  0.25010076055E+02  0.41800000000E+01 0.  1.
        -11    1    1    2    0    0  0.18780504939E+02 -0.12953412288E+01 -0.45083312005E+02  0.48855811281E+02  0.00000000000E+00 0.  1.
         11    1    1    2    0    0 -0.10241231113E+03 -0.61023874993E+01 -0.13138910021E+03  0.16669917894E+03  0.00000000000E+00 0. -1.
</event>
<event>
 7    1  0.2873461E-009  0.1222039E+03  0.7561462E-02  0.1239505E+00
         -1   -1    0    0    0  501 -0.00000000000E+00  0.00000000000E+00  0.13335450476E+03  0.13335450476E+03  0.00000000000E+00 0.  1.
          1   -1    0    0  501    0  0.00000000000E+00 -0.00000000000E+00 -0.26180865480E+03  0.26180865480E+03  0.00000000000E+00 0. -1.
         25    2    1    2    0    0 -0.60889456583E+02  0.67262459193E+02 -0.19903237501E+03  0.25198696563E+03  0.12510707497E+03 0.  0.
          5    1    3    3  502    0 -0.58151019058E+02 -0.18257564013E+02 -0.45509511869E+02  0.76180494431E+02  0.41800000000E+01 0. -1.
         -5    1    3    3    0  502 -0.27384375252E+01  0.85520023206E+02 -0.15352286314E+03  0.17580647120E+03  0.41800000000E+01 0. -1.
        -11    1    1    2    0    0  0.17926484727E+02 -0.46692779170E+02  0.80260210449E+02  0.94568894794E+02  0.00000000000E+00 0.  1.
         11    1    1    2    0    0  0.42962971856E+02 -0.20569680023E+02 -0.96819854801E+01  0.48607299141E+02  0.00000000000E+00 0. -1.
</event>
<event>
 6    1  0.2873461E-009  0.1299606E+03  0.7561462E-02  0.1227514E+00
          1   -1    0    0  501    0  0.00000000000E+00  0.00000000000E+00  0.38784329881E+03  0.38784329881E+03  0.00000000000E+00 0. -1.
         -1   -1    0    0    0  501 -0.00000000000E+00 -0.00000000000E+00 -0.60586563799E+02  0.60586563799E+02  0.00000000000E+00 0.  1.
          5    1    1    2  502    0 -0.90772039667E+02 -0.41123497315E+02  0.79211458826E+02  0.12736809972E+03  0.41800000000E+01 0.  1.
         -5    1    1    2    0  502  0.34323447914E+02 -0.17460953085E+02 -0.55884065234E+01  0.39136768477E+02  0.41800000000E+01 0.  1.
        -11    1    1    2    0    0  0.20661857987E+02 -0.23863341175E+02  0.87782841548E+02  0.93285576043E+02  0.00000000000E+00 0.  1.
         11    1    1    2    0    0  0.35786733766E+02  0.82447791575E+02  0.16585084116E+03  0.18863941837E+03  0.00000000000E+00 0. -1.
</event>
<event>
 7    1  0.2873461E-009  0.1272156E+03  0.7561462E-02  0.1231647E+00
          1   -1    0    0  501    0  0.00000000000E+00  0.00000000000E+00  0.72884281832E+03  0.72884281832E+03  0.00000000000E+00 0. -1.
         -1   -1    0    0    0  501 -0.00000000000E+00 -0.00000000000E+00 -0.26151785912E+02  0.26151785912E+02  0.00000000000E+00 0.  1.
         25    2    1    2    0    0  0.24865853787E+02  0.77245410277E+02  0.39292431769E+03  0.42026434301E+03  0.12508970573E+03 0.  0.
          5    1    3    3  502    0 -0.43308624657E+02 -0.12718987005E+00  0.84736934208E+02  0.95254782378E+02  0.41800000000E+01 0. -1.
         -5    1    3    3    0  502  0.68174478444E+02  0.77372600147E+02  0.30818738349E+03  0.32500956064E+03  0.41800000000E+01 0. -1.
        -11    1    1    2    0    0 -0.44448796566E+02 -0.23010755530E+02  0.23521519753E+03  0.24048155758E+03  0.00000000000E+00 0.  1.
         11    1    1    2    0    0  0.19582942779E+02 -0.54234654747E+02  0.74551517186E+02  0.94248703642E+02  0.00000000000E+00 0. -1.
</event>
<event>
 7    1  0.2873461E-009  0.8134359E+02  0.7561462E-02  0.1325281E+00
         -2   -1    0    0    0  501 -0.00000000000E+00  0.00000000000E+00  0.22127135946E+02  0.22127135946E+02  0.00000000000E+00 0.  1.
          2   -1    0    0  501    0  0.00000000000E+00 -0.00000000000E+00 -0.61586877534E+03  0.61586877534E+03  0.00000000000E+00 0. -1.
         25    2    1    2    0    0 -0.27453233855E+02 -0.37575290869E+02 -0.36507428796E+03  0.38871467130E+03  0.12511705486E+03 0.  0.
          5    1    3    3  502    0 -0.53201670445E+02  0.36223223002E+01 -0.62618449327E+02  0.82353394302E+02  0.41800000000E+01 0.  1.
         -5    1    3    3    0  502  0.25748436590E+02 -0.41197613169E+02 -0.30245583864E+03  0.30636127700E+03  0.41800000000E+01 0.  1.
        -11    1    1    2    0    0  0.48028903548E+01  0.37480083940E+02 -0.22266558047E+03  0.22584903182E+03  0.00000000000E+00 0. -1.
         11    1    1    2    0    0  0.22650343500E+02  0.95206928708E-01 -0.60017709612E+01  0.23432208169E+02  0.00000000000E+00 0.  1.
</event>
<event>
 6    1  0.2873461E-009  0.1506993E+03  0.7561462E-02  0.1199616E+00
         -2   -1    0    0    0  501 -0.00000000000E+00  0.00000000000E+00  0.25520098339E+02  0.25520098339E+02  0.00000000000E+00 0.  1.
          2   -1    0    0  501    0  0.00000000000E+00 -0.00000000000E+00 -0.12905572315E+04  0.12905572315E+04  0.00000000000E+00 0. -1.
          5    1    1    2  502    0  0.59663350529E+02  0.40965504852E+02 -0.60839458412E+03  0.61269840082E+03  0.41800000000E+01 0. -1.
         -5    1    1    2    0  502  0.17821667489E+02  0.77303351726E+02 -0.16097790940E+03  0.17951261720E+03  0.41800000000E+01 0. -1.
        -11    1    1    2    0    0 -0.63851445859E+02 -0.53579709490E+02 -0.39311042147E+03  0.40185021573E+03  0.00000000000E+00 0.  1.
         11    1    1    2    0    0 -0.13633572159E+02 -0.64689147088E+02 -0.10255421816E+03  0.12201609609E+03  0.00000000000E+00 0. -1.
</event>
<event>
 7    1  0.2873461E-009  0.1714598E+03  0.7561462E-02  0.1176334E+00
          1   -1    0    0  501    0  0.00000000000E+00  0.00000000000E+00  0.69855130508E+02  0.69855130508E+02  0.00000000000E+00 0. -1.
         -1   -1    0    0    0  501 -0.00000000000E+00 -0.00000000000E+00 -0.52446968772E+03  0.52446968772E+03  0.00000000000E+00 0.  1.
         25    2    1    2    0    0  0.13605050716E+03 -0.32207482452E+02 -0.35732898755E+03  0.40358315000E+03  0.12509313010E+03 0.  0.
          5    1    3    3  502    0 -0.22162174861E+02  0.46920427203E+01 -0.27365202940E+02  0.35770155038E+02  0.41800000000E+01 0. -1.
         -5    1    3    3    0  502  0.15821268202E+03 -0.36899525172E+02 -0.32996378461E+03  0.36781299496E+03  0.41800000000E+01 0. -1.
        -11    1    1    2    0    0 -0.12894551535E+03  0.49932043858E+02 -0.10106896777E+03  0.17127489944E+03  0.00000000000E+00 0.  1.
         11    1    1    2    0    0 -0.71049918132E+01 -0.17724561406E+02  0.37833981060E+01  0.19466768785E+02  0.00000000000E+00 0. -1.
</event>
<event>
 7    1  0.2873461E-009  0.2051577E+03  0.7561462E-02  0.1145459E+00
         -2   -1    0    0    0  501 -0.00000000000E+00  0.00000000000E+00  0.10703372753E+03  0.10703372753E+03  0.00000000000E+00 0.  1.
          2   -1    0    0  501    0  0.00000000000E+00 -0.00000000000E+00 -0.90213708879E+03  0.90213708879E+03  0.00000000000E+00 0. -1.
         25    2    1    2    0    0 -0.17913347517E+03 -0.40950294763E+02 -0.77107111831E+03  0.80247372503E+03  0.12509069230E+03 0.  0.
          5    1    3    3  502    0 -0.13843320386E+03 -0.83812468863E+02 -0.59882994268E+03  0.62032495881E+03  0.41800000000E+01 0.  1.
         -5    1    3    3    0  502 -0.40700271308E+02  0.42862174100E+02 -0.17224117563E+03  0.18214876622E+03  0.41800000000E+01 0.  1.
        -11    1    1    2    0    0  0.82407693005E+02  0.41899895736E+02  0.28345831517E+02  0.96695994195E+02  0.00000000000E+00 0.  1.
         11    1    1    2    0    0  0.96725782166E+02 -0.94960097322E+00 -0.52378074463E+02  0.11000109710E+03  0.00000000000E+00 0. -1.
</event>
<event>
 7    1  0.2873461E-009  0.1034901E+03  0.7561462E-02  0.1273123E+00
         -2   -1    0    0    0  501 -0.00000000000E+00  0.00000000000E+00  0.72923091401E+02  0.72923091401E+02  0.00000000000E+00 0.  1.
          2   -1    0    0  501    0  0.00000000000E+00 -0.00000000000E+00 -0.19911312179E+03  0.19911312179E+03  0.00000000000E+00 0. -1.
         25    2    1    2    0    0 -0.13688202931E+02  0.37416223571E+02 -0.32485339648E+02  0.13524288720E+03  0.12509196840E+03 0.  0.
          5    1    3    3  502    0 -0.36549326563E+02 -0.22912738691E+02 -0.52017512173E+02  0.67706283602E+02  0.41800000000E+01 0.  1.
         -5    1    3    3    0  502  0.22861123631E+02  0.60328962263E+02  0.19532172526E+02  0.67536603593E+02  0.41800000000E+01 0.  1.
        -11    1    1    2    0    0  0.52028062381E+02 -0.29609279997E+02 -0.64272184492E+02  0.87832468008E+02  0.00000000000E+00 0.  1.
         11    1    1    2    0    0 -0.38339859449E+02 -0.78069435743E+01 -0.29432506247E+02  0.48960857984E+02  0.00000000000E+00 0. -1.
</event>
<event>
 7    1  0.2873461E-009  0.1085002E+03  0.7561462E-02  0.1263373E+00
         -1   -1    0    0    0  501 -0.00000000000E+00  0.00000000000E+00  0.10399287350E+03  0.10399287350E+03  0.00000000000E+00 0.  1.
          1   -1    0    0  501    0  0.00000000000E+00 -0.00000000000E+00 -0.17018566074E+03  0.17018566074E+03  0.00000000000E+00 0. -1.
         25    2    1    2    0    0 -0.99429519451E+01  0.77200025307E+02 -0.24520750947E+02  0.14935568609E+03  0.12508855879E+03 0.  0.
          5    1    3    3  502    0 -0.29457763711E+02  0.10229999501E+03  0.37515786258E+01  0.10660485713E+03  0.41800000000E+01 0. -1.
         -5    1    3    3    0  502  0.19514811766E+02 -0.25099969703E+02 -0.28272329573E+02  0.42750828960E+02  0.41800000000E+01 0. -1.
        -11    1    1    2    0    0  0.39292329637E+01 -0.60792697337E+02  0.17290140405E+02  0.63325665227E+02  0.00000000000E+00 0.  1.
         11    1    1    2    0    0  0.60137189814E+01 -0.16407327970E+02 -0.58962176693E+02  0.61497182923E+02  0.00000000000E+00 0. -1.
</event>
<event>
 7    1  0.2873461E-009  0.1106165E+03  0.7561462E-02  0.1259432E+00
         -1   -1    0    0    0  501 -0.00000000000E+00  0.00000000000E+00  0.17015760108E+03  0.17015760108E+03  0.00000000000E+00 0.  1.
          1   -1    0    0  501    0  0.00000000000E+00 -0.00000000000E+00 -0.88502837944E+02  0.88502837944E+02  0.00000000000E+00 0. -1.
         25    2    1    2    0    0  0.16353421661E+02  0.50538232043E+02  0.70092550326E+02  0.15291674854E+03  0.12509603940E+03 0.  0.
          5    1    3    3  502    0  0.36337636407E+02 -0.22789268188E+02 -0.80370449625E+01  0.43838807648E+02  0.41800000000E+01 0.  1.
         -5    1    3    3    0  502 -0.19984214746E+02  0.73327500231E+02  0.78129595288E+02  0.10907794089E+03  0.41800000000E+01 0.  1.
        -11    1    1    2    0    0 -0.52471548223E+02 -0.31306991538E+02 -0.56288795857E+01  0.61360210051E+02  0.00000000000E+00 0. -1.
         11    1    1    2    0    0  0.36118126562E+02 -0.19231240505E+02  0.17191092397E+02  0.44383480435E+02  0.00000000000E+00 0.  1.
</event>
<event>
 7    1  0.2873461E-009  0.1252579E+03  0.7561462E-02  0.1234667E+00
          4   -1    0    0  501    0  0.00000000000E+00  0.00000000000E+00  0.21258349835E+02  0.21258349835E+02  0.00000000000E+00 0. -1.
         -4   -1    0    0    0  501 -0.00000000000E+00 -0.00000000000E+00 -0.97056936480E+03  0.97056936480E+03  0.00000000000E+00 0.  1.
         25    2    1    2    0    0 -0.67912093382E+02  0.64445990170E+02 -0.51253885437E+03  0.53582606853E+03  0.12509260730E+03 0.  0.
          5    1    3    3  502    0 -0.56210226019E+02  0.10196348583E+03 -0.36997216072E+03  0.38788273235E+03  0.41800000000E+01 0. -1.
         -5    1    3    3    0  502 -0.11701867363E+02 -0.37517495660E+02 -0.14256669365E+03  0.14794333618E+03  0.41800000000E+01 0. -1.
        -11    1    1    2    0    0  0.56711360886E+02 -0.46518792549E+02 -0.42601487471E+03  0.43228329830E+03  0.00000000000E+00 0.  1.
         11    1    1    2    0    0  0.11200732495E+02 -0.17927197621E+02 -0.10757285884E+02  0.23718347804E+02  0.00000000000E+00 0. -1.
</event>
<event>
 7    1  0.2873461E-009  0.1027564E+03  0.7561462E-02  0.1274604E+00
         -2   -1    0    0    0  501 -0.00000000000E+00  0.00000000000E+00  0.45337890079E+02  0.45337890079E+02  0.00000000000E+00 0.  1.
          2   -1    0    0  501    0  0.00000000000E+00 -0.00000000000E+00 -0.35736732167E+03  0.35736732167E+03  0.00000000000E+00 0. -1.
         25    2    1    2    0    0  0.23882279595E+02  0.58599558698E+02 -0.13511985783E+03  0.19470037718E+03  0.12508632754E+03 0.  0.
          5    1    3    3  502    0  0.53533679682E+02  0.41843441902E+02 -0.14909600111E+02  0.69688571990E+02  0.41800000000E+01 0.  1.
         -5    1    3    3    0  502 -0.29651400087E+02  0.16756116795E+02 -0.12021025771E+03  0.12501180519E+03  0.41800000000E+01 0.  1.
        -11    1    1    2    0    0  0.16644314578E+02 -0.60306622075E+02 -0.13923840765E+03  0.15264748946E+03  0.00000000000E+00 0. -1.
         11    1    1    2    0    0 -0.40526594173E+02  0.17070633778E+01 -0.37671166114E+02  0.55357345105E+02  0.00000000000E+00 0.  1.
</event>
<event>
 7    1  0.2932237E-009  0.1250749E+03  0.7561462E-02  0.1234952E+00
         -1   -1    0    0    0  501 -0.00000000000E+00  0.00000000000E+00  0.59850295358E+02  0.59850295358E+02  0.00000000000E+00 0.  1.
          1   -1    0    0  501    0  0.00000000000E+00 -0.00000000000E+00 -0.32409487528E+03  0.32409487528E+03  0.00000000000E+00 0. -1.
         25    2    1    2    0    0 -0.59217785548E+02  0.61091102525E+02 -0.16869710609E+03  0.22659549325E+03  0.12509170646E+03 0.  0.
          5    1    3    3  502    0 -0.13601097441E+02  0.86447560666E+02 -0.14434377835E+03  0.16885132319E+03  0.41800000000E+01 0.  1.
         -5    1    3    3    0  502 -0.45616688108E+02 -0.25356458141E+02 -0.24353327742E+02  0.57744170056E+02  0.41800000000E+01 0.  1.
        -11    1    1    2    0    0  0.70786062829E+02 -0.29768023139E+02 -0.27526957742E+02  0.81575335089E+02  0.00000000000E+00 0.  1.
         11    1    1    2    0    0 -0.11568277280E+02 -0.31323079386E+02 -0.68020516086E+02  0.75774342294E+02  0.00000000000E+00 0. -1.
</event>
<event>
 7    1  0.2873461E-009  0.1758718E+03  0.7561462E-02  0.1171859E+00
         -2   -1    0    0    0  501 -0.00000000000E+00  0.00000000000E+00  0.44647363308E+02  0.44647363308E+02  0.00000000000E+00 0.  1.
          2   -1    0    0  501    0  0.00000000000E+00 -0.00000000000E+00 -0.10900868701E+04  0.10900868701E+04  0.00000000000E+00 0. -1.
         25    2    1    2    0    0  0.37347031024E+02 -0.16134388675E+03 -0.29417946919E+03  0.36001967955E+03  0.12508380811E+03 0.  0.
          5    1    3    3  502    0  0.51649473290E+02 -0.44679446043E+02 -0.19336325761E+03  0.20511153742E+03  0.41800000000E+01 0. -1.
         -5    1    3    3    0  502 -0.14302442266E+02 -0.11666444070E+03 -0.10081621158E+03  0.15490814213E+03  0.41800000000E+01 0. -1.
        -11    1    1    2    0    0 -0.15456621134E+02  0.54611055047E+02 -0.10521986066E+03  0.11955121726E+03  0.00000000000E+00 0.  1.
         11    1    1    2    0    0 -0.21890409890E+02  0.10673283170E+03 -0.64604017692E+03  0.65516333658E+03  0.00000000000E+00 0. -1.
</event>
<event>
 7    1  0.2873461E-009  0.1155561E+03  0.7561462E-02  0.1250614E+00
          2   -1    0    0  501    0  0.00000000000E+00  0.00000000000E+00  0.81910821094E+03  0.81910821094E+03  0.00000000000E+00 0.  1.
         -2   -1    0    0    0  501 -0.00000000000E+00 -0.00000000000E+00 -0.37127500690E+02  0.37127500690E+02  0.00000000000E+00 0. -1.
         25    2    1    2    0    0  0.79534530030E+02 -0.80587509252E+02  0.59883540623E+03  0.62215045104E+03  0.12508897580E+03 0.  0.
          5    1    3    3  502    0  0.63408977335E+02 -0.72750660694E+02  0.19229473169E+03  0.21519315341E+03  0.41800000000E+01 0. -1.
         -5    1    3    3    0  502  0.16125552695E+02 -0.78368485578E+01  0.40654067453E+03  0.40695729763E+03  0.41800000000E+01 0. -1.
        -11    1    1    2    0    0 -0.66266784417E+02  0.50802399026E+02  0.18336090311E+03  0.20147801680E+03  0.00000000000E+00 0.  1.
         11    1    1    2    0    0 -0.13267745613E+02  0.29785110226E+02 -0.21559908242E+00  0.32607243794E+02  0.00000000000E+00 0. -1.
</event>
<event>
 7    1  0.2873461E-009  0.3002435E+03  0.7561462E-02  0.1085119E+00
         -2   -1    0    0    0  501 -0.00000000000E+00  0.00000000000E+00  0.18300326471E+03  0.18300326471E+03  0.00000000000E+00 0. -1.
          2   -1    0    0  501    0  0.00000000000E+00 -0.00000000000E+00 -0.67782144647E+03  0.67782144647E+03  0.00000000000E+00 0.  1.
         25    2    1    2    0    0 -0.27233014670E+03  0.12028574837E+03 -0.62584908670E+02  0.32893553968E+03  0.12509735574E+03 0.  0.
          5    1    3    3  502    0 -0.10212418974E+03  0.19780516280E+02 -0.78794945060E+02  0.13056314458E+03  0.41800000000E+01 0. -1.
         -5    1    3    3    0  502 -0.17020595695E+03  0.10050523209E+03  0.16210036390E+02  0.19837239511E+03  0.41800000000E+01 0. -1.
        -11    1    1    2    0    0  0.10191043416E+03 -0.57782042206E+02 -0.24246478570E+03  0.26928362983E+03  0.00000000000E+00 0.  1.
         11    1    1    2    0    0  0.17041971253E+03 -0.62503706164E+02 -0.18976848739E+03  0.26260554166E+03  0.00000000000E+00 0. -1.
</event>
<event>
 7    1  0.2873461E-009  0.1243130E+03  0.7561462E-02  0.1236147E+00
         -2   -1    0    0    0  501 -0.00000000000E+00  0.00000000000E+00  0.20164012620E+03  0.20164012620E+03  0.00000000000E+00 0.  1.
          2   -1    0    0  501    0  0.00000000000E+00 -0.00000000000E+00 -0.96752754862E+02  0.96752754862E+02  0.00000000000E+00 0. -1.
         25    2    1    2    0    0  0.55386526883E+02 -0.54197973912E+02  0.12161432087E+02  0.14764943808E+03  0.12508944159E+03 0.  0.
          5    1    3    3  502    0  0.63898817419E+02  0.23072830321E+02 -0.38317662708E+01  0.68173082659E+02  0.41800000000E+01 0. -1.
         -5    1    3    3    0  502 -0.85122905359E+01 -0.77270804233E+02  0.15993198358E+02  0.79476355419E+02  0.41800000000E+01 0. -1.
        -11    1    1    2    0    0 -0.71231585735E+02  0.46743495040E+02  0.10035430007E+03  0.13164299707E+03  0.00000000000E+00 0.  1.
         11    1    1    2    0    0  0.15845058852E+02  0.74544788712E+01 -0.76283608210E+01  0.19100445913E+02  0.00000000000E+00 0. -1.
</event>
<event>
 7    1  0.2873461E-009  0.1020659E+03  0.7561462E-02  0.1276011E+00
         -2   -1    0    0    0  501 -0.00000000000E+00  0.00000000000E+00  0.22415826601E+02  0.22415826601E+02  0.00000000000E+00 0.  1.
          2   -1    0    0  501    0  0.00000000000E+00 -0.00000000000E+00 -0.65274612137E+03  0.65274612137E+03  0.00000000000E+00 0. -1.
         25    2    1    2    0    0  0.13600268858E+02  0.42318043435E+02 -0.44101317619E+03  0.46056070869E+03  0.12509100969E+03 0.  0.
          5    1    3    3  502    0  0.46530994461E+02  0.71284294640E+02 -0.33682316377E+03  0.34743905963E+03  0.41800000000E+01 0. -1.
         -5    1    3    3    0  502 -0.32930725603E+02 -0.28966251205E+02 -0.10419001242E+03  0.11312164906E+03  0.41800000000E+01 0. -1.
        -11    1    1    2    0    0 -0.22257397878E+02 -0.55090209158E+02 -0.19008271360E+03  0.19915260710E+03  0.00000000000E+00 0. -1.
         11    1    1    2    0    0  0.86571290205E+01  0.12772165723E+02  0.76559503088E+00  0.15448632169E+02  0.00000000000E+00 0.  1.
</event>
<event>
 7    1  0.2873461E-009  0.1261052E+03  0.7561462E-02  0.1233352E+00
          2   -1    0    0  501    0  0.00000000000E+00  0.00000000000E+00  0.92012404832E+03  0.92012404832E+03  0.00000000000E+00 0. -1.
         -2   -1    0    0    0  501 -0.00000000000E+00 -0.00000000000E+00 -0.30750096388E+02  0.30750096388E+02  0.00000000000E+00 0.  1.
         25    2    1    2    0    0 -0.10110962184E+03 -0.59308046135E+02  0.61828886115E+03  0.64161471502E+03  0.12509087392E+03 0.  0.
          5    1    3    3  502    0 -0.10806368363E+03 -0.55490605258E+02  0.30686029190E+03  0.33005708315E+03  0.41800000000E+01 0.  1.
         -5    1    3    3    0  502  0.69540617916E+01 -0.38174408764E+01  0.31142856925E+03  0.31155763186E+03  0.41800000000E+01 0.  1.
        -11    1    1    2    0    0  0.54479401202E+02  0.13070428300E+02  0.21721091673E+03  0.22431991351E+03  0.00000000000E+00 0. -1.
         11    1    1    2    0    0  0.46630220634E+02  0.46237617835E+02  0.53874174056E+02  0.84939516185E+02  0.00000000000E+00 0.  1.
</event>
<event>
 7    1  0.2873461E-009  0.1110378E+03  0.7561462E-02  0.1258660E+00
         -3   -1    0    0    0  501 -0.00000000000E+00  0.00000000000E+00  0.75092729161E+03  0.75092729161E+03  0.00000000000E+00 0.  1.
          3   -1    0    0  501    0  0.00000000000E+00 -0.00000000000E+00 -0.22371841579E+02  0.22371841579E+02  0.00000000000E+00 0. -1.
         25    2    1    2    0    0  0.48629064381E+02  0.46832620128E+02  0.47255823682E+03  0.49347422434E+03  0.12508973854E+03 0.  0.
          5    1    3    3  502    0 -0.13351190129E+02 -0.15662671169E+02  0.29002782769E+03  0.29078718469E+03  0.41800000000E+01 0. -1.
         -5    1    3    3    0  502  0.61980254510E+02  0.62495291297E+02  0.18253040913E+03  0.20268703965E+03  0.41800000000E+01 0. -1.
        -11    1    1    2    0    0 -0.66673193057E+02 -0.60726715636E+02  0.20150440515E+03  0.22076474800E+03  0.00000000000E+00 0.  1.
         11    1    1    2    0    0  0.18044128676E+02  0.13894095508E+02  0.54492808068E+02  0.59060160860E+02  0.00000000000E+00 0. -1.
</event>
<event>
 7    1  0.2873461E-009  0.1017295E+03  0.7561462E-02  0.1276701E+00
         -2   -1    0    0    0  501 -0.00000000000E+00  0.00000000000E+00  0.34912878690E+02  0.34912878690E+02  0.00000000000E+00 0.  1.
          2   -1    0    0  501    0  0.00000000000E+00 -0.00000000000E+00 -0.43185382118E+03  0.43185382118E+03  0.00000000000E+00 0. -1.
         25    2    1    2    0    0 -0.59062090438E+02  0.21944686407E+02 -0.23856509661E+03  0.27664102461E+03  0.12508817445E+03 0.  0.
          5    1    3    3  502    0 -0.92210500849E+02  0.14168657366E+02 -0.21668805434E+03  0.23595489529E+03  0.41800000000E+01 0. -1.
         -5    1    3    3    0  502  0.33148410411E+02  0.77760290411E+01 -0.21877042269E+02  0.40686129318E+02  0.41800000000E+01 0. -1.
        -11    1    1    2    0    0  0.39257925733E+02 -0.34547608443E+02 -0.31398271260E+02  0.60996503344E+02  0.00000000000E+00 0.  1.
         11    1    1    2    0    0  0.19804164705E+02  0.12602922036E+02 -0.12697757463E+03  0.12912917192E+03  0.00000000000E+00 0. -1.
</event>
<event>
 7    1  0.2873461E-009  0.1005828E+03  0.7561462E-02  0.1279075E+00
         -2   -1    0    0    0  501 -0.00000000000E+00  0.00000000000E+00  0.40596536808E+03  0.40596536808E+03  0.00000000000E+00 0.  1.
          2   -1    0    0  501    0  0.00000000000E+00 -0.00000000000E+00 -0.31317369315E+02  0.31317369315E+02  0.00000000000E+00 0. -1.
         25    2    1    2    0    0 -0.20968110753E+02  0.32097285744E+02  0.20585312097E+03  0.24390985019E+03  0.12508641088E+03 0.  0.
          5    1    3    3  502    0 -0.13795858324E+02  0.70931125924E+02  0.64049449008E+02  0.96650683650E+02  0.41800000000E+01 0.  1.
         -5    1    3    3    0  502 -0.71722524285E+01 -0.38833840180E+02  0.14180367197E+03  0.14725916654E+03  0.41800000000E+01 0.  1.
        -11    1    1    2    0    0 -0.28368989142E+02  0.29984478761E+01  0.87336801439E+02  0.91877674765E+02  0.00000000000E+00 0.  1.
         11    1    1    2    0    0  0.49337099895E+02 -0.35095733620E+02  0.81458076349E+02  0.10149521243E+03  0.00000000000E+00 0. -1.
</event>
<event>
 7    1  0.2873461E-009  0.1364569E+03  0.7561462E-02  0.1218178E+00
          1   -1    0    0  501    0  0.00000000000E+00  0.00000000000E+00  0.30326831105E+03  0.30326831105E+03  0.00000000000E+00 0.  1.
         -1   -1    0    0    0  501 -0.00000000000E+00 -0.00000000000E+00 -0.84859149627E+02  0.84859149627E+02  0.00000000000E+00 0. -1.
         25    2    1    2    0    0 -0.81452087340E+02  0.66164432963E+02  0.41929594626E+02  0.16857882054E+03  0.12509417696E+03 0.  0.
          5    1    3    3  502    0 -0.63588528643E+02  0.10206611445E+03  0.44223814718E+02  0.12819598621E+03  0.41800000000E+01 0. -1.
         -5    1    3    3    0  502 -0.17863558697E+02 -0.35901681484E+02 -0.22942200913E+01  0.40382834330E+02  0.41800000000E+01 0. -1.
        -11    1    1    2    0    0  0.66393342274E+02 -0.29536204140E+02  0.16170022939E+03  0.17727782557E+03  0.00000000000E+00 0.  1.
         11    1    1    2    0    0  0.15058745065E+02 -0.36628228823E+02  0.14779337402E+02  0.42270814561E+02  0.00000000000E+00 0. -1.
</event>
<event>
 7    1  0.2873461E-009  0.1284231E+03  0.7561462E-02  0.1229815E+00
          1   -1    0    0  501    0  0.00000000000E+00  0.00000000000E+00  0.20301500533E+03  0.20301500533E+03  0.00000000000E+00 0. -1.
         -1   -1    0    0    0  501 -0.00000000000E+00 -0.00000000000E+00 -0.10883262708E+03  0.10883262708E+03  0.00000000000E+00 0.  1.
         25    2    1    2    0    0 -0.23845899751E+02 -0.84519966592E+02 -0.34652004019E+01  0.15287788352E+03  0.12508951982E+03 0.  0.
          5    1    3    3  502    0  0.38165588148E+02 -0.26142349850E+02  0.36147056742E+02  0.58856747153E+02  0.41800000000E+01 0.  1.
         -5    1    3    3    0  502 -0.62011487900E+02 -0.58377616742E+02 -0.39612257143E+02  0.94021136368E+02  0.41800000000E+01 0.  1.
        -11    1    1    2    0    0 -0.12268684569E+02 -0.14929624137E+02  0.11161909797E+02  0.22315970251E+02  0.00000000000E+00 0.  1.
         11    1    1    2    0    0  0.36114584320E+02  0.99449590728E+02  0.86485668858E+02  0.13665377863E+03  0.00000000000E+00 0. -1.
</event>
<event>
 7    1  0.2873461E-009  0.8946797E+02  0.7561462E-02  0.1304145E+00
         -1   -1    0    0    0  501 -0.00000000000E+00  0.00000000000E+00  0.26690399261E+02  0.26690399261E+02  0.00000000000E+00 0.  1.
          1   -1    0    0  501    0  0.00000000000E+00 -0.00000000000E+00 -0.42733053255E+03  0.42733053255E+03  0.00000000000E+00 0. -1.
         25    2    1    2    0    0 -0.16113885251E+02  0.15911351064E+02 -0.32198467192E+03  0.34617030853E+03  0.12508766993E+03 0.  0.
          5    1    3    3  502    0  0.44820334741E+02 -0.18464206152E+02 -0.74720866226E+02  0.89165405650E+02  0.41800000000E+01 0.  1.
         -5    1    3    3    0  502 -0.60934219992E+02  0.34375557216E+02 -0.24726380569E+03  0.25700490288E+03  0.41800000000E+01 0.  1.
        -11    1    1    2    0    0 -0.18258374042E+02 -0.18156538031E+02 -0.66520205163E+02  0.71329978206E+02  0.00000000000E+00 0. -1.
         11    1    1    2    0    0  0.34372259293E+02  0.22451869673E+01 -0.12135256210E+02  0.36520645075E+02  0.00000000000E+00 0.  1.
</event>
<event>
 7    1  0.2873461E-009  0.8172359E+02  0.7561462E-02  0.1324230E+00
          2   -1    0    0  501    0  0.00000000000E+00  0.00000000000E+00  0.80430202407E+03  0.80430202407E+03  0.00000000000E+00 0. -1.
         -2   -1    0    0    0  501 -0.00000000000E+00 -0.00000000000E+00 -0.20012294933E+02  0.20012294933E+02  0.00000000000E+00 0.  1.
         25    2    1    2    0    0  0.27223127165E+02 -0.25711944763E+02  0.60886852175E+03  0.62271220262E+03  0.12508959891E+03 0.  0.
          5    1    3    3  502    0  0.52793158299E+02 -0.64923313348E+01  0.10468441359E+03  0.11749709264E+03  0.41800000000E+01 0. -1.
         -5    1    3    3    0  502 -0.25570031134E+02 -0.19219613428E+02  0.50418410816E+03  0.50521510998E+03  0.41800000000E+01 0. -1.
        -11    1    1    2    0    0 -0.47430356669E+02  0.31348518321E+02  0.17094467297E+03  0.18015118527E+03  0.00000000000E+00 0. -1.
         11    1    1    2    0    0  0.20207229504E+02 -0.56365735583E+01  0.44765344179E+01  0.21450931124E+02  0.00000000000E+00 0.  1.
</event>
<event>
 7    1  0.2873461E-009  0.9518114E+02  0.7561462E-02  0.1290769E+00
         -3   -1    0    0    0  501 -0.00000000000E+00  0.00000000000E+00  0.17688585512E+03  0.17688585512E+03  0.00000000000E+00 0.  1.
          3   -1    0    0  501    0  0.00000000000E+00 -0.00000000000E+00 -0.70401442504E+02  0.70401442504E+02  0.00000000000E+00 0. -1.
         25    2    1    2    0    0  0.28125455384E+02 -0.83912408727E+01  0.67537800988E+02  0.14515651794E+03  0.12509039122E+03 0.  0.
          5    1    3    3  502    0  0.55833271214E+02 -0.51351611530E+02  0.50001452230E+02  0.90950315042E+02  0.41800000000E+01 0.  1.
         -5    1    3    3    0  502 -0.27707815830E+02  0.42960370657E+02  0.17536348758E+02  0.54206202900E+02  0.41800000000E+01 0.  1.
        -11    1    1    2    0    0 -0.37082434257E+02  0.24655618004E+02 -0.13469251748E+02  0.46523404563E+02  0.00000000000E+00 0. -1.
         11    1    1    2    0    0  0.89569788724E+01 -0.16264377131E+02  0.52415863374E+02  0.55607375115E+02  0.00000000000E+00 0.  1.
</event>
<event>
 7    1  0.2873461E-009  0.8189077E+02  0.7561462E-02  0.1323770E+00
         -2   -1    0    0    0  501 -0.00000000000E+00  0.00000000000E+00  0.19960746438E+03  0.19960746438E+03  0.00000000000E+00 0.  1.
          2   -1    0    0  501    0  0.00000000000E+00 -0.00000000000E+00 -0.88928235777E+02  0.88928235777E+02  0.00000000000E+00 0. -1.
         25    2    1    2    0    0 -0.39463812361E+02 -0.33804249741E+02  0.11221686197E+01  0.13545484298E+03  0.12508651181E+03 0.  0.
          5    1    3    3  502    0  0.72205233751E+01  0.22657351542E+02 -0.43370766259E+02  0.49638566686E+02  0.41800000000E+01 0. -1.
         -5    1    3    3    0  502 -0.46684335736E+02 -0.56461601283E+02  0.44492934879E+02  0.85816276292E+02  0.41800000000E+01 0. -1.
        -11    1    1    2    0    0  0.56989717569E+01  0.31934513712E+02  0.11440815046E+03  0.11891810769E+03  0.00000000000E+00 0.  1.
         11    1    1    2    0    0  0.33764840604E+02  0.18697360288E+01 -0.48510904759E+01  0.34162749488E+02  0.00000000000E+00 0. -1.
</event>
<event>
 7    1  0.2873461E-009  0.1107945E+03  0.7561462E-02  0.1259106E+00
         -1   -1    0    0    0  501 -0.00000000000E+00  0.00000000000E+00  0.98329842700E+01  0.98329842700E+01  0.00000000000E+00 0.  1.
          1   -1    0    0  501    0  0.00000000000E+00 -0.00000000000E+00 -0.13222394844E+04  0.13222394844E+04  0.00000000000E+00 0. -1.
         25    2    1    2    0    0 -0.18535395907E+02 -0.96981294661E+01 -0.89522552218E+03  0.90416429077E+03  0.12508682794E+03 0.  0.
          5    1    3    3  502    0 -0.40156533648E+02 -0.59580938291E+02 -0.47698559272E+03  0.48238487068E+03  0.41800000000E+01 0. -1.
         -5    1    3    3    0  502  0.21621137741E+02  0.49882808825E+02 -0.41823992946E+03  0.42177942009E+03  0.41800000000E+01 0. -1.
        -11    1    1    2    0    0 -0.36646068410E+02 -0.72666771437E+01 -0.17462351241E+03  0.17857522228E+03  0.00000000000E+00 0.  1.
         11    1    1    2    0    0  0.55181464318E+02  0.16964806610E+02 -0.24255746551E+03  0.24933295558E+03  0.00000000000E+00 0. -1.
</event>
<event>
 7    1  0.2873461E-009  0.1389298E+03  0.7561462E-02  0.1214776E+00
          1   -1    0    0  501    0  0.00000000000E+00  0.00000000000E+00  0.36877186590E+03  0.36877186590E+03  0.00000000000E+00 0.  1.
         -1   -1    0    0    0  501 -0.00000000000E+00 -0.00000000000E+00 -0.65511455908E+02  0.65511455908E+02  0.00000000000E+00 0. -1.
         25    2    1    2    0    0  0.45541350815E+02  0.10091519720E+03  0.17802645888E+03  0.24411606081E+03  0.12506534062E+03 0.  0.
          5    1    3    3  502    0  0.61055083647E+02  0.40984244047E+02  0.23044011236E+02  0.77174674298E+02  0.41800000000E+01 0.  1.
         -5    1    3    3    0  502 -0.15513732832E+02  0.59930953156E+02  0.15498244764E+03  0.16694138651E+03  0.41800000000E+01 0.  1.
        -11    1    1    2    0    0  0.24941553179E+02 -0.94159607764E+01  0.32578985189E+02  0.42096694268E+02  0.00000000000E+00 0. -1.
         11    1    1    2    0    0 -0.70482903994E+02 -0.91499236427E+02  0.92654965927E+02  0.14807056673E+03  0.00000000000E+00 0.  1.
</event>
<event>
 7    1  0.2873461E-009  0.1475847E+03  0.7561462E-02  0.1203473E+00
          2   -1    0    0  501    0  0.00000000000E+00  0.00000000000E+00  0.19457825641E+04  0.19457825641E+04  0.00000000000E+00 0. -1.
         -2   -1    0    0    0  501 -0.00000000000E+00 -0.00000000000E+00 -0.12651069529E+02  0.12651069529E+02  0.00000000000E+00 0.  1.
         25    2    1    2    0    0 -0.66521754058E+02  0.90554884043E+02  0.11236056811E+04  0.11361190858E+04  0.12510603417E+03 0.  0.
          5    1    3    3  502    0 -0.42547520536E+02  0.11147288548E+03  0.10353381124E+04  0.10421991053E+04  0.41800000000E+01 0.  1.
         -5    1    3    3    0  502 -0.23974233522E+02 -0.20918001433E+02  0.88267568664E+02  0.93919980488E+02  0.41800000000E+01 0.  1.
        -11    1    1    2    0    0  0.34679861419E+02  0.11692699388E+02  0.17123721017E+03  0.17510452351E+03  0.00000000000E+00 0.  1.
         11    1    1    2    0    0  0.31841892639E+02 -0.10224758343E+03  0.63828860333E+03  0.64721002432E+03  0.00000000000E+00 0. -1.
</event>
<event>
 7    1  0.2873461E-009  0.1083019E+03  0.7561462E-02  0.1263747E+00
          1   -1    0    0  501    0  0.00000000000E+00  0.00000000000E+00  0.60581925066E+03  0.60581925066E+03  0.00000000000E+00 0. -1.
         -1   -1    0    0    0  501 -0.00000000000E+00 -0.00000000000E+00 -0.33227314543E+02  0.33227314543E+02  0.00000000000E+00 0.  1.
         25    2    1    2    0    0 -0.60698262339E+02  0.35712117463E+02  0.44613069547E+03  0.46865698208E+03  0.12508850879E+03 0.  0.
          5    1    3    3  502    0 -0.89180794409E+02 -0.93517352923E+01  0.29421596522E+03  0.30760555203E+03  0.41800000000E+01 0.  1.
         -5    1    3    3    0  502  0.28482532070E+02  0.45063852755E+02  0.15191473024E+03  0.16105143005E+03  0.41800000000E+01 0.  1.
        -11    1    1    2    0    0  0.19222006269E+02 -0.95029034486E+00  0.11299490532E+03  0.11462214971E+03  0.00000000000E+00 0. -1.
         11    1    1    2    0    0  0.41476256070E+02 -0.34761827118E+02  0.13466335338E+02  0.55767433414E+02  0.00000000000E+00 0.  1.
</event>
<event>
 7    1  0.3007240E-009  0.9364223E+02  0.7561462E-02  0.1294264E+00
          2   -1    0    0  501    0  0.00000000000E+00  0.00000000000E+00  0.38707138302E+03  0.38707138302E+03  0.00000000000E+00 0. -1.
         -2   -1    0    0    0  501 -0.00000000000E+00 -0.00000000000E+00 -0.43793996307E+02  0.43793996307E+02  0.00000000000E+00 0.  1.
         25    2    1    2    0    0  0.62295693272E+02  0.24309815334E+02  0.14971214820E+03  0.20623483071E+03  0.12508939826E+03 0.  0.
          5    1    3    3  502    0  0.98241070403E+01 -0.12259321639E+02  0.14055264267E+03  0.14148965265E+03  0.41800000000E+01 0. -1.
         -5    1    3    3    0  502  0.52471586232E+02  0.36569136973E+02  0.91595055365E+01  0.64745178062E+02  0.41800000000E+01 0. -1.
        -11    1    1    2    0    0 -0.15727643518E+02 -0.50923826080E+02  0.57635669067E+02  0.78501370574E+02  0.00000000000E+00 0.  1.
         11    1    1    2    0    0 -0.46568049754E+02  0.26614010746E+02  0.13592956944E+03  0.14612917804E+03  0.00000000000E+00 0. -1.
</event>
<event>
 7    1  0.2873461E-009  0.1256348E+03  0.7561462E-02  0.1234081E+00
          2   -1    0    0  501    0  0.00000000000E+00  0.00000000000E+00  0.14733643748E+03  0.14733643748E+03  0.00000000000E+00 0. -1.
         -2   -1    0    0    0  501 -0.00000000000E+00 -0.00000000000E+00 -0.19020780738E+03  0.19020780738E+03  0.00000000000E+00 0.  1.
         25    2    1    2    0    0  0.94042082011E+02  0.98359932311E+01  0.63118309974E+02  0.16906955699E+03  0.12513965836E+03 0.  0.
          5    1    3    3  502    0  0.22054824805E+02 -0.48225287680E+02 -0.60065274004E+01  0.53531714342E+02  0.41800000000E+01 0. -1.
         -5    1    3    3    0  502  0.71987257206E+02  0.58061280911E+02  0.69124837374E+02  0.11553784265E+03  0.41800000000E+01 0. -1.
        -11    1    1    2    0    0 -0.68922792763E+02  0.14601313336E+02 -0.16487457235E+02  0.72355966992E+02  0.00000000000E+00 0. -1.
         11    1    1    2    0    0 -0.25119289249E+02 -0.24437306567E+02 -0.89502222648E+02  0.96118720880E+02  0.00000000000E+00 0.  1.
</event>
<event>
 7    1  0.2873461E-009  0.7756205E+02  0.7561462E-02  0.1336116E+00
         -3   -1    0    0    0  501 -0.00000000000E+00  0.00000000000E+00  0.40909080587E+02  0.40909080587E+02  0.00000000000E+00 0.  1.
          3   -1    0    0  501    0  0.00000000000E+00 -0.00000000000E+00 -0.18915310633E+03  0.18915310633E+03  0.00000000000E+00 0. -1.
         25    2    1    2    0    0 -0.34959772957E+01  0.18003036203E+02 -0.14687460045E+03  0.19379276248E+03  0.12508859005E+03 0.  0.
          5    1    3    3  502    0 -0.44677859863E+02  0.53554480603E+02 -0.65179884286E+02  0.95551469220E+02  0.41800000000E+01 0. -1.
         -5    1    3    3    0  502  0.41181882568E+02 -0.35551444400E+02 -0.81694716169E+02  0.98241293256E+02  0.41800000000E+01 0. -1.
        -11    1    1    2    0    0 -0.10020175252E+02 -0.29192916819E+01 -0.98137306962E+01  0.14326042237E+02  0.00000000000E+00 0. -1.
         11    1    1    2    0    0  0.13516152547E+02 -0.15083744521E+02  0.84443054116E+01  0.21943382199E+02  0.00000000000E+00 0.  1.
</event>
<event>
 7    1  0.2873461E-009  0.1156086E+03  0.7561462E-02  0.1250523E+00
         -2   -1    0    0    0  501 -0.00000000000E+00  0.00000000000E+00  0.43941724023E+02  0.43941724023E+02  0.00000000000E+00 0. -1.
          2   -1    0    0  501    0  0.00000000000E+00 -0.00000000000E+00 -0.34641256583E+03  0.34641256583E+03  0.00000000000E+00 0.  1.
         25    2    1    2    0    0  0.16828632817E+02 -0.54283052835E+02 -0.12287869859E+03  0.18432922040E+03  0.12509290236E+03 0.  0.
          5    1    3    3  502    0  0.59293867950E+02  0.71236459910E+01 -0.36651906232E+02  0.70195040702E+02  0.41800000000E+01 0.  1.
         -5    1    3    3    0  502 -0.42465235134E+02 -0.61406698826E+02 -0.86226792355E+02  0.11413417970E+03  0.41800000000E+01 0.  1.
        -11    1    1    2    0    0  0.30802670940E+02  0.30449959588E+02 -0.11121969459E+03  0.11935587560E+03  0.00000000000E+00 0.  1.
         11    1    1    2    0    0 -0.47631303756E+02  0.23833093247E+02 -0.68372448638E+02  0.86669193858E+02  0.00000000000E+00 0. -1.
</event>
<event>
 7    1  0.2873461E-009  0.8480206E+02  0.7561462E-02  0.1315951E+00
         -2   -1    0    0    0  501 -0.00000000000E+00  0.00000000000E+00  0.35326377307E+03  0.35326377307E+03  0.00000000000E+00 0.  1.
          2   -1    0    0  501    0  0.00000000000E+00 -0.00000000000E+00 -0.37637410508E+02  0.37637410508E+02  0.00000000000E+00 0. -1.
         25    2    1    2    0    0  0.60208026546E+00 -0.32230243579E+02  0.21397695464E+03  0.24994579124E+03  0.12509040866E+03 0.  0.
          5    1    3    3  502    0 -0.32283060311E+02 -0.59523821356E+02  0.18774550144E+03  0.19962747056E+03  0.41800000000E+01 0. -1.
         -5    1    3    3    0  502  0.32885140576E+02  0.27293577777E+02  0.26231453204E+02  0.50318320677E+02  0.41800000000E+01 0. -1.
        -11    1    1    2    0    0 -0.24778933238E+02  0.19263348190E+02 -0.41479937329E+01  0.31658773948E+02  0.00000000000E+00 0. -1.
         11    1    1    2    0    0  0.24176852972E+02  0.12966895389E+02  0.10579740165E+03  0.10929661839E+03  0.00000000000E+00 0.  1.
</event>
<event>
 7    1  0.2873461E-009  0.1858246E+03  0.7561462E-02  0.1162282E+00
         -2   -1    0    0    0  501 -0.00000000000E+00  0.00000000000E+00  0.90188890095E+02  0.90188890095E+02  0.00000000000E+00 0.  1.
          2   -1    0    0  501    0  0.00000000000E+00 -0.00000000000E+00 -0.45735900856E+03  0.45735900856E+03  0.00000000000E+00 0. -1.
         25    2    1    2    0    0 -0.44168320773E+02 -0.16110052732E+03 -0.14559856323E+03  0.25446252820E+03  0.12509203083E+03 0.  0.
          5    1    3    3  502    0  0.64378685888E+00  0.86897329294E+01 -0.56842379504E+02  0.57658082066E+02  0.41800000000E+01 0.  1.
         -5    1    3    3    0  502 -0.44812107632E+02 -0.16979026025E+03 -0.88756183725E+02  0.19680444613E+03  0.41800000000E+01 0.  1.
        -11    1    1    2    0    0  0.50865125840E+02  0.39125205642E+02 -0.11151686499E+03  0.12866255834E+03  0.00000000000E+00 0.  1.
         11    1    1    2    0    0 -0.66968050669E+01  0.12197532168E+03 -0.11005469025E+03  0.16442281211E+03  0.00000000000E+00 0. -1.
</event>
<event>
 7    1  0.2873461E-009  0.1131769E+03  0.7561462E-02  0.1254797E+00
          1   -1    0    0  501    0  0.00000000000E+00  0.00000000000E+00  0.29535705415E+03  0.29535705415E+03  0.00000000000E+00 0. -1.
         -1   -1    0    0    0  501 -0.00000000000E+00 -0.00000000000E+00 -0.59064324934E+02  0.59064324934E+02  0.00000000000E+00 0.  1.
         25    2    1    2    0    0 -0.61759204165E+02  0.10532715055E+02  0.16773567153E+03  0.21842504840E+03  0.12509639834E+03 0.  0.
          5    1    3    3  502    0  0.16335086375E+02  0.25975518020E+02 -0.18648495784E+01  0.31024387943E+02  0.41800000000E+01 0. -1.
         -5    1    3    3    0  502 -0.78094290541E+02 -0.15442802965E+02  0.16960052111E+03  0.18740066045E+03  0.41800000000E+01 0. -1.
        -11    1    1    2    0    0  0.17353204517E+02 -0.52057072006E+02  0.44362789823E+02  0.70562947598E+02  0.00000000000E+00 0. -1.
         11    1    1    2    0    0  0.44405999649E+02  0.41524356950E+02  0.24194267862E+02  0.65433383088E+02  0.00000000000E+00 0.  1.
</event>
<event>
 7    1  0.2873461E-009  0.1014713E+03  0.7561462E-02  0.1277232E+00
          1   -1    0    0  501    0  0.00000000000E+00  0.00000000000E+00  0.14517707000E+04  0.14517707000E+04  0.00000000000E+00 0. -1.
         -1   -1    0    0    0  501 -0.00000000000E+00 -0.00000000000E+00 -0.13040271665E+02  0.13040271665E+02  0.00000000000E+00 0.  1.
         25    2    1    2    0    0  0.35924606259E+02  0.31138807979E+02  0.11705275041E+04  0.11781523977E+04  0.12509289185E+03 0.  0.
          5    1    3    3  502    0  0.74267920460E+00  0.57624724757E+02  0.10097145889E+04  0.10113664934E+04  0.41800000000E+01 0. -1.
         -5    1    3    3    0  502  0.35181927055E+02 -0.26485916777E+02  0.16081291519E+03  0.16678590429E+03  0.41800000000E+01 0. -1.
        -11    1    1    2    0    0  0.14815655686E+02  0.22596762886E+02  0.81370702016E+02  0.85739771943E+02  0.00000000000E+00 0. -1.
         11    1    1    2    0    0 -0.50740261945E+02 -0.53735570866E+02  0.18683222228E+03  0.20091880211E+03  0.00000000000E+00 0.  1.
</event>
<event>
 7    1  0.2873461E-009  0.1912134E+03  0.7561462E-02  0.1157371E+00
         -2   -1    0    0    0  501 -0.00000000000E+00  0.00000000000E+00  0.18577120385E+03  0.18577120385E+03  0.00000000000E+00 0.  1.
          2   -1    0    0  501    0  0.00000000000E+00 -0.00000000000E+00 -0.25125517351E+03  0.25125517351E+03  0.00000000000E+00 0. -1.
         25    2    1    2    0    0  0.15824448593E+03 -0.85661664433E+02 -0.89118789824E+02  0.23657896812E+03  0.12509281106E+03 0.  0.
          5    1    3    3  502    0  0.11886362215E+03 -0.16061436257E+02 -0.99411847119E+02  0.15584196532E+03  0.41800000000E+01 0.  1.
         -5    1    3    3    0  502  0.39380863778E+02 -0.69600228176E+02  0.10293057295E+02  0.80737002809E+02  0.41800000000E+01 0.  1.
        -11    1    1    2    0    0 -0.10478979884E+03  0.40466281946E+02  0.53404043129E+02  0.12438011794E+03  0.00000000000E+00 0.  1.
         11    1    1    2    0    0 -0.53454687087E+02  0.45195382488E+02 -0.29769222957E+02  0.76067291297E+02  0.00000000000E+00 0. -1.
</event>
<event>
 7    1  0.2873461E-009  0.1069187E+03  0.7561462E-02  0.1266385E+00
         -1   -1    0    0    0  501 -0.00000000000E+00  0.00000000000E+00  0.32720804442E+03  0.32720804442E+03  0.00000000000E+00 0.  1.
          1   -1    0    0  501    0  0.00000000000E+00 -0.00000000000E+00 -0.58413872745E+02  0.58413872745E+02  0.00000000000E+00 0. -1.
         25    2    1    2    0    0 -0.82151037051E+02  0.12793871799E+02  0.12162059838E+03  0.19326401288E+03  0.12508769996E+03 0.  0.
          5    1    3    3  502    0 -0.81223163639E+02  0.17063939754E+01  0.11095569074E+02  0.82101754823E+02  0.41800000000E+01 0.  1.
         -5    1    3    3    0  502 -0.92787341163E+00  0.11087477823E+02  0.11052502931E+03  0.11116225806E+03  0.41800000000E+01 0.  1.
        -11    1    1    2    0    0  0.69109855420E+02  0.30387596920E+02  0.69922656783E+02  0.10290168169E+03  0.00000000000E+00 0.  1.
         11    1    1    2    0    0  0.13041181631E+02 -0.43181468719E+02  0.77250916505E+02  0.89456222589E+02  0.00000000000E+00 0. -1.
</event>
<event>
 7    1  0.2873461E-009  0.1231058E+03  0.7561462E-02  0.1238060E+00
         -2   -1    0    0    0  501 -0.00000000000E+00  0.00000000000E+00  0.27694254179E+03  0.27694254179E+03  0.00000000000E+00 0.  1.
          2   -1    0    0  501    0  0.00000000000E+00 -0.00000000000E+00 -0.77369767962E+02  0.77369767962E+02  0.00000000000E+00 0. -1.
         25    2    1    2    0    0 -0.71077719509E+02 -0.60489771440E+02  0.14702007014E+03  0.21441204646E+03  0.12508625018E+03 0.  0.
          5    1    3    3  502    0  0.31355303650E+02 -0.12496984461E+02  0.76446194069E+01  0.34860325493E+02  0.41800000000E+01 0. -1.
         -5    1    3    3    0  502 -0.10243302316E+03 -0.47992786979E+02  0.13937545073E+03  0.17955172097E+03  0.41800000000E+01 0. -1.
        -11    1    1    2    0    0  0.35985710334E+02  0.51415649201E+02  0.74591002684E+02  0.97480039046E+02  0.00000000000E+00 0.  1.
         11    1    1    2    0    0  0.35092009174E+02  0.90741222397E+01 -0.22038298996E+02  0.42420224245E+02  0.00000000000E+00 0. -1.
</event>
<event>
 7    1  0.3064788E-009  0.9162846E+02  0.7561462E-02  0.1298955E+00
          2   -1    0    0  501    0  0.00000000000E+00  0.00000000000E+00  0.29680017395E+03  0.29680017395E+03  0.00000000000E+00 0. -1.
         -2   -1    0    0    0  501 -0.00000000000E+00 -0.00000000000E+00 -0.43866210599E+02  0.43866210599E+02  0.00000000000E+00 0.  1.
         25    2    1    2    0    0  0.61908590184E+01  0.33902931770E+02  0.13527453916E+03  0.18744119758E+03  0.12508903264E+03 0.  0.
          5    1    3    3  502    0  0.45663950771E+02  0.62851641551E+02  0.10121228934E+03  0.12765941077E+03  0.41800000000E+01 0. -1.
         -5    1    3    3    0  502 -0.39473091753E+02 -0.28948709781E+02  0.34062249821E+02  0.59781786804E+02  0.41800000000E+01 0. -1.
        -11    1    1    2    0    0 -0.25581592736E+02 -0.19852177664E+02 -0.77890651532E+00  0.32390330969E+02  0.00000000000E+00 0.  1.
         11    1    1    2    0    0  0.19390733718E+02 -0.14050754106E+02  0.11843833071E+03  0.12083485601E+03  0.00000000000E+00 0. -1.
</event>
<event>
 7    1  0.2873461E-009  0.2047165E+03  0.7561462E-02  0.1145820E+00
         -1   -1    0    0    0  501 -0.00000000000E+00  0.00000000000E+00  0.28499818255E+03  0.28499818255E+03  0.00000000000E+00 0.  1.
          1   -1    0    0  501    0  0.00000000000E+00 -0.00000000000E+00 -0.17770759552E+03  0.17770759552E+03  0.00000000000E+00 0. -1.
         25    2    1    2    0    0  0.90170007727E+01 -0.19271496549E+03  0.21548034923E+02  0.23093839587E+03  0.12509140918E+03 0.  0.
          5    1    3    3  502    0  0.26544372165E+02 -0.67068891226E+01  0.33753007339E+02  0.43661469968E+02  0.41800000000E+01 0.  1.
         -5    1    3    3    0  502 -0.17527371392E+02 -0.18600807637E+03 -0.12204972416E+02  0.18727692590E+03  0.41800000000E+01 0.  1.
        -11    1    1    2    0    0 -0.18898155087E+02  0.12143501824E+03  0.99958613682E+02  0.15841505096E+03  0.00000000000E+00 0.  1.
         11    1    1    2    0    0  0.98811543144E+01  0.71279947256E+02 -0.14216061578E+02  0.73352331239E+02  0.00000000000E+00 0. -1.
</event>
<event>
 7    1  0.2873461E-009  0.1291774E+03  0.7561462E-02  0.1228681E+00
         -2   -1    0    0    0  501 -0.00000000000E+00  0.00000000000E+00  0.18933855031E+03  0.18933855031E+03  0.00000000000E+00 0.  1.
          2   -1    0    0  501    0  0.00000000000E+00 -0.00000000000E+00 -0.13641565526E+03  0.13641565526E+03  0.00000000000E+00 0. -1.
         25    2    1    2    0    0  0.45786591281E+01 -0.10843766864E+03 -0.18000576256E+02  0.16658389885E+03  0.12508590053E+03 0.  0.
          5    1    3    3  502    0  0.52650725873E+02 -0.71209383509E+02 -0.45579743631E+02  0.99688819153E+02  0.41800000000E+01 0.  1.
         -5    1    3    3    0  502 -0.48072066745E+02 -0.37228285133E+02  0.27579167375E+02  0.66895079700E+02  0.41800000000E+01 0.  1.
        -11    1    1    2    0    0 -0.61950707719E+01  0.68214213870E+02 -0.95811278232E+01  0.69161809448E+02  0.00000000000E+00 0. -1.
         11    1    1    2    0    0  0.16164116438E+01  0.40223454772E+02  0.80504599132E+02  0.90008497275E+02  0.00000000000E+00 0.  1.
</event>
<event>
 7    1  0.2873461E-009  0.1200275E+03  0.7561462E-02  0.1243052E+00
         -2   -1    0    0    0  501 -0.00000000000E+00  0.00000000000E+00  0.41903239440E+02  0.41903239440E+02  0.00000000000E+00 0. -1.
          2   -1    0    0  501    0  0.00000000000E+00 -0.00000000000E+00 -0.36966688726E+03  0.36966688726E+03  0.00000000000E+00 0.  1.
         25    2    1    2    0    0  0.58009920031E+02  0.20549805560E+01 -0.14922276699E+03  0.20318419395E+03  0.12508800389E+03 0.  0.
          5    1    3    3  502    0 -0.15724847752E+02 -0.43081748477E+02 -0.80187774784E+02  0.92470857644E+02  0.41800000000E+01 0. -1.
         -5    1    3    3    0  502  0.73734767784E+02  0.45136729033E+02 -0.69034992206E+02  0.11071333631E+03  0.41800000000E+01 0. -1.
        -11    1    1    2    0    0 -0.34097274636E+02 -0.46095048799E+02 -0.93717621364E+02  0.10986523661E+03  0.00000000000E+00 0.  1.
         11    1    1    2    0    0 -0.23912645396E+02  0.44040068243E+02 -0.84823259466E+02  0.98520696136E+02  0.00000000000E+00 0. -1.
</event>
<event>
 7    1  0.2873461E-009  0.1220094E+03  0.7561462E-02  0.1239818E+00
         -1   -1    0    0    0  501 -0.00000000000E+00  0.00000000000E+00  0.12123116004E+03  0.12123116004E+03  0.00000000000E+00 0.  1.
          1   -1    0    0  501    0  0.00000000000E+00 -0.00000000000E+00 -0.33201584605E+03  0.33201584605E+03  0.00000000000E+00 0. -1.
         25    2    1    2    0    0  0.88563514467E+02  0.72101588612E+02 -0.24622309747E+03  0.29885890517E+03  0.12509474929E+03 0.  0.
          5    1    3    3  502    0  0.67481613114E+01 -0.98118579149E+01 -0.14341755735E+03  0.14397179721E+03  0.41800000000E+01 0. -1.
         -5    1    3    3    0  502  0.81815353156E+02  0.81913446527E+02 -0.10280554012E+03  0.15488710796E+03  0.41800000000E+01 0. -1.
        -11    1    1    2    0    0 -0.15749935250E+02 -0.22426454248E+02  0.57349846515E+02  0.63561082478E+02  0.00000000000E+00 0.  1.
         11    1    1    2    0    0 -0.72813579217E+02 -0.49675134364E+02 -0.21911435059E+02  0.90827018441E+02  0.00000000000E+00 0. -1.
</event>
<event>
 7    1  0.2873461E-009  0.8474087E+02  0.7561462E-02  0.1316112E+00
          2   -1    0    0  501    0  0.00000000000E+00  0.00000000000E+00  0.51233002140E+03  0.51233002140E+03  0.00000000000E+00 0. -1.
         -2   -1    0    0    0  501 -0.00000000000E+00 -0.00000000000E+00 -0.28635626808E+02  0.28635626808E+02  0.00000000000E+00 0.  1.
         25    2    1    2    0    0  0.76347944842E+01 -0.20939394017E+02  0.37302395840E+03  0.39406919456E+03  0.12508760230E+03 0.  0.
          5    1    3    3  502    0 -0.54419363131E+02 -0.31508914750E+02  0.21045923147E+03  0.21969260184E+03  0.41800000000E+01 0.  1.
         -5    1    3    3    0  502  0.62054157615E+02  0.10569520733E+02  0.16256472693E+03  0.17437659271E+03  0.41800000000E+01 0.  1.
        -11    1    1    2    0    0 -0.22721762326E+02  0.10525158826E+02  0.12252991345E+03  0.12506253293E+03  0.00000000000E+00 0. -1.
         11    1    1    2    0    0  0.15086967842E+02  0.10414235191E+02 -0.11859477260E+02  0.21833920723E+02  0.00000000000E+00 0.  1.
</event>
<event>
 7    1  0.2873461E-009  0.1255288E+03  0.7561462E-02  0.1234245E+00
         -1   -1    0    0    0  501 -0.00000000000E+00  0.00000000000E+00  0.21832204548E+03  0.21832204548E+03  0.00000000000E+00 0.  1.
          1   -1    0    0  501    0  0.00000000000E+00 -0.00000000000E+00 -0.96678101026E+02  0.96678101026E+02  0.00000000000E+00 0. -1.
         25    2    1    2    0    0  0.76837736876E+02 -0.49517408330E+02  0.99622711461E+02  0.18419553004E+03  0.12508915665E+03 0.  0.
          5    1    3    3  502    0  0.10291137144E+03 -0.67134395365E+02  0.83248380335E+02  0.14847741459E+03  0.41800000000E+01 0. -1.
         -5    1    3    3    0  502 -0.26073634569E+02  0.17616987035E+02  0.16374331126E+02  0.35718115455E+02  0.41800000000E+01 0. -1.
        -11    1    1    2    0    0 -0.22754599346E+02  0.32497084306E+02  0.52994029001E+02  0.66198182676E+02  0.00000000000E+00 0.  1.
         11    1    1    2    0    0 -0.54083137530E+02  0.17020324024E+02 -0.30972796006E+02  0.64606433792E+02  0.00000000000E+00 0. -1.
</event>
<event>
 7    1  0.2873461E-009  0.9717304E+02  0.7561462E-02  0.1286356E+00
          1   -1    0    0  501    0  0.00000000000E+00  0.00000000000E+00  0.20451109793E+03  0.20451109793E+03  0.00000000000E+00 0. -1.
         -1   -1    0    0    0  501 -0.00000000000E+00 -0.00000000000E+00 -0.97986217425E+02  0.97986217425E+02  0.00000000000E+00 0.  1.
         25    2    1    2    0    0 -0.36330947597E+02 -0.59709693242E+02 -0.23059338108E+01  0.14331119664E+03  0.12509035347E+03 0.  0.
          5    1    3    3  502    0 -0.41972169754E+01  0.15134869471E+02 -0.47405306966E+02  0.50114034290E+02  0.41800000000E+01 0.  1.
         -5    1    3    3    0  502 -0.32133730621E+02 -0.74844562713E+02  0.45099373156E+02  0.93197162352E+02  0.41800000000E+01 0.  1.
        -11    1    1    2    0    0  0.55983033287E+02  0.40900077578E+02  0.11207876423E+03  0.13178985452E+03  0.00000000000E+00 0. -1.
         11    1    1    2    0    0 -0.19652085690E+02  0.18809615664E+02 -0.32479499142E+01  0.27396264199E+02  0.00000000000E+00 0.  1.
</event>
<event>
 7    1  0.2873461E-009  0.1126360E+03  0.7561462E-02  0.1255765E+00
         -3   -1    0    0    0  501 -0.00000000000E+00  0.00000000000E+00  0.11655839091E+03  0.11655839091E+03  0.00000000000E+00 0.  1.
          3   -1    0    0  501    0  0.00000000000E+00 -0.00000000000E+00 -0.13171327767E+03  0.13171327767E+03  0.00000000000E+00 0. -1.
         25    2    1    2    0    0 -0.40645310785E+02 -0.93083335479E+01  0.38036679581E+02  0.13723458603E+03  0.12509139158E+03 0.  0.
          5    1    3    3  502    0 -0.71024851412E+02 -0.43882792819E+02  0.12764582133E+02  0.84561433176E+02  0.41800000000E+01 0.  1.
         -5    1    3    3    0  502  0.30379540627E+02  0.34574459271E+02  0.25272097448E+02  0.52673152858E+02  0.41800000000E+01 0.  1.
        -11    1    1    2    0    0  0.41798612287E+02  0.44037882735E+02 -0.22744551430E+02  0.64836515365E+02  0.00000000000E+00 0.  1.
         11    1    1    2    0    0 -0.11533015023E+01 -0.34729549187E+02 -0.30447014906E+02  0.46200567180E+02  0.00000000000E+00 0. -1.
</event>
<event>
 7    1  0.2873461E-009  0.8286440E+02  0.7561462E-02  0.1321114E+00
          3   -1    0    0  501    0  0.00000000000E+00  0.00000000000E+00  0.25717250754E+03  0.25717250754E+03  0.00000000000E+00 0. -1.
         -3   -1    0    0    0  501 -0.00000000000E+00 -0.00000000000E+00 -0.81845586935E+02  0.81845586935E+02  0.00000000000E+00 0.  1.
         25    2    1    2    0    0  0.24025228910E+02  0.46750174050E+02  0.18997165067E+03  0.23345342262E+03  0.12509389305E+03 0.  0.
          5    1    3    3  502    0 -0.30888479271E+02  0.17275691933E+02  0.23586768519E+01  0.35715311002E+02  0.41800000000E+01 0. -1.
         -5    1    3    3    0  502  0.54913708181E+02  0.29474482117E+02  0.18761297382E+03  0.19773811162E+03  0.41800000000E+01 0. -1.
        -11    1    1    2    0    0 -0.17968880160E+02  0.23797691898E+01 -0.44296482374E+02  0.47861490849E+02  0.00000000000E+00 0.  1.
         11    1    1    2    0    0 -0.60563487493E+01 -0.49129943240E+02  0.29651752308E+02  0.57703181003E+02  0.00000000000E+00 0. -1.
</event>
<event>
 7    1  0.2873461E-009  0.7586472E+02  0.7561462E-02  0.1341214E+00
          2   -1    0    0  501    0  0.00000000000E+00  0.00000000000E+00  0.88389107727E+03  0.88389107727E+03  0.00000000000E+00 0. -1.
         -2   -1    0    0    0  501 -0.00000000000E+00 -0.00000000000E+00 -0.29939677822E+02  0.29939677822E+02  0.00000000000E+00 0.  1.
         25    2    1    2    0    0 -0.58089895823E+01 -0.46494941915E+02  0.77061376107E+03  0.78210625012E+03  0.12509633787E+03 0.  0.
          5    1    3    3  502    0 -0.96692505876E+01 -0.19315745299E+02  0.74166941921E+03  0.74199568207E+03  0.41800000000E+01 0. -1.
         -5    1    3    3    0  502  0.38602610054E+01 -0.27179196616E+02  0.28944341865E+02  0.40110568055E+02  0.41800000000E+01 0. -1.
        -11    1    1    2    0    0 -0.30299414132E+02  0.56828766649E+02  0.50617187355E+02  0.81912531833E+02  0.00000000000E+00 0. -1.
         11    1    1    2    0    0  0.36108403714E+02 -0.10333824734E+02  0.32720451024E+02  0.49811973135E+02  0.00000000000E+00 0.  1.
</event>
<event>
 7    1  0.2873461E-009  0.2075549E+03  0.7561462E-02  0.1143517E+00
          1   -1    0    0  501    0  0.00000000000E+00  0.00000000000E+00  0.99753297750E+03  0.99753297750E+03  0.00000000000E+00 0. -1.
         -1   -1    0    0    0  501 -0.00000000000E+00 -0.00000000000E+00 -0.60223637913E+02  0.60223637913E+02  0.00000000000E+00 0.  1.
         25    2    1    2    0    0  0.19969129768E+03  0.13035427106E+02  0.67609145678E+03  0.71609633050E+03  0.12509100646E+03 0.  0.
          5    1    3    3  502    0  0.17704436486E+03 -0.16097552084E+01  0.66219877711E+03  0.68547209371E+03  0.41800000000E+01 0.  1.
         -5    1    3    3    0  502  0.22646932813E+02  0.14645182315E+02  0.13892679669E+02  0.30624236794E+02  0.41800000000E+01 0.  1.
        -11    1    1    2    0    0 -0.13410427922E+03 -0.39790363543E+02  0.21693201602E+03  0.25812154174E+03  0.00000000000E+00 0. -1.
         11    1    1    2    0    0 -0.65587018460E+02  0.26754936437E+02  0.44285866790E+02  0.83538743177E+02  0.00000000000E+00 0.  1.
</event>
<event>
 7    1  0.2873461E-009  0.7468976E+02  0.7561462E-02  0.1344834E+00
         -4   -1    0    0    0  501 -0.00000000000E+00  0.00000000000E+00  0.30224150898E+02  0.30224150898E+02  0.00000000000E+00 0.  1.
          4   -1    0    0  501    0  0.00000000000E+00 -0.00000000000E+00 -0.41310904901E+03  0.41310904901E+03  0.00000000000E+00 0. -1.
         25    2    1    2    0    0 -0.18886989163E+02 -0.67336009866E+01 -0.24022606320E+03  0.27158688507E+03  0.12509522357E+03 0.  0.
          5    1    3    3  502    0 -0.29828393252E+02 -0.24946309702E+02 -0.24606982896E+03  0.24915835233E+03  0.41800000000E+01 0. -1.
         -5    1    3    3    0  502  0.10941404089E+02  0.18212708716E+02  0.58437657669E+01  0.22428532733E+02  0.41800000000E+01 0. -1.
        -11    1    1    2    0    0 -0.34471501028E+02  0.73866764139E+01 -0.27115973371E+02  0.44476099013E+02  0.00000000000E+00 0.  1.
         11    1    1    2    0    0  0.53358490191E+02 -0.65307542728E+00 -0.11554286154E+03  0.12727021583E+03  0.00000000000E+00 0. -1.
</event>
<event>
 7    1  0.2873461E-009  0.1054524E+03  0.7561462E-02  0.1269231E+00
         -4   -1    0    0    0  501 -0.00000000000E+00  0.00000000000E+00  0.12263514955E+03  0.12263514955E+03  0.00000000000E+00 0.  1.
          4   -1    0    0  501    0  0.00000000000E+00 -0.00000000000E+00 -0.10442706669E+03  0.10442706669E+03  0.00000000000E+00 0. -1.
         25    2    1    2    0    0  0.11453547407E+02  0.95692115834E+01 -0.17104591372E+02  0.12713335399E+03  0.12509024380E+03 0.  0.
          5    1    3    3  502    0 -0.52377098646E+02 -0.34437693379E+01  0.14487299956E+02  0.54612949654E+02  0.41800000000E+01 0.  1.
         -5    1    3    3    0  502  0.63830646053E+02  0.13012980921E+02 -0.31591891329E+02  0.72520404341E+02  0.41800000000E+01 0.  1.
        -11    1    1    2    0    0  0.19933841921E+02  0.33916600062E+02  0.98178867801E+01  0.40547314514E+02  0.00000000000E+00 0.  1.
         11    1    1    2    0    0 -0.31387389328E+02 -0.43485811645E+02  0.25494787458E+02  0.59381547730E+02  0.00000000000E+00 0. -1.
</event>
<event>
 7    1  0.2873461E-009  0.9828319E+02  0.7561462E-02  0.1283948E+00
          2   -1    0    0  501    0  0.00000000000E+00  0.00000000000E+00  0.99604898882E+03  0.99604898882E+03  0.00000000000E+00 0. -1.
         -2   -1    0    0    0  501 -0.00000000000E+00 -0.00000000000E+00 -0.17511004724E+02  0.17511004724E+02  0.00000000000E+00 0.  1.
         25    2    1    2    0    0 -0.53456823073E+02 -0.11491927148E+01  0.73657867536E+03  0.74903517574E+03  0.12508635786E+03 0.  0.
          5    1    3    3  502    0 -0.98777380261E+01 -0.37485551343E+02  0.59748011099E+03  0.59875094296E+03  0.41800000000E+01 0.  1.
         -5    1    3    3    0  502 -0.43579085047E+02  0.36336358628E+02  0.13909856437E+03  0.15028423278E+03  0.41800000000E+01 0.  1.
        -11    1    1    2    0    0 -0.26992117065E+00 -0.35592742212E+02  0.13229108561E+03  0.13699579369E+03  0.00000000000E+00 0. -1.
         11    1    1    2    0    0  0.53726744244E+02  0.36741934927E+02  0.10966822312E+03  0.12752902412E+03  0.00000000000E+00 0.  1.
</event>
<event>
 7    1  0.2873461E-009  0.1270833E+03  0.7561462E-02  0.1231849E+00
         -1   -1    0    0    0  501 -0.00000000000E+00  0.00000000000E+00  0.33488125969E+02  0.33488125969E+02  0.00000000000E+00 0.  1.
          1   -1    0    0  501    0  0.00000000000E+00 -0.00000000000E+00 -0.79886922855E+03  0.79886922855E+03  0.00000000000E+00 0. -1.
         25    2    1    2    0    0 -0.35627286289E+02  0.51611030219E+02 -0.65842287693E+03  0.67312792083E+03  0.12509001148E+03 0.  0.
          5    1    3    3  502    0 -0.59707846942E+02 -0.18679205987E+02 -0.23530927172E+03  0.24351974351E+03  0.41800000000E+01 0.  1.
         -5    1    3    3    0  502  0.24080560653E+02  0.70290236206E+02 -0.42311360521E+03  0.42960817732E+03  0.41800000000E+01 0.  1.
        -11    1    1    2    0    0 -0.17799734771E+02 -0.60341215004E+02 -0.67270359283E+02  0.92104256276E+02  0.00000000000E+00 0. -1.
         11    1    1    2    0    0  0.53427021060E+02  0.87301847852E+01 -0.39687866371E+02  0.67125177414E+02  0.00000000000E+00 0.  1.
</event>
<event>
 7    1  0.2873461E-009  0.1344734E+03  0.7561462E-02  0.1220965E+00
         -2   -1    0    0    0  501 -0.00000000000E+00  0.00000000000E+00  0.98070440627E+03  0.98070440627E+03  0.00000000000E+00 0.  1.
          2   -1    0    0  501    0  0.00000000000E+00 -0.00000000000E+00 -0.24103115863E+02  0.24103115863E+02  0.00000000000E+00 0. -1.
         25    2    1    2    0    0 -0.10012379206E+03  0.13315791339E+02  0.64913734384E+03  0.66875211464E+03  0.12509202865E+03 0.  0.
          5    1    3    3  502    0 -0.42462973868E+02  0.67801280249E+02  0.28465114465E+03  0.29570908728E+03  0.41800000000E+01 0. -1.
         -5    1    3    3    0  502 -0.57660818187E+02 -0.54485488910E+02  0.36448619920E+03  0.37304302736E+03  0.41800000000E+01 0. -1.
        -11    1    1    2    0    0  0.59786090555E+02 -0.28580641615E+02  0.76991095122E+02  0.10158178196E+03  0.00000000000E+00 0. -1.
         11    1    1    2    0    0  0.40337701500E+02  0.15264850276E+02  0.23047285145E+03  0.23447362553E+03  0.00000000000E+00 0.  1.
</event>
<event>
 7    1  0.2873461E-009  0.6042062E+02  0.7561462E-02  0.1396075E+00
          3   -1    0    0  501    0  0.00000000000E+00  0.00000000000E+00  0.10864507271E+03  0.10864507271E+03  0.00000000000E+00 0. -1.
         -3   -1    0    0    0  501 -0.00000000000E+00 -0.00000000000E+00 -0.11764207681E+03  0.11764207681E+03  0.00000000000E+00 0.  1.
         25    2    1    2    0    0 -0.14946271871E+02  0.15123994254E+02 -0.28838267695E+02  0.13011792746E+03  0.12508758179E+03 0.  0.
          5    1    3    3  502    0 -0.19902257137E+02  0.15720610026E+02  0.47229977004E+02  0.53771558900E+02  0.41800000000E+01 0.  1.
         -5    1    3    3    0  502  0.49559852662E+01 -0.59661577244E+00 -0.76068244700E+02  0.76346368558E+02  0.41800000000E+01 0.  1.
        -11    1    1    2    0    0  0.50858904286E+02 -0.39350581968E+01  0.27247137912E+02  0.57831819551E+02  0.00000000000E+00 0.  1.
         11    1    1    2    0    0 -0.35912632415E+02 -0.11188936057E+02 -0.74058743213E+01  0.38337402514E+02  0.00000000000E+00 0. -1.
</event>
<event>
 7    1  0.2873461E-009  0.1005729E+03  0.7561462E-02  0.1279096E+00
         -1   -1    0    0    0  501 -0.00000000000E+00  0.00000000000E+00  0.19006981517E+02  0.19006981517E+02  0.00000000000E+00 0.  1.
          1   -1    0    0  501    0  0.00000000000E+00 -0.00000000000E+00 -0.70542177241E+03  0.70542177241E+03  0.00000000000E+00 0. -1.
         25    2    1    2    0    0  0.24722165503E+02 -0.33505724076E+02 -0.37403279378E+03  0.39658726211E+03  0.12508839527E+03 0.  0.
          5    1    3    3  502    0 -0.38041834943E+02 -0.15404275036E+02 -0.44761844155E+02  0.60873376671E+02  0.41800000000E+01 0. -1.
         -5    1    3    3    0  502  0.62764000445E+02 -0.18101449041E+02 -0.32927094963E+03  0.33571388544E+03  0.41800000000E+01 0. -1.
        -11    1    1    2    0    0  0.38932050276E+01  0.57170143071E+02 -0.23674543730E+03  0.24358157646E+03  0.00000000000E+00 0.  1.
         11    1    1    2    0    0 -0.28615370530E+02 -0.23664418995E+02 -0.75636559801E+02  0.84259915354E+02  0.00000000000E+00 0. -1.
</event>
<event>
 7    1  0.2873461E-009  0.1384084E+03  0.7561462E-02  0.1215487E+00
         -2   -1    0    0    0  501 -0.00000000000E+00  0.00000000000E+00  0.50205153369E+03  0.50205153369E+03  0.00000000000E+00 0.  1.
          2   -1    0    0  501    0  0.00000000000E+00 -0.00000000000E+00 -0.42919157581E+02  0.42919157581E+02  0.00000000000E+00 0. -1.
         25    2    1    2    0    0  0.10466026349E+03  0.93742085110E+01  0.31251804128E+03  0.35264246416E+03  0.12509010696E+03 0.  0.
          5    1    3    3  502    0  0.12310493862E+01  0.51391621699E+02  0.93766367153E+02  0.10701503760E+03  0.41800000000E+01 0.  1.
         -5    1    3    3    0  502  0.10342921411E+03 -0.42017413188E+02  0.21875167413E+03  0.24562742656E+03  0.41800000000E+01 0.  1.
        -11    1    1    2    0    0 -0.20980872445E+02 -0.20228216968E+02  0.78985481807E+02  0.84190760221E+02  0.00000000000E+00 0. -1.
         11    1    1    2    0    0 -0.83679391048E+02  0.10854008457E+02  0.67628853022E+02  0.10813746690E+03  0.00000000000E+00 0.  1.
</event>
<event>
 7    1  0.2873461E-009  0.1882245E+03  0.7561462E-02  0.1160073E+00
          1   -1    0    0  501    0  0.00000000000E+00  0.00000000000E+00  0.54031028435E+03  0.54031028435E+03  0.00000000000E+00 0. -1.
         -1   -1    0    0    0  501 -0.00000000000E+00 -0.00000000000E+00 -0.77495617314E+02  0.77495617314E+02  0.00000000000E+00 0.  1.
         25    2    1    2    0    0  0.16867201671E+03 -0.19775465579E+02  0.28897395457E+03  0.35776309055E+03  0.12508862571E+03 0.  0.
          5    1    3    3  502    0  0.10188183547E+03  0.29793409958E+02  0.23667764494E+03  0.25942500976E+03  0.41800000000E+01 0.  1.
         -5    1    3    3    0  502  0.66790181241E+02 -0.49568875536E+02  0.52296309625E+02  0.98338080785E+02  0.41800000000E+01 0.  1.
        -11    1    1    2    0    0 -0.11000294109E+03  0.50124300309E+02  0.14269009098E+03  0.18701217766E+03  0.00000000000E+00 0. -1.
         11    1    1    2    0    0 -0.58669075623E+02 -0.30348834730E+02  0.31150621493E+02  0.73030633459E+02  0.00000000000E+00 0.  1.
</event>
<event>
 7    1  0.2873461E-009  0.1220611E+03  0.7561462E-02  0.1239735E+00
          2   -1    0    0  501    0  0.00000000000E+00  0.00000000000E+00  0.30989012104E+03  0.30989012104E+03  0.00000000000E+00 0. -1.
         -2   -1    0    0    0  501 -0.00000000000E+00 -0.00000000000E+00 -0.49852169958E+02  0.49852169958E+02  0.00000000000E+00 0.  1.
         25    2    1    2    0    0 -0.23005740323E+02 -0.53352441748E+02  0.16757312055E+03  0.21703354142E+03  0.12508820984E+03 0.  0.
          5    1    3    3  502    0 -0.43000969512E+02  0.29662775044E+02  0.65704314419E+02  0.84044588972E+02  0.41800000000E+01 0.  1.
         -5    1    3    3    0  502  0.19995229189E+02 -0.83015216792E+02  0.10186880614E+03  0.13298895245E+03  0.41800000000E+01 0.  1.
        -11    1    1    2    0    0 -0.27546975845E+02 -0.60695755418E+01  0.12067241753E+02  0.30680514158E+02  0.00000000000E+00 0.  1.
         11    1    1    2    0    0  0.50552716168E+02  0.59422017290E+02  0.80397588771E+02  0.11202823542E+03  0.00000000000E+00 0. -1.
</event>
<event>
 7    1  0.2873461E-009  0.2234002E+03  0.7561462E-02  0.1131373E+00
          1   -1    0    0  501    0  0.00000000000E+00  0.00000000000E+00  0.14100099973E+03  0.14100099973E+03  0.00000000000E+00 0. -1.
         -1   -1    0    0    0  501 -0.00000000000E+00 -0.00000000000E+00 -0.45165752163E+03  0.45165752163E+03  0.00000000000E+00 0.  1.
         25    2    1    2    0    0  0.21819565965E+03 -0.25046296950E+02 -0.22519832698E+03  0.33852392641E+03  0.12508996522E+03 0.  0.
          5    1    3    3  502    0  0.13234472536E+03  0.13192087570E+02 -0.20156435096E+03  0.24152601823E+03  0.41800000000E+01 0.  1.
         -5    1    3    3    0  502  0.85850934292E+02 -0.38238384520E+02 -0.23633976021E+02  0.96997908185E+02  0.41800000000E+01 0.  1.
        -11    1    1    2    0    0 -0.55201442285E+02  0.47238248017E+01 -0.69826579377E+02  0.89136215640E+02  0.00000000000E+00 0.  1.
         11    1    1    2    0    0 -0.16299421737E+03  0.20322472149E+02 -0.15631615540E+02  0.16499837931E+03  0.00000000000E+00 0. -1.
</event>
<event>
 7    1  0.2873461E-009  0.1129904E+03  0.7561462E-02  0.1255130E+00
          2   -1    0    0  501    0  0.00000000000E+00  0.00000000000E+00  0.48306323526E+03  0.48306323526E+03  0.00000000000E+00 0. -1.
         -2   -1    0    0    0  501 -0.00000000000E+00 -0.00000000000E+00 -0.33570895218E+02  0.33570895218E+02  0.00000000000E+00 0.  1.
         25    2    1    2    0    0  0.10139848441E+02 -0.55454500929E+02  0.32835884631E+03  0.35587359684E+03  0.12509383190E+03 0.  0.
          5    1    3    3  502    0 -0.16479835658E+02 -0.90176831859E+02  0.24530433406E+03  0.26190672900E+03  0.41800000000E+01 0.  1.
         -5    1    3    3    0  502  0.26619684100E+02  0.34722330931E+02  0.83054512255E+02  0.93966867846E+02  0.41800000000E+01 0.  1.
        -11    1    1    2    0    0  0.30517304469E+02  0.25389458578E+02  0.13654403163E+02  0.41980628922E+02  0.00000000000E+00 0.  1.
         11    1    1    2    0    0 -0.40657152910E+02  0.30065042350E+02  0.10747909056E+03  0.11877990471E+03  0.00000000000E+00 0. -1.
</event>
<event>
 7    1  0.2873461E-009  0.1236295E+03  0.7561462E-02  0.1237227E+00
         -1   -1    0    0    0  501 -0.00000000000E+00  0.00000000000E+00  0.87279615020E+02  0.87279615020E+02  0.00000000000E+00 0.  1.
          1   -1    0    0  501    0  0.00000000000E+00 -0.00000000000E+00 -0.24128297526E+03  0.24128297526E+03  0.00000000000E+00 0. -1.
         25    2    1    2    0    0  0.10276867003E+02 -0.91676021583E+02 -0.68147743579E+02  0.16971195300E+03  0.12509166681E+03 0.  0.
          5    1    3    3  502    0  0.63103242725E+02 -0.77066109228E+02 -0.35766534819E+02  0.10591469136E+03  0.41800000000E+01 0.  1.
         -5    1    3    3    0  502 -0.52826375721E+02 -0.14609912355E+02 -0.32381208760E+02  0.63797261631E+02  0.41800000000E+01 0.  1.
        -11    1    1    2    0    0 -0.10234306829E+02  0.56380388724E+02  0.86666680587E+01  0.57953433067E+02  0.00000000000E+00 0.  1.
         11    1    1    2    0    0 -0.42560174441E-01  0.35295632859E+02 -0.94522284716E+02  0.10089720421E+03  0.00000000000E+00 0. -1.
</event>
<event>
 7    1  0.2873461E-009  0.6280909E+02  0.7561462E-02  0.1386408E+00
          1   -1    0    0  501    0  0.00000000000E+00  0.00000000000E+00  0.34015877803E+03  0.34015877803E+03  0.00000000000E+00 0. -1.
         -1   -1    0    0    0  501 -0.00000000000E+00 -0.00000000000E+00 -0.44069061877E+02  0.44069061877E+02  0.00000000000E+00 0.  1.
         25    2    1    2    0    0 -0.58698173575E+02  0.42099152470E+01  0.21133954118E+03  0.25255106628E+03  0.12511770636E+03 0.  0.
          5    1    3    3  502    0 -0.52631406168E+02  0.41783125177E+01  0.13608211329E+02  0.54682529443E+02  0.41800000000E+01 0.  1.
         -5    1    3    3    0  502 -0.60667674070E+01  0.31602729260E-01  0.19773132985E+03  0.19786853684E+03  0.41800000000E+01 0.  1.
        -11    1    1    2    0    0  0.33915078245E+02 -0.16397182974E+02  0.95017306357E+02  0.10221246817E+03  0.00000000000E+00 0. -1.
         11    1    1    2    0    0  0.24783095330E+02  0.12187267727E+02 -0.10267131389E+02  0.29464305452E+02  0.00000000000E+00 0.  1.
</event>
<event>
 7    1  0.2873461E-009  0.2826048E+03  0.7561462E-02  0.1094275E+00
         -1   -1    0    0    0  501 -0.00000000000E+00  0.00000000000E+00  0.10590905541E+03  0.10590905541E+03  0.00000000000E+00 0.  1.
          1   -1    0    0  501    0  0.00000000000E+00 -0.00000000000E+00 -0.91794206646E+03  0.91794206646E+03  0.00000000000E+00 0. -1.
         25    2    1    2    0    0 -0.23551010289E+03 -0.13402755904E+03 -0.59145116944E+03  0.66248898107E+03  0.12509504011E+03 0.  0.
          5    1    3    3  502    0 -0.23692700679E+03 -0.13970326518E+03 -0.59420574335E+03  0.65478954380E+03  0.41800000000E+01 0.  1.
         -5    1    3    3    0  502  0.14169038987E+01  0.56757061404E+01  0.27545739036E+01  0.76994372678E+01  0.41800000000E+01 0.  1.
        -11    1    1    2    0    0  0.35940985288E+02  0.60278685314E+02 -0.79659285380E+02  0.10616438232E+03  0.00000000000E+00 0.  1.
         11    1    1    2    0    0  0.19956911761E+03  0.73748873722E+02 -0.14092255623E+03  0.25519775848E+03  0.00000000000E+00 0. -1.
</event>
<event>
 7    1  0.2873461E-009  0.8960127E+02  0.7561462E-02  0.1303820E+00
         -2   -1    0    0    0  501 -0.00000000000E+00  0.00000000000E+00  0.68225610403E+02  0.68225610403E+02  0.00000000000E+00 0.  1.
          2   -1    0    0  501    0  0.00000000000E+00 -0.00000000000E+00 -0.17975049537E+03  0.17975049537E+03  0.00000000000E+00 0. -1.
         25    2    1    2    0    0  0.85054387709E+01 -0.20944232499E+02 -0.52868048170E+02  0.13762678643E+03  0.12504038733E+03 0.  0.
          5    1    3    3  502    0 -0.55007347741E+02 -0.27612842461E+02 -0.36064239385E+02  0.71458933218E+02  0.41800000000E+01 0. -1.
         -5    1    3    3    0  502  0.63512786512E+02  0.66686099621E+01 -0.16803808786E+02  0.66167853215E+02  0.41800000000E+01 0. -1.
        -11    1    1    2    0    0 -0.13081838567E+02 -0.13481144981E+02  0.18109703003E+02  0.26092855596E+02  0.00000000000E+00 0.  1.
         11    1    1    2    0    0  0.45763997963E+01  0.34425377480E+02 -0.76766539802E+02  0.84256463746E+02  0.00000000000E+00 0. -1.
</event>
<event>
 7    1  0.2873461E-009  0.1852257E+03  0.7561462E-02  0.1162839E+00
         -2   -1    0    0    0  501 -0.00000000000E+00  0.00000000000E+00  0.38966332582E+02  0.38966332582E+02  0.00000000000E+00 0.  1.
          2   -1    0    0  501    0  0.00000000000E+00 -0.00000000000E+00 -0.16421137415E+04  0.16421137415E+04  0.00000000000E+00 0. -1.
         25    2    1    2    0    0  0.54608479397E+02 -0.16221285569E+03 -0.13306715890E+04  0.13474525935E+04  0.12508603938E+03 0.  0.
          5    1    3    3  502    0  0.63509718472E+00 -0.86296095763E+02 -0.10046877410E+04  0.10083959286E+04  0.41800000000E+01 0. -1.
         -5    1    3    3    0  502  0.53973382212E+02 -0.75916759931E+02 -0.32598384804E+03  0.33905666490E+03  0.41800000000E+01 0. -1.
        -11    1    1    2    0    0 -0.36101376840E+02  0.16767243743E+03 -0.22941643128E+03  0.28644241066E+03  0.00000000000E+00 0.  1.
         11    1    1    2    0    0 -0.18507102557E+02 -0.54595817396E+01 -0.43059388587E+02  0.47185069919E+02  0.00000000000E+00 0. -1.
</event>
<event>
 7    1  0.2873461E-009  0.1191306E+03  0.7561462E-02  0.1244538E+00
          3   -1    0    0  501    0  0.00000000000E+00  0.00000000000E+00  0.66750743737E+03  0.66750743737E+03  0.00000000000E+00 0. -1.
         -3   -1    0    0    0  501 -0.00000000000E+00 -0.00000000000E+00 -0.32460998579E+02  0.32460998579E+02  0.00000000000E+00 0.  1.
         25    2    1    2    0    0  0.52775609862E+02 -0.67064199600E+02  0.22275627272E+03  0.26935288032E+03  0.12509094786E+03 0.  0.
          5    1    3    3  502    0  0.46337402983E+02  0.13447739598E+02  0.15945876112E+03  0.16665102914E+03  0.41800000000E+01 0.  1.
         -5    1    3    3    0  502  0.64382068790E+01 -0.80511939197E+02  0.63297511604E+02  0.10270185118E+03  0.41800000000E+01 0.  1.
        -11    1    1    2    0    0 -0.50112952789E+02  0.80736638981E+02  0.40256249391E+03  0.41362576614E+03  0.00000000000E+00 0. -1.
         11    1    1    2    0    0 -0.26626570736E+01 -0.13672439382E+02  0.97276721643E+01  0.16989789495E+02  0.00000000000E+00 0.  1.
</event>
<event>
 7    1  0.2873461E-009  0.1484886E+03  0.7561462E-02  0.1202343E+00
         -1   -1    0    0    0  501 -0.00000000000E+00  0.00000000000E+00  0.88180608551E+02  0.88180608551E+02  0.00000000000E+00 0.  1.
          1   -1    0    0  501    0  0.00000000000E+00 -0.00000000000E+00 -0.35023845026E+03  0.35023845026E+03  0.00000000000E+00 0. -1.
         25    2    1    2    0    0  0.11608893663E+03  0.73544621847E+02 -0.15411232182E+03  0.24141988934E+03  0.12508997812E+03 0.  0.
          5    1    3    3  502    0  0.69198319149E+02  0.74306452961E+02 -0.16435554672E+03  0.19323580016E+03  0.41800000000E+01 0. -1.
         -5    1    3    3    0  502  0.46890617477E+02 -0.76183111312E+00  0.10243224905E+02  0.48184089183E+02  0.41800000000E+01 0. -1.
        -11    1    1    2    0    0 -0.26854134761E+02 -0.48747420916E+02 -0.84972314623E+02  0.10157632525E+03  0.00000000000E+00 0. -1.
         11    1    1    2    0    0 -0.89234801864E+02 -0.24797200932E+02 -0.22973205268E+02  0.95422844215E+02  0.00000000000E+00 0.  1.
</event>
<event>
 7    1  0.2873461E-009  0.1057811E+03  0.7561462E-02  0.1268588E+00
         -2   -1    0    0    0  501 -0.00000000000E+00  0.00000000000E+00  0.48016081548E+02  0.48016081548E+02  0.00000000000E+00 0.  1.
          2   -1    0    0  501    0  0.00000000000E+00 -0.00000000000E+00 -0.26769326636E+03  0.26769326636E+03  0.00000000000E+00 0. -1.
         25    2    1    2    0    0 -0.31466689917E+02  0.23907129510E+01 -0.11905050995E+03  0.17554798998E+03  0.12509278470E+03 0.  0.
          5    1    3    3  502    0  0.16627933121E+01 -0.55149511096E+02 -0.83355848927E+02  0.10004950478E+03  0.41800000000E+01 0.  1.
         -5    1    3    3    0  502 -0.33129483229E+02  0.57540224047E+02 -0.35694661019E+02  0.75498485202E+02  0.41800000000E+01 0.  1.
        -11    1    1    2    0    0  0.22597324964E+02  0.40244152994E+02 -0.23991671754E+02  0.52017605282E+02  0.00000000000E+00 0.  1.
         11    1    1    2    0    0  0.88693649530E+01 -0.42634865945E+02 -0.76635003112E+02  0.88143752648E+02  0.00000000000E+00 0. -1.
</event>
<event>
 7    1  0.2873461E-009  0.1104262E+03  0.7561462E-02  0.1259783E+00
          1   -1    0    0  501    0  0.00000000000E+00  0.00000000000E+00  0.11606871907E+03  0.11606871907E+03  0.00000000000E+00 0. -1.
         -1   -1    0    0    0  501 -0.00000000000E+00 -0.00000000000E+00 -0.21331395405E+03  0.21331395405E+03  0.00000000000E+00 0.  1.
         25    2    1    2    0    0 -0.52273184358E+02 -0.58615725513E+02 -0.13875967349E+03  0.20265825728E+03  0.12509129937E+03 0.  0.
          5    1    3    3  502    0 -0.80444890894E+02 -0.55623957930E+01 -0.48609980580E+02  0.94248200672E+02  0.41800000000E+01 0.  1.
         -5    1    3    3    0  502  0.28171706537E+02 -0.53053329720E+02 -0.90149692906E+02  0.10841005661E+03  0.41800000000E+01 0.  1.
        -11    1    1    2    0    0  0.38521822090E+02  0.32593748151E+02 -0.23270014495E+02  0.55567767368E+02  0.00000000000E+00 0.  1.
         11    1    1    2    0    0  0.13751362267E+02  0.26021977362E+02  0.64784453006E+02  0.71156648469E+02  0.00000000000E+00 0. -1.
</event>
<event>
 7    1  0.2873461E-009  0.1260076E+03  0.7561462E-02  0.1233503E+00
          3   -1    0    0  501    0  0.00000000000E+00  0.00000000000E+00  0.48067208440E+03  0.48067208440E+03  0.00000000000E+00 0. -1.
         -3   -1    0    0    0  501 -0.00000000000E+00 -0.00000000000E+00 -0.50211662223E+02  0.50211662223E+02  0.00000000000E+00 0.  1.
         25    2    1    2    0    0  0.10917098117E+03 -0.15539942137E+02  0.22716989660E+03  0.28182972496E+03  0.12514806838E+03 0.  0.
          5    1    3    3  502    0  0.77271662097E+02  0.31919036016E+02  0.54494633846E+02  0.99884293768E+02  0.41800000000E+01 0.  1.
         -5    1    3    3    0  502  0.31899319074E+02 -0.47458978153E+02  0.17267526275E+03  0.18194543119E+03  0.41800000000E+01 0.  1.
        -11    1    1    2    0    0 -0.65651070809E+02  0.31743783894E+01  0.34354055925E+02  0.74164283419E+02  0.00000000000E+00 0. -1.
         11    1    1    2    0    0 -0.43519910361E+02  0.12365563747E+02  0.16893646965E+03  0.17488973825E+03  0.00000000000E+00 0.  1.
</event>
<event>
 7    1  0.2873461E-009  0.9771990E+02  0.7561462E-02  0.1285165E+00
         -1   -1    0    0    0  501 -0.00000000000E+00  0.00000000000E+00  0.81083599772E+03  0.81083599772E+03  0.00000000000E+00 0.  1.
          1   -1    0    0  501    0  0.00000000000E+00 -0.00000000000E+00 -0.27406778133E+02  0.27406778133E+02  0.00000000000E+00 0. -1.
         25    2    1    2    0    0  0.18163212915E+02  0.90991262825E+02  0.55416218806E+03  0.57563175788E+03  0.12508748055E+03 0.  0.
          5    1    3    3  502    0 -0.23958420491E+01  0.56488289785E+02  0.51900078002E+03  0.52208806632E+03  0.41800000000E+01 0. -1.
         -5    1    3    3    0  502  0.20559054964E+02  0.34502973040E+02  0.35161408041E+02  0.53543691552E+02  0.41800000000E+01 0. -1.
        -11    1    1    2    0    0  0.90394485700E+01 -0.34522053626E+02  0.13881839868E+02  0.38290851324E+02  0.00000000000E+00 0. -1.
         11    1    1    2    0    0 -0.27202661485E+02 -0.56469209200E+02  0.21538519166E+03  0.22432016665E+03  0.00000000000E+00 0.  1.
</event>
<event>
 7    1  0.2873461E-009  0.7895934E+02  0.7561462E-02  0.1332031E+00
         -1   -1    0    0    0  501 -0.00000000000E+00  0.00000000000E+00  0.61515651341E+03  0.61515651341E+03  0.00000000000E+00 0.  1.
          1   -1    0    0  501    0  0.00000000000E+00 -0.00000000000E+00 -0.23012420575E+02  0.23012420575E+02  0.00000000000E+00 0. -1.
         25    2    1    2    0    0 -0.16053317851E+02  0.12779906588E+02  0.21149548681E+03  0.24657485537E+03  0.12509110013E+03 0.  0.
          5    1    3    3  502    0  0.15212681189E+02 -0.18125306826E+02  0.19932438845E+03  0.20076761852E+03  0.41800000000E+01 0. -1.
         -5    1    3    3    0  502 -0.31265999040E+02  0.30905213414E+02  0.12171098365E+02  0.45807236847E+02  0.41800000000E+01 0. -1.
        -11    1    1    2    0    0  0.12978727996E+02 -0.50368705179E+02  0.17706704018E+03  0.18454861300E+03  0.00000000000E+00 0. -1.
         11    1    1    2    0    0  0.30745898553E+01  0.37588798591E+02  0.20358156584E+03  0.20704546562E+03  0.00000000000E+00 0.  1.
</event>
<event>
 7    1  0.2873461E-009  0.1523764E+03  0.7561462E-02  0.1197583E+00
         -2   -1    0    0    0  501 -0.00000000000E+00  0.00000000000E+00  0.61378974896E+02  0.61378974896E+02  0.00000000000E+00 0.  1.
          2   -1    0    0  501    0  0.00000000000E+00 -0.00000000000E+00 -0.47660639119E+03  0.47660639119E+03  0.00000000000E+00 0. -1.
         25    2    1    2    0    0  0.29535547951E+02  0.13660865330E+03 -0.24280321534E+03  0.30681475309E+03  0.12509044162E+03 0.  0.
          5    1    3    3  502    0  0.52544664391E+02  0.82020644428E+02 -0.22436269711E+03  0.24463119205E+03  0.41800000000E+01 0. -1.
         -5    1    3    3    0  502 -0.23009116440E+02  0.54588008867E+02 -0.18440518237E+02  0.62183561045E+02  0.41800000000E+01 0. -1.
        -11    1    1    2    0    0 -0.38597905503E+02 -0.64306331644E+02 -0.11959519371E+03  0.14116696836E+03  0.00000000000E+00 0. -1.
         11    1    1    2    0    0  0.90623575518E+01 -0.72302321651E+02 -0.52829007238E+02  0.90003644628E+02  0.00000000000E+00 0.  1.
</event>
<event>
 7    1  0.2913507E-009  0.1973005E+03  0.7561462E-02  0.1152037E+00
         -2   -1    0    0    0  501 -0.00000000000E+00  0.00000000000E+00  0.64705832019E+02  0.64705832019E+02  0.00000000000E+00 0. -1.
          2   -1    0    0  501    0  0.00000000000E+00 -0.00000000000E+00 -0.90825373850E+03  0.90825373850E+03  0.00000000000E+00 0.  1.
         25    2    1    2    0    0  0.17727429929E+03  0.40579451293E+02 -0.66992299481E+03  0.70534851115E+03  0.12508730615E+03 0.  0.
          5    1    3    3  502    0  0.77957134736E+02 -0.32500548061E+02 -0.16303479549E+03  0.18366114837E+03  0.41800000000E+01 0.  1.
         -5    1    3    3    0  502  0.99317164549E+02  0.73079999354E+02 -0.50688819932E+03  0.52168736279E+03  0.41800000000E+01 0.  1.
        -11    1    1    2    0    0 -0.10030378677E+03 -0.14516996474E+01 -0.14563976120E+03  0.17684427363E+03  0.00000000000E+00 0.  1.
         11    1    1    2    0    0 -0.76970512519E+02 -0.39127751646E+02 -0.27985150471E+02  0.90766785738E+02  0.00000000000E+00 0. -1.
</event>
<event>
 7    1  0.2873461E-009  0.9792208E+02  0.7561462E-02  0.1284727E+00
          2   -1    0    0  501    0  0.00000000000E+00  0.00000000000E+00  0.44297313211E+03  0.44297313211E+03  0.00000000000E+00 0. -1.
         -2   -1    0    0    0  501 -0.00000000000E+00 -0.00000000000E+00 -0.43260571333E+02  0.43260571333E+02  0.00000000000E+00 0.  1.
         25    2    1    2    0    0 -0.43245964935E+01 -0.43916256555E+02  0.33911960274E+03  0.36413871441E+03  0.12509020202E+03 0.  0.
          5    1    3    3  502    0 -0.16925280506E+02 -0.82014455749E+02  0.16120264180E+03  0.18170470603E+03  0.41800000000E+01 0. -1.
         -5    1    3    3    0  502  0.12600684013E+02  0.38098199194E+02  0.17791696095E+03  0.18243400838E+03  0.41800000000E+01 0. -1.
        -11    1    1    2    0    0  0.13030129063E+01 -0.13797750279E+02 -0.19133142283E+02  0.23625259555E+02  0.00000000000E+00 0.  1.
         11    1    1    2    0    0  0.30215835872E+01  0.57714006834E+02  0.79726100320E+02  0.98469729483E+02  0.00000000000E+00 0. -1.
</event>
<event>
 7    1  0.2873461E-009  0.1164278E+03  0.7561462E-02  0.1249109E+00
         -2   -1    0    0    0  501 -0.00000000000E+00  0.00000000000E+00  0.42794842041E+02  0.42794842041E+02  0.00000000000E+00 0.  1.
          2   -1    0    0  501    0  0.00000000000E+00 -0.00000000000E+00 -0.46021479532E+03  0.46021479532E+03  0.00000000000E+00 0. -1.
         25    2    1    2    0    0 -0.65604560553E+02  0.24565456869E+02 -0.13010937777E+03  0.19359916846E+03  0.12507904624E+03 0.  0.
          5    1    3    3  502    0  0.22749444587E+02 -0.12404418587E+02  0.61849341084E+01  0.26965397075E+02  0.41800000000E+01 0. -1.
         -5    1    3    3    0  502 -0.88354005140E+02  0.36969875455E+02 -0.13629431188E+03  0.16663377139E+03  0.41800000000E+01 0. -1.
        -11    1    1    2    0    0  0.70581456043E+02 -0.48923895530E+02 -0.25195240018E+03  0.26618659141E+03  0.00000000000E+00 0.  1.
         11    1    1    2    0    0 -0.49768954898E+01  0.24358438661E+02 -0.35358175328E+02  0.43223877490E+02  0.00000000000E+00 0. -1.
</event>
<event>
 6    1  0.2873461E-009  0.1090999E+03  0.7561462E-02  0.1262246E+00
         -2   -1    0    0    0  501 -0.00000000000E+00  0.00000000000E+00  0.16257639468E+02  0.16257639468E+02  0.00000000000E+00 0.  1.
          2   -1    0    0  501    0  0.00000000000E+00 -0.00000000000E+00 -0.95336693699E+03  0.95336693699E+03  0.00000000000E+00 0. -1.
          5    1    1    2  502    0  0.53284854794E+02 -0.43247387791E+02 -0.38456035858E+03  0.39065810384E+03  0.41800000000E+01 0. -1.
         -5    1    1    2    0  502 -0.52358787167E+02 -0.76895496227E+01 -0.11225567711E+03  0.12417480103E+03  0.41800000000E+01 0. -1.
        -11    1    1    2    0    0  0.18693663332E+02 -0.17232156449E+02 -0.34562536745E+02  0.42906517114E+02  0.00000000000E+00 0.  1.
         11    1    1    2    0    0 -0.19619730959E+02  0.68169093863E+02 -0.40573072509E+03  0.41188515448E+03  0.00000000000E+00 0. -1.
</event>
<event>
 7    1  0.2873461E-009  0.1239953E+03  0.7561462E-02  0.1236648E+00
         -2   -1    0    0    0  501 -0.00000000000E+00  0.00000000000E+00  0.19685930744E+03  0.19685930744E+03  0.00000000000E+00 0.  1.
          2   -1    0    0  501    0  0.00000000000E+00 -0.00000000000E+00 -0.11226369205E+03  0.11226369205E+03  0.00000000000E+00 0. -1.
         25    2    1    2    0    0 -0.55277438856E+02  0.72422700001E+02  0.97314721991E+02  0.18280671300E+03  0.12508995355E+03 0.  0.
          5    1    3    3  502    0 -0.68144883585E+02 -0.11713906957E+02  0.38345115042E+02  0.79175507719E+02  0.41800000000E+01 0.  1.
         -5    1    3    3    0  502  0.12867444729E+02  0.84136606958E+02  0.58969606949E+02  0.10363120528E+03  0.41800000000E+01 0.  1.
        -11    1    1    2    0    0  0.16745383156E+02 -0.82907854699E+01  0.33510962724E+02  0.38368341161E+02  0.00000000000E+00 0.  1.
         11    1    1    2    0    0  0.38532055700E+02 -0.64131914531E+02 -0.46230069331E+02  0.87947945333E+02  0.00000000000E+00 0. -1.
</event>
<event>
 7    1  0.2873461E-009  0.2587005E+03  0.7561462E-02  0.1107926E+00
          1   -1    0    0  501    0  0.00000000000E+00  0.00000000000E+00  0.13818651199E+04  0.13818651199E+04  0.00000000000E+00 0. -1.
         -1   -1    0    0    0  501 -0.00000000000E+00 -0.00000000000E+00 -0.62657888020E+02  0.62657888020E+02  0.00000000000E+00 0.  1.
         25    2    1    2    0    0  0.18896974288E+03 -0.16076290692E+03  0.39320520352E+03  0.48146678080E+03  0.12508258463E+03 0.  0.
          5    1    3    3  502    0  0.24886172553E+02 -0.79869296853E+02  0.19211605756E+03  0.20958167414E+03  0.41800000000E+01 0. -1.
         -5    1    3    3    0  502  0.16408357033E+03 -0.80893610067E+02  0.20108914596E+03  0.27188510666E+03  0.41800000000E+01 0. -1.
        -11    1    1    2    0    0 -0.13632691158E+03  0.93825588272E+02  0.74304227234E+03  0.76124903042E+03  0.00000000000E+00 0. -1.
         11    1    1    2    0    0 -0.52642831299E+02  0.66937318648E+02  0.18295975606E+03  0.20180719673E+03  0.00000000000E+00 0.  1.
</event>
<event>
 7    1  0.2873461E-009  0.1025750E+03  0.7561462E-02  0.1274972E+00
         -1   -1    0    0    0  501 -0.00000000000E+00  0.00000000000E+00  0.19590656777E+03  0.19590656777E+03  0.00000000000E+00 0.  1.
          1   -1    0    0  501    0  0.00000000000E+00 -0.00000000000E+00 -0.76420062797E+02  0.76420062797E+02  0.00000000000E+00 0. -1.
         25    2    1    2    0    0  0.10341746252E+02 -0.20923595087E+02  0.12566007863E+03  0.17884688542E+03  0.12510397483E+03 0.  0.
          5    1    3    3  502    0  0.56162592326E+02  0.25493734512E+02  0.64364732517E+02  0.89243814733E+02  0.41800000000E+01 0.  1.
         -5    1    3    3    0  502 -0.45820846074E+02 -0.46417329599E+02  0.61295346110E+02  0.89603070689E+02  0.41800000000E+01 0.  1.
        -11    1    1    2    0    0  0.24934375449E+02  0.32394079994E+02  0.22438902010E+02  0.46632647588E+02  0.00000000000E+00 0.  1.
         11    1    1    2    0    0 -0.35276121701E+02 -0.11470484907E+02 -0.28612475662E+02  0.46847097560E+02  0.00000000000E+00 0. -1.
</event>
<event>
 7    1  0.2873461E-009  0.1299429E+03  0.7561462E-02  0.1227540E+00
          1   -1    0    0  501    0  0.00000000000E+00  0.00000000000E+00  0.78461583766E+03  0.78461583766E+03  0.00000000000E+00 0. -1.
         -1   -1    0    0    0  501 -0.00000000000E+00 -0.00000000000E+00 -0.30895932455E+02  0.30895932455E+02  0.00000000000E+00 0.  1.
         25    2    1    2    0    0 -0.81100606444E+02  0.57087323534E+01  0.20601863531E+03  0.25436355190E+03  0.12508893016E+03 0.  0.
          5    1    3    3  502    0 -0.38616905636E+02  0.61477371709E+02  0.14103877232E+03  0.15868251426E+03  0.41800000000E+01 0. -1.
         -5    1    3    3    0  502 -0.42483700808E+02 -0.55768639356E+02  0.64979862985E+02  0.95681037638E+02  0.41800000000E+01 0. -1.
        -11    1    1    2    0    0  0.98723049693E+02 -0.85157219121E+01  0.50866542851E+03  0.51822705084E+03  0.00000000000E+00 0.  1.
         11    1    1    2    0    0 -0.17622443248E+02  0.28069895587E+01  0.39035841392E+02  0.42921167384E+02  0.00000000000E+00 0. -1.
</event>
<event>
 7    1  0.2873461E-009  0.8029519E+02  0.7561462E-02  0.1328216E+00
         -2   -1    0    0    0  501 -0.00000000000E+00  0.00000000000E+00  0.29785677593E+03  0.29785677593E+03  0.00000000000E+00 0. -1.
          2   -1    0    0  501    0  0.00000000000E+00 -0.00000000000E+00 -0.43540339303E+02  0.43540339303E+02  0.00000000000E+00 0.  1.
         25    2    1    2    0    0  0.27204886298E+02 -0.14404562957E+02  0.13919051581E+03  0.18966373563E+03  0.12510290023E+03 0.  0.
          5    1    3    3  502    0 -0.28058765120E+02  0.61596439106E+01 -0.87751749452E+01  0.30326747410E+02  0.41800000000E+01 0.  1.
         -5    1    3    3    0  502  0.55263651418E+02 -0.20564206868E+02  0.14796569076E+03  0.15933698822E+03  0.41800000000E+01 0.  1.
        -11    1    1    2    0    0  0.18526386646E+02 -0.95272001937E+01  0.93463588795E+02  0.95757177152E+02  0.00000000000E+00 0. -1.
         11    1    1    2    0    0 -0.45731272944E+02  0.23931763151E+02  0.21662332015E+02  0.55976202452E+02  0.00000000000E+00 0.  1.
</event>
<event>
 7    1  0.2873461E-009  0.1047081E+03  0.7561462E-02  0.1270696E+00
          2   -1    0    0  501    0  0.00000000000E+00  0.00000000000E+00  0.98117593675E+02  0.98117593675E+02  0.00000000000E+00 0. -1.
         -2   -1    0    0    0  501 -0.00000000000E+00 -0.00000000000E+00 -0.16983554630E+03  0.16983554630E+03  0.00000000000E+00 0.  1.
         25    2    1    2    0    0  0.68647561867E+02  0.13537005730E+01 -0.31109064797E+02  0.14604762745E+03  0.12509122798E+03 0.  0.
          5    1    3    3  502    0 -0.22324593346E+02 -0.30002384628E+02 -0.32501005684E+02  0.49722412672E+02  0.41800000000E+01 0.  1.
         -5    1    3    3    0  502  0.90972155213E+02  0.31356085201E+02  0.13919408875E+01  0.96325214782E+02  0.41800000000E+01 0.  1.
        -11    1    1    2    0    0 -0.51461803874E+02 -0.14914648582E+02  0.20211737145E+02  0.57264983355E+02  0.00000000000E+00 0. -1.
         11    1    1    2    0    0 -0.17185757993E+02  0.13560948009E+02 -0.60820624976E+02  0.64640529169E+02  0.00000000000E+00 0.  1.
</event>
<event>
 7    1  0.2873461E-009  0.1236463E+03  0.7561462E-02  0.1237200E+00
         -2   -1    0    0    0  501 -0.00000000000E+00  0.00000000000E+00  0.41823991990E+02  0.41823991990E+02  0.00000000000E+00 0.  1.
          2   -1    0    0  501    0  0.00000000000E+00 -0.00000000000E+00 -0.53683601702E+03  0.53683601702E+03  0.00000000000E+00 0. -1.
         25    2    1    2    0    0  0.74555230871E+02  0.31551526691E+02 -0.14544239276E+03  0.20821618454E+03  0.12508600484E+03 0.  0.
          5    1    3    3  502    0  0.48727425974E+02 -0.41748177980E+02 -0.35310825887E+02  0.73359384073E+02  0.41800000000E+01 0.  1.
         -5    1    3    3    0  502  0.25827804898E+02  0.73299704671E+02 -0.11013156688E+03  0.13485680047E+03  0.41800000000E+01 0.  1.
        -11    1    1    2    0    0 -0.15161585390E+02 -0.42181818553E+02 -0.61373613153E+02  0.75999341309E+02  0.00000000000E+00 0.  1.
         11    1    1    2    0    0 -0.59393645481E+02  0.10630291862E+02 -0.28819601912E+03  0.29444448316E+03  0.00000000000E+00 0. -1.
</event>
<event>
 7    1  0.2873461E-009  0.1004237E+03  0.7561462E-02  0.1279407E+00
         -1   -1    0    0    0  501 -0.00000000000E+00  0.00000000000E+00  0.21533894469E+02  0.21533894469E+02  0.00000000000E+00 0.  1.
          1   -1    0    0  501    0  0.00000000000E+00 -0.00000000000E+00 -0.76772156598E+03  0.76772156598E+03  0.00000000000E+00 0. -1.
         25    2    1    2    0    0  0.22530993988E+02 -0.11977798259E+02 -0.21593962026E+03  0.25083500935E+03  0.12504866643E+03 0.  0.
          5    1    3    3  502    0  0.14369051912E+02 -0.58299409967E+02 -0.49816356007E+02  0.78130868300E+02  0.41800000000E+01 0.  1.
         -5    1    3    3    0  502  0.81619420754E+01  0.46321611708E+02 -0.16612326426E+03  0.17270414105E+03  0.41800000000E+01 0.  1.
        -11    1    1    2    0    0 -0.24571249329E+02 -0.37000885717E+02 -0.25706154871E+03  0.26087056496E+03  0.00000000000E+00 0.  1.
         11    1    1    2    0    0  0.20402553415E+01  0.48978683976E+02 -0.27318650254E+03  0.27754988614E+03  0.00000000000E+00 0. -1.
</event>
<event>
 7    1  0.2873461E-009  0.1036783E+03  0.7561462E-02  0.1272746E+00
          1   -1    0    0  501    0  0.00000000000E+00  0.00000000000E+00  0.11742359799E+04  0.11742359799E+04  0.00000000000E+00 0.  1.
         -1   -1    0    0    0  501 -0.00000000000E+00 -0.00000000000E+00 -0.27618583627E+02  0.27618583627E+02  0.00000000000E+00 0. -1.
         25    2    1    2    0    0  0.32498157452E+02  0.36126109450E+01  0.10734147547E+04  0.10811775967E+04  0.12512625117E+03 0.  0.
          5    1    3    3  502    0  0.70912837609E+02  0.34079166090E+02  0.73356355676E+03  0.73778247763E+03  0.41800000000E+01 0. -1.
         -5    1    3    3    0  502 -0.38414680157E+02 -0.30466555145E+02  0.33985119799E+03  0.34339511908E+03  0.41800000000E+01 0. -1.
        -11    1    1    2    0    0  0.22823928676E+02 -0.71741544201E+01 -0.53662766683E+01  0.24519321710E+02  0.00000000000E+00 0. -1.
         11    1    1    2    0    0 -0.55322086128E+02  0.35615434751E+01  0.78568918201E+02  0.96157645108E+02  0.00000000000E+00 0.  1.
</event>
<event>
 7    1  0.2873461E-009  0.1581779E+03  0.7561462E-02  0.1190769E+00
          2   -1    0    0  501    0  0.00000000000E+00  0.00000000000E+00  0.83048381312E+02  0.83048381312E+02  0.00000000000E+00 0. -1.
         -2   -1    0    0    0  501 -0.00000000000E+00 -0.00000000000E+00 -0.37740267162E+03  0.37740267162E+03  0.00000000000E+00 0.  1.
         25    2    1    2    0    0  0.10516324436E+03 -0.69130035467E+02 -0.23312452127E+03  0.29297727821E+03  0.12510145229E+03 0.  0.
          5    1    3    3  502    0  0.55741680691E+02  0.25276333488E+02 -0.42765672600E+02  0.74782371946E+02  0.41800000000E+01 0. -1.
         -5    1    3    3    0  502  0.49421563668E+02 -0.94406368955E+02 -0.19035884867E+03  0.21819490627E+03  0.41800000000E+01 0. -1.
        -11    1    1    2    0    0 -0.81184223857E+02  0.86596409720E+02 -0.26177327059E+02  0.12155274095E+03  0.00000000000E+00 0.  1.
         11    1    1    2    0    0 -0.23979020503E+02 -0.17466374253E+02 -0.35052441979E+02  0.45921033770E+02  0.00000000000E+00 0. -1.
</event>
<event>
 7    1  0.2873461E-009  0.1384441E+03  0.7561462E-02  0.1215438E+00
         -1   -1    0    0    0  501 -0.00000000000E+00  0.00000000000E+00  0.51192011868E+02  0.51192011868E+02  0.00000000000E+00 0.  1.
          1   -1    0    0  501    0  0.00000000000E+00 -0.00000000000E+00 -0.53806781119E+03  0.53806781119E+03  0.00000000000E+00 0. -1.
         25    2    1    2    0    0  0.10997533313E+03  0.13921475392E+02 -0.16853558191E+03  0.23737345764E+03  0.12511408653E+03 0.  0.
          5    1    3    3  502    0 -0.88684797358E+01 -0.14637450906E+02  0.10533476191E+02  0.20526359212E+02  0.41800000000E+01 0. -1.
         -5    1    3    3    0  502  0.11884381286E+03  0.28558926298E+02 -0.17906905810E+03  0.21684709843E+03  0.41800000000E+01 0. -1.
        -11    1    1    2    0    0 -0.10331303919E+03 -0.39449872055E+02 -0.30005583635E+03  0.31978646218E+03  0.00000000000E+00 0. -1.
         11    1    1    2    0    0 -0.66622939367E+01  0.25528396663E+02 -0.18284381064E+02  0.32099903233E+02  0.00000000000E+00 0.  1.
</event>
<event>
 7    1  0.2873461E-009  0.9947472E+02  0.7561462E-02  0.1281404E+00
          1   -1    0    0  501    0  0.00000000000E+00  0.00000000000E+00  0.34959308430E+03  0.34959308430E+03  0.00000000000E+00 0. -1.
         -1   -1    0    0    0  501 -0.00000000000E+00 -0.00000000000E+00 -0.37204425014E+02  0.37204425014E+02  0.00000000000E+00 0.  1.
         25    2    1    2    0    0 -0.60260296172E+01  0.66358712098E+01  0.24220344403E+03  0.27274621443E+03  0.12509053267E+03 0.  0.
          5    1    3    3  502    0  0.58864375539E+02  0.33233488490E+01  0.96593060544E+02  0.11324200237E+03  0.41800000000E+01 0.  1.
         -5    1    3    3    0  502 -0.64890405156E+02  0.33125223608E+01  0.14561038349E+03  0.15950421206E+03  0.41800000000E+01 0.  1.
        -11    1    1    2    0    0 -0.32772405638E+02 -0.13298467100E+02  0.21316228133E+01  0.35431957529E+02  0.00000000000E+00 0.  1.
         11    1    1    2    0    0  0.38798435255E+02  0.66625958905E+01  0.68053592445E+02  0.78619337360E+02  0.00000000000E+00 0. -1.
</event>
<event>
 7    1  0.2873461E-009  0.2158435E+03  0.7561462E-02  0.1137020E+00
         -2   -1    0    0    0  501 -0.00000000000E+00  0.00000000000E+00  0.22588675524E+03  0.22588675524E+03  0.00000000000E+00 0. -1.
          2   -1    0    0  501    0  0.00000000000E+00 -0.00000000000E+00 -0.25592705725E+03  0.25592705725E+03  0.00000000000E+00 0.  1.
         25    2    1    2    0    0  0.18344936989E+03 -0.20286517744E+02  0.74348628287E+02  0.23503232201E+03  0.12508900729E+03 0.  0.
          5    1    3    3  502    0  0.63615712555E+02 -0.63218304198E+02  0.47805099732E+01  0.89910169309E+02  0.41800000000E+01 0.  1.
         -5    1    3    3    0  502  0.11983365734E+03  0.42931786454E+02  0.69568118314E+02  0.14512215270E+03  0.41800000000E+01 0.  1.
        -11    1    1    2    0    0 -0.15215972448E+02  0.42227580303E+02 -0.53123469030E+02  0.69547087053E+02  0.00000000000E+00 0.  1.
         11    1    1    2    0    0 -0.16823339744E+03 -0.21941062559E+02 -0.51265461261E+02  0.17723440343E+03  0.00000000000E+00 0. -1.
</event>
<event>
 7    1  0.2873461E-009  0.1958919E+03  0.7561462E-02  0.1153252E+00
          1   -1    0    0  501    0  0.00000000000E+00  0.00000000000E+00  0.93352990005E+03  0.93352990005E+03  0.00000000000E+00 0. -1.
         -1   -1    0    0    0  501 -0.00000000000E+00 -0.00000000000E+00 -0.48076496936E+02  0.48076496936E+02  0.00000000000E+00 0.  1.
         25    2    1    2    0    0  0.16814177081E+03  0.49236447138E+01  0.63628315842E+03  0.66992489089E+03  0.12508878595E+03 0.  0.
          5    1    3    3  502    0  0.16559620936E+03  0.41011234165E+02  0.47930519648E+03  0.50877791781E+03  0.41800000000E+01 0.  1.
         -5    1    3    3    0  502  0.25455614547E+01 -0.36087589451E+02  0.15697796194E+03  0.16114697307E+03  0.41800000000E+01 0.  1.
        -11    1    1    2    0    0 -0.48165726253E+02  0.33576308279E+02  0.56609037646E+02  0.81559112343E+02  0.00000000000E+00 0.  1.
         11    1    1    2    0    0 -0.11997604456E+03 -0.38499952992E+02  0.19256120705E+03  0.23012239375E+03  0.00000000000E+00 0. -1.
</event>
<event>
 7    1  0.2873461E-009  0.1635962E+03  0.7561462E-02  0.1184695E+00
          1   -1    0    0  501    0  0.00000000000E+00  0.00000000000E+00  0.45647815202E+03  0.45647815202E+03  0.00000000000E+00 0. -1.
         -1   -1    0    0    0  501 -0.00000000000E+00 -0.00000000000E+00 -0.73140522116E+02  0.73140522116E+02  0.00000000000E+00 0.  1.
         25    2    1    2    0    0  0.41330248189E+02  0.11780025103E+03  0.90343493748E+02  0.19848131655E+03  0.12509115716E+03 0.  0.
          5    1    3    3  502    0  0.56849017329E+02 -0.37777809324E+00  0.22611720815E+02  0.61324675342E+02  0.41800000000E+01 0.  1.
         -5    1    3    3    0  502 -0.15518769139E+02  0.11817802912E+03  0.67731772933E+02  0.13715664121E+03  0.41800000000E+01 0.  1.
        -11    1    1    2    0    0  0.22336006901E+02 -0.63266841179E+02  0.96740621651E+02  0.11772993789E+03  0.00000000000E+00 0.  1.
         11    1    1    2    0    0 -0.63666255090E+02 -0.54533409852E+02  0.19625351450E+03  0.21340741970E+03  0.00000000000E+00 0. -1.
</event>
<event>
 7    1  0.2873461E-009  0.9321398E+02  0.7561462E-02  0.1295250E+00
         -1   -1    0    0    0  501 -0.00000000000E+00  0.00000000000E+00  0.11245292813E+03  0.11245292813E+03  0.00000000000E+00 0.  1.
          1   -1    0    0  501    0  0.00000000000E+00 -0.00000000000E+00 -0.13391474551E+03  0.13391474551E+03  0.00000000000E+00 0. -1.
         25    2    1    2    0    0 -0.15648868344E+02  0.37045609998E+02  0.30383535898E+02  0.13486103940E+03  0.12508827441E+03 0.  0.
          5    1    3    3  502    0  0.34945949205E+02  0.83273969494E+00  0.57051127084E+02  0.67038916480E+02  0.41800000000E+01 0.  1.
         -5    1    3    3    0  502 -0.50594817548E+02  0.36212870303E+02 -0.26667591185E+02  0.67822122924E+02  0.41800000000E+01 0.  1.
        -11    1    1    2    0    0 -0.85074612786E+01 -0.56938594060E+02 -0.55542425027E+02  0.79995883450E+02  0.00000000000E+00 0. -1.
         11    1    1    2    0    0  0.24156329622E+02  0.19892984062E+02  0.36970717483E+01  0.31510750788E+02  0.00000000000E+00 0.  1.
</event>
<event>
 7    1  0.2873461E-009  0.2527409E+03  0.7561462E-02  0.1111585E+00
         -1   -1    0    0    0  501 -0.00000000000E+00  0.00000000000E+00  0.92430832391E+02  0.92430832391E+02  0.00000000000E+00 0.  1.
          1   -1    0    0  501    0  0.00000000000E+00 -0.00000000000E+00 -0.90316842333E+03  0.90316842333E+03  0.00000000000E+00 0. -1.
         25    2    1    2    0    0  0.23156797114E+03  0.15368457923E+02 -0.18456535250E+03  0.32182511064E+03  0.12508843964E+03 0.  0.
          5    1    3    3  502    0  0.19908051561E+03 -0.30126394596E+02 -0.17088382615E+03  0.26412005942E+03  0.41800000000E+01 0. -1.
         -5    1    3    3    0  502  0.32487455536E+02  0.45494852519E+02 -0.13681526354E+02  0.57705051220E+02  0.41800000000E+01 0. -1.
        -11    1    1    2    0    0 -0.43905501957E+02 -0.39204278143E+02 -0.12766141949E+03  0.14057775981E+03  0.00000000000E+00 0. -1.
         11    1    1    2    0    0 -0.18766246919E+03  0.23835820220E+02 -0.49851081894E+03  0.53319638527E+03  0.00000000000E+00 0.  1.
</event>
<event>
 7    1  0.3206082E-009  0.2554231E+03  0.7561462E-02  0.1109925E+00
         -2   -1    0    0    0  501 -0.00000000000E+00  0.00000000000E+00  0.19602040691E+03  0.19602040691E+03  0.00000000000E+00 0.  1.
          2   -1    0    0  501    0  0.00000000000E+00 -0.00000000000E+00 -0.39271943061E+03  0.39271943061E+03  0.00000000000E+00 0. -1.
         25    2    1    2    0    0 -0.18124417275E+03  0.14412039797E+03 -0.21419985814E+03  0.33933692241E+03  0.12509128035E+03 0.  0.
          5    1    3    3  502    0 -0.19068010100E+03  0.96757464300E+02 -0.16359687831E+03  0.26926254624E+03  0.41800000000E+01 0.  1.
         -5    1    3    3    0  502  0.94359282551E+01  0.47362933673E+02 -0.50602979825E+02  0.70074376168E+02  0.41800000000E+01 0.  1.
        -11    1    1    2    0    0  0.93308494602E+02 -0.12911157300E+03  0.16902929269E+02  0.16019357810E+03  0.00000000000E+00 0.  1.
         11    1    1    2    0    0  0.87935678145E+02 -0.15008824973E+02  0.59790517165E+00  0.89209337003E+02  0.00000000000E+00 0. -1.
</event>
<event>
 7    1  0.2873461E-009  0.8927694E+02  0.7561462E-02  0.1304612E+00
          1   -1    0    0  501    0  0.00000000000E+00  0.00000000000E+00  0.26372154451E+03  0.26372154451E+03  0.00000000000E+00 0. -1.
         -1   -1    0    0    0  501 -0.00000000000E+00 -0.00000000000E+00 -0.45359726778E+02  0.45359726778E+02  0.00000000000E+00 0.  1.
         25    2    1    2    0    0 -0.65814986772E+01  0.11427658567E+02  0.10243747933E+03  0.16221878144E+03  0.12509032087E+03 0.  0.
          5    1    3    3  502    0  0.37283059278E+01  0.63573979145E+02  0.25755941362E+02  0.68821450179E+02  0.41800000000E+01 0. -1.
         -5    1    3    3    0  502 -0.10309804605E+02 -0.52146320577E+02  0.76681537971E+02  0.93397331260E+02  0.41800000000E+01 0. -1.
        -11    1    1    2    0    0  0.27400696628E+02  0.12138136425E+02  0.11107365211E+03  0.11504559411E+03  0.00000000000E+00 0. -1.
         11    1    1    2    0    0 -0.20819197951E+02 -0.23565794993E+02  0.48506862898E+01  0.31816895738E+02  0.00000000000E+00 0.  1.
</event>
<event>
 7    1  0.2873461E-009  0.1228940E+03  0.7561462E-02  0.1238398E+00
         -1   -1    0    0    0  501 -0.00000000000E+00  0.00000000000E+00  0.82291668280E+03  0.82291668280E+03  0.00000000000E+00 0.  1.
          1   -1    0    0  501    0  0.00000000000E+00 -0.00000000000E+00 -0.32925186700E+02  0.32925186700E+02  0.00000000000E+00 0. -1.
         25    2    1    2    0    0 -0.15859452236E+02 -0.96693622174E+02  0.61585506630E+03  0.63602360183E+03  0.12508949040E+03 0.  0.
          5    1    3    3  502    0  0.24321525527E+02  0.35148144754E+01  0.24757506486E+02  0.35132563985E+02  0.41800000000E+01 0.  1.
         -5    1    3    3    0  502 -0.40180977763E+02 -0.10020843665E+03  0.59109755981E+03  0.60089103785E+03  0.41800000000E+01 0.  1.
        -11    1    1    2    0    0  0.15836772429E+02 -0.28292454887E+00 -0.45781174401E+01  0.16487648909E+02  0.00000000000E+00 0. -1.
         11    1    1    2    0    0  0.22679807417E-01  0.96976546723E+02  0.17871454724E+03  0.20333061876E+03  0.00000000000E+00 0.  1.
</event>
<event>
 7    1  0.2873461E-009  0.1351701E+03  0.7561462E-02  0.1219980E+00
          1   -1    0    0  501    0  0.00000000000E+00  0.00000000000E+00  0.94605190618E+03  0.94605190618E+03  0.00000000000E+00 0. -1.
         -1   -1    0    0    0  501 -0.00000000000E+00 -0.00000000000E+00 -0.26241535428E+02  0.26241535428E+02  0.00000000000E+00 0.  1.
         25    2    1    2    0    0 -0.96640619486E+02  0.31808559191E+00  0.66762241372E+03  0.68608044214E+03  0.12508866964E+03 0.  0.
          5    1    3    3  502    0 -0.52241349134E+02  0.47325779808E+02  0.16747482808E+03  0.18175306995E+03  0.41800000000E+01 0.  1.
         -5    1    3    3    0  502 -0.44399270352E+02 -0.47007694216E+02  0.50014758564E+03  0.50432737220E+03  0.41800000000E+01 0.  1.
        -11    1    1    2    0    0  0.35873184753E+02 -0.46411343569E+02  0.12087878270E+03  0.13435988354E+03  0.00000000000E+00 0.  1.
         11    1    1    2    0    0  0.60767434733E+02  0.46093257977E+02  0.13130917433E+03  0.15185311593E+03  0.00000000000E+00 0. -1.
</event>
<event>
 7    1  0.2873461E-009  0.1043232E+03  0.7561462E-02  0.1271459E+00
         -1   -1    0    0    0  501 -0.00000000000E+00  0.00000000000E+00  0.74631578964E+03  0.74631578964E+03  0.00000000000E+00 0.  1.
          1   -1    0    0  501    0  0.00000000000E+00 -0.00000000000E+00 -0.19775176378E+02  0.19775176378E+02  0.00000000000E+00 0. -1.
         25    2    1    2    0    0 -0.14063027224E+02  0.33824822588E+02  0.56628214635E+03  0.58108854066E+03  0.12508611216E+03 0.  0.
          5    1    3    3  502    0  0.53187843212E+02  0.33424677783E+02  0.27276303403E+03  0.27993445820E+03  0.41800000000E+01 0. -1.
         -5    1    3    3    0  502 -0.67250870436E+02  0.40014480449E+00  0.29351911232E+03  0.30115408247E+03  0.41800000000E+01 0. -1.
        -11    1    1    2    0    0  0.93149536218E+01  0.21159094879E+02  0.10486335142E+02  0.25385800790E+02  0.00000000000E+00 0. -1.
         11    1    1    2    0    0  0.47480736023E+01 -0.54983917466E+02  0.14977213177E+03  0.15961662457E+03  0.00000000000E+00 0.  1.
</event>
<event>
 7    1  0.2873461E-009  0.1106903E+03  0.7561462E-02  0.1259297E+00
          2   -1    0    0  501    0  0.00000000000E+00  0.00000000000E+00  0.11980744462E+03  0.11980744462E+03  0.00000000000E+00 0. -1.
         -2   -1    0    0    0  501 -0.00000000000E+00 -0.00000000000E+00 -0.14728414307E+03  0.14728414307E+03  0.00000000000E+00 0.  1.
         25    2    1    2    0    0 -0.42081649099E+02 -0.50626242157E+02  0.23856320843E+02  0.14335448789E+03  0.12508998188E+03 0.  0.
          5    1    3    3  502    0  0.18000823134E+02 -0.51128326234E+02  0.53456293165E+02  0.76244232935E+02  0.41800000000E+01 0.  1.
         -5    1    3    3    0  502 -0.60082472234E+02  0.50208407655E+00 -0.29599972322E+02  0.67110254951E+02  0.41800000000E+01 0.  1.
        -11    1    1    2    0    0  0.51191052724E+02  0.69212625101E+02 -0.55763751361E+02  0.10256952432E+03  0.00000000000E+00 0.  1.
         11    1    1    2    0    0 -0.91094036247E+01 -0.18586382944E+02  0.44307320653E+01  0.21167575486E+02  0.00000000000E+00 0. -1.
</event>
<event>
 7    1  0.2873461E-009  0.9493842E+02  0.7561462E-02  0.1291315E+00
         -1   -1    0    0    0  501 -0.00000000000E+00  0.00000000000E+00  0.22388521346E+02  0.22388521346E+02  0.00000000000E+00 0.  1.
          1   -1    0    0  501    0  0.00000000000E+00 -0.00000000000E+00 -0.11628943389E+04  0.11628943389E+04  0.00000000000E+00 0. -1.
         25    2    1    2    0    0 -0.30959707092E+02  0.13327171928E+02 -0.10684855555E+04  0.10763105617E+04  0.12508767263E+03 0.  0.
          5    1    3    3  502    0 -0.78931856721E+02  0.66040795570E+01 -0.74144281722E+03  0.74567337050E+03  0.41800000000E+01 0.  1.
         -5    1    3    3    0  502  0.47972149629E+02  0.67230923712E+01 -0.32704273831E+03  0.33063719118E+03  0.41800000000E+01 0.  1.
        -11    1    1    2    0    0  0.91769219241E+01  0.20067928057E+02  0.46528641805E+01  0.22551868605E+02  0.00000000000E+00 0.  1.
         11    1    1    2    0    0  0.21782785168E+02 -0.33395099985E+02 -0.76673126248E+02  0.86420430000E+02  0.00000000000E+00 0. -1.
</event>
<event>
 7    1  0.2873461E-009  0.1652608E+03  0.7561462E-02  0.1182882E+00
          1   -1    0    0  501    0  0.00000000000E+00  0.00000000000E+00  0.45357988410E+02  0.45357988410E+02  0.00000000000E+00 0. -1.
         -1   -1    0    0    0  501 -0.00000000000E+00 -0.00000000000E+00 -0.77113390980E+03  0.77113390980E+03  0.00000000000E+00 0.  1.
         25    2    1    2    0    0  0.17776346660E+02  0.13982761556E+03 -0.49935491270E+03  0.53373166091E+03  0.12508555653E+03 0.  0.
          5    1    3    3  502    0  0.69841312806E+02  0.62190792828E+02 -0.21880745993E+03  0.23799092548E+03  0.41800000000E+01 0. -1.
         -5    1    3    3    0  502 -0.52064966146E+02  0.77636822730E+02 -0.28054745276E+03  0.29574073543E+03  0.41800000000E+01 0. -1.
        -11    1    1    2    0    0 -0.18286713823E+02 -0.45882717063E+02 -0.16067009028E+03  0.16809076577E+03  0.00000000000E+00 0.  1.
         11    1    1    2    0    0  0.51036716257E+00 -0.93944898495E+02 -0.65750918418E+02  0.11466947153E+03  0.00000000000E+00 0. -1.
</event>
<event>
 7    1  0.2942576E-009  0.1238580E+03  0.7561462E-02  0.1236865E+00
         -2   -1    0    0    0  501 -0.00000000000E+00  0.00000000000E+00  0.23568967604E+02  0.23568967604E+02  0.00000000000E+00 0.  1.
          2   -1    0    0  501    0  0.00000000000E+00 -0.00000000000E+00 -0.82179674727E+03  0.82179674727E+03  0.00000000000E+00 0. -1.
         25    2    1    2    0    0 -0.49141276543E+02 -0.70619563142E+02 -0.47616788362E+03  0.49978095600E+03  0.12507263019E+03 0.  0.
          5    1    3    3  502    0  0.17394155114E+02 -0.49258407293E+02 -0.69034596201E+02  0.86672920765E+02  0.41800000000E+01 0.  1.
         -5    1    3    3    0  502 -0.66535431657E+02 -0.21361155849E+02 -0.40713328742E+03  0.41310803523E+03  0.41800000000E+01 0.  1.
        -11    1    1    2    0    0  0.73887713408E+02  0.34561351322E+02 -0.21259707494E+03  0.22770901930E+03  0.00000000000E+00 0. -1.
         11    1    1    2    0    0 -0.24746436865E+02  0.36058211820E+02 -0.10946282110E+03  0.11787573957E+03  0.00000000000E+00 0.  1.
</event>
<event>
 6    1  0.2873461E-009  0.1879064E+03  0.7561462E-02  0.1160363E+00
          2   -1    0    0  501    0  0.00000000000E+00  0.00000000000E+00  0.44115892822E+03  0.44115892822E+03  0.00000000000E+00 0.  1.
         -2   -1    0    0    0  501 -0.00000000000E+00 -0.00000000000E+00 -0.96799838370E+02  0.96799838370E+02  0.00000000000E+00 0. -1.
          5    1    1    2  502    0  0.18911628736E+01 -0.16175680867E+03  0.25418770127E+03  0.30132656956E+03  0.41800000000E+01 0. -1.
         -5    1    1    2    0  502 -0.33331550239E+02  0.46146711733E+01  0.18076640173E+02  0.38425574183E+02  0.41800000000E+01 0. -1.
        -11    1    1    2    0    0 -0.26365033063E+02  0.27290251694E+02 -0.18397743650E+01  0.37990230002E+02  0.00000000000E+00 0.  1.
         11    1    1    2    0    0  0.57805420428E+02  0.12985188580E+03  0.73934522776E+02  0.16021639284E+03  0.00000000000E+00 0. -1.
</event>
<event>
 7    1  0.2873461E-009  0.2215575E+03  0.7561462E-02  0.1132727E+00
         -2   -1    0    0    0  501 -0.00000000000E+00  0.00000000000E+00  0.22088358348E+03  0.22088358348E+03  0.00000000000E+00 0.  1.
          2   -1    0    0  501    0  0.00000000000E+00 -0.00000000000E+00 -0.23254740919E+03  0.23254740919E+03  0.00000000000E+00 0. -1.
         25    2    1    2    0    0  0.17905026048E+03 -0.85898875026E+02 -0.10897661680E+02  0.23495389319E+03  0.12508781070E+03 0.  0.
          5    1    3    3  502    0 -0.87144843833E+01 -0.25702929882E+02 -0.25123956536E+02  0.37219194438E+02  0.41800000000E+01 0.  1.
         -5    1    3    3    0  502  0.18776474486E+03 -0.60195945144E+02  0.14226294856E+02  0.19773469875E+03  0.41800000000E+01 0.  1.
        -11    1    1    2    0    0 -0.57880427302E+02  0.77832050379E+02  0.18132961288E+01  0.97011648649E+02  0.00000000000E+00 0. -1.
         11    1    1    2    0    0 -0.12116983317E+03  0.80668246473E+01 -0.25794601576E+01  0.12146545083E+03  0.00000000000E+00 0.  1.
</event>
<event>
 7    1  0.2873461E-009  0.8739707E+02  0.7561462E-02  0.1309280E+00
         -2   -1    0    0    0  501 -0.00000000000E+00  0.00000000000E+00  0.30265128446E+02  0.30265128446E+02  0.00000000000E+00 0.  1.
          2   -1    0    0  501    0  0.00000000000E+00 -0.00000000000E+00 -0.41819219605E+03  0.41819219605E+03  0.00000000000E+00 0. -1.
         25    2    1    2    0    0  0.19846785016E+02 -0.20794763461E+02 -0.19850373236E+03  0.23638418887E+03  0.12508971150E+03 0.  0.
          5    1    3    3  502    0  0.55583734208E+02 -0.15636990127E+02 -0.19058425754E+03  0.19918307807E+03  0.41800000000E+01 0.  1.
         -5    1    3    3    0  502 -0.35736949192E+02 -0.51577733338E+01 -0.79194748228E+01  0.37201110800E+02  0.41800000000E+01 0.  1.
        -11    1    1    2    0    0 -0.34263669095E+02 -0.18328769360E+02 -0.14905868455E+03  0.15404036564E+03  0.00000000000E+00 0. -1.
         11    1    1    2    0    0  0.14416884078E+02  0.39123532821E+02 -0.40364650698E+02  0.58032769991E+02  0.00000000000E+00 0.  1.
</event>
<event>
 7    1  0.2873461E-009  0.6498528E+02  0.7561462E-02  0.1378027E+00
          1   -1    0    0  501    0  0.00000000000E+00  0.00000000000E+00  0.45818095175E+03  0.45818095175E+03  0.00000000000E+00 0.  1.
         -1   -1    0    0    0  501 -0.00000000000E+00 -0.00000000000E+00 -0.43163289677E+02  0.43163289677E+02  0.00000000000E+00 0. -1.
         25    2    1    2    0    0  0.41067110057E+02  0.18379066436E+02  0.36351428889E+03  0.38705948926E+03  0.12509241539E+03 0.  0.
          5    1    3    3  502    0  0.68568812484E+01  0.21943963554E+02  0.34852535721E+03  0.34930781752E+03  0.41800000000E+01 0. -1.
         -5    1    3    3    0  502  0.34210228808E+02 -0.35648971175E+01  0.14988931676E+02  0.37751671742E+02  0.41800000000E+01 0. -1.
        -11    1    1    2    0    0  0.49371475601E+01 -0.24994405756E+02  0.61654970871E+02  0.66711552060E+02  0.00000000000E+00 0.  1.
         11    1    1    2    0    0 -0.46004257617E+02  0.66153393200E+01 -0.10151597686E+02  0.47573200111E+02  0.00000000000E+00 0. -1.
</event>
<event>
 7    1  0.2873461E-009  0.2057489E+03  0.7561462E-02  0.1144977E+00
          2   -1    0    0  501    0  0.00000000000E+00  0.00000000000E+00  0.25593890266E+03  0.25593890266E+03  0.00000000000E+00 0. -1.
         -2   -1    0    0    0  501 -0.00000000000E+00 -0.00000000000E+00 -0.22204507608E+03  0.22204507608E+03  0.00000000000E+00 0.  1.
         25    2    1    2    0    0 -0.16954376145E+03 -0.71462347255E+02 -0.87389813637E+02  0.23903256773E+03  0.12509050637E+03 0.  0.
          5    1    3    3  502    0 -0.14008753109E+03 -0.46267610071E+00 -0.80789964868E+02  0.16176903678E+03  0.41800000000E+01 0.  1.
         -5    1    3    3    0  502 -0.29456230362E+02 -0.70999671154E+02 -0.65998487685E+01  0.77263530950E+02  0.41800000000E+01 0.  1.
        -11    1    1    2    0    0  0.14452126190E+03  0.83165414066E+02  0.12837077478E+03  0.21043273760E+03  0.00000000000E+00 0. -1.
         11    1    1    2    0    0  0.25022499551E+02 -0.11703066811E+02 -0.70871345648E+01  0.28518673407E+02  0.00000000000E+00 0.  1.
</event>
<event>
 7    1  0.2873461E-009  0.1685535E+03  0.7561462E-02  0.1179365E+00
          1   -1    0    0  501    0  0.00000000000E+00  0.00000000000E+00  0.30835661573E+03  0.30835661573E+03  0.00000000000E+00 0. -1.
         -1   -1    0    0    0  501 -0.00000000000E+00 -0.00000000000E+00 -0.11226790171E+03  0.11226790171E+03  0.00000000000E+00 0.  1.
         25    2    1    2    0    0 -0.24341154496E+01 -0.14317564200E+03  0.14485096223E+03  0.23902673615E+03  0.12508712946E+03 0.  0.
          5    1    3    3  502    0  0.39677034690E+02 -0.98153818328E+02  0.14200103305E+03  0.17717281090E+03  0.41800000000E+01 0.  1.
         -5    1    3    3    0  502 -0.42111150140E+02 -0.45021823670E+02  0.28499291742E+01  0.61853925251E+02  0.41800000000E+01 0.  1.
        -11    1    1    2    0    0  0.38138616754E+02  0.24246876682E+02 -0.46410728033E+01  0.45431318202E+02  0.00000000000E+00 0.  1.
         11    1    1    2    0    0 -0.35704501304E+02  0.11892876532E+03  0.55878824591E+02  0.13616646309E+03  0.00000000000E+00 0. -1.
</event>
<event>
 7    1  0.2873461E-009  0.1136972E+03  0.7561462E-02  0.1253873E+00
         -2   -1    0    0    0  501 -0.00000000000E+00  0.00000000000E+00  0.28512266148E+03  0.28512266148E+03  0.00000000000E+00 0.  1.
          2   -1    0    0  501    0  0.00000000000E+00 -0.00000000000E+00 -0.54695019419E+02  0.54695019419E+02  0.00000000000E+00 0. -1.
         25    2    1    2    0    0 -0.42660675101E+00 -0.61867083288E+02  0.12119383851E+03  0.18483267915E+03  0.12508978697E+03 0.  0.
          5    1    3    3  502    0 -0.43533523937E+02  0.56539559003E+01  0.60637360988E+01  0.44512652349E+02  0.41800000000E+01 0. -1.
         -5    1    3    3    0  502  0.43106917186E+02 -0.67521039189E+02  0.11513010241E+03  0.14032002680E+03  0.41800000000E+01 0. -1.
        -11    1    1    2    0    0 -0.74967588720E+01 -0.19726098807E+02  0.48714780941E+02  0.53089078442E+02  0.00000000000E+00 0.  1.
         11    1    1    2    0    0  0.79233656231E+01  0.81593182095E+02  0.60519022610E+02  0.10189592330E+03  0.00000000000E+00 0. -1.
</event>
<event>
 7    1  0.2873461E-009  0.1018390E+03  0.7561462E-02  0.1276476E+00
          1   -1    0    0  501    0  0.00000000000E+00  0.00000000000E+00  0.74112518849E+02  0.74112518849E+02  0.00000000000E+00 0. -1.
         -1   -1    0    0    0  501 -0.00000000000E+00 -0.00000000000E+00 -0.18154912079E+03  0.18154912079E+03  0.00000000000E+00 0.  1.
         25    2    1    2    0    0 -0.25922813114E+02  0.25575485109E+02 -0.70652787282E+02  0.14820548129E+03  0.12508777181E+03 0.  0.
          5    1    3    3  502    0 -0.30745504347E+02 -0.36835837133E+02  0.66815185838E+01  0.48623862716E+02  0.41800000000E+01 0. -1.
         -5    1    3    3    0  502  0.48226912335E+01  0.62411322242E+02 -0.77334305865E+02  0.99581618577E+02  0.41800000000E+01 0. -1.
        -11    1    1    2    0    0 -0.31090806647E+02 -0.16000879935E+02  0.60746310085E+01  0.35490386847E+02  0.00000000000E+00 0. -1.
         11    1    1    2    0    0  0.57013619761E+02 -0.95746051733E+01 -0.42858445666E+02  0.71965771498E+02  0.00000000000E+00 0.  1.
</event>
<event>
 7    1  0.2873461E-009  0.1126699E+03  0.7561462E-02  0.1255704E+00
         -4   -1    0    0    0  501 -0.00000000000E+00  0.00000000000E+00  0.31311564599E+03  0.31311564599E+03  0.00000000000E+00 0. -1.
          4   -1    0    0  501    0  0.00000000000E+00 -0.00000000000E+00 -0.53986647277E+02  0.53986647277E+02  0.00000000000E+00 0.  1.
         25    2    1    2    0    0 -0.34383659404E+02  0.34183998727E+02  0.68207706750E+02  0.15050762576E+03  0.12509785110E+03 0.  0.
          5    1    3    3  502    0 -0.38864343664E+02 -0.36829046171E+02  0.28169678585E+01  0.53779397153E+02  0.41800000000E+01 0. -1.
         -5    1    3    3    0  502  0.44806842594E+01  0.71013044898E+02  0.65390738892E+02  0.96728228609E+02  0.41800000000E+01 0. -1.
        -11    1    1    2    0    0  0.60108357302E+01 -0.61012998024E+02  0.13627069127E+03  0.14942696334E+03  0.00000000000E+00 0. -1.
         11    1    1    2    0    0  0.28372823674E+02  0.26828999297E+02  0.54650600691E+02  0.67167704162E+02  0.00000000000E+00 0.  1.
</event>
<event>
 7    1  0.2873461E-009  0.1438119E+03  0.7561462E-02  0.1208290E+00
          1   -1    0    0  501    0  0.00000000000E+00  0.00000000000E+00  0.59067510623E+03  0.59067510623E+03  0.00000000000E+00 0. -1.
         -1   -1    0    0    0  501 -0.00000000000E+00 -0.00000000000E+00 -0.46086763966E+02  0.46086763966E+02  0.00000000000E+00 0.  1.
         25    2    1    2    0    0  0.84944811159E+02  0.75101851203E+02  0.38684613851E+03  0.42208104666E+03  0.12508623454E+03 0.  0.
          5    1    3    3  502    0  0.15780666678E+02  0.81455270004E+02  0.29724358284E+03  0.30863442839E+03  0.41800000000E+01 0.  1.
         -5    1    3    3    0  502  0.69164144482E+02 -0.63534188013E+01  0.89602555669E+02  0.11344661826E+03  0.41800000000E+01 0.  1.
        -11    1    1    2    0    0 -0.86993752322E+02 -0.33352452128E+02  0.66949138503E+02  0.11472787871E+03  0.00000000000E+00 0.  1.
         11    1    1    2    0    0  0.20489411632E+01 -0.41749399075E+02  0.90793065250E+02  0.99952944832E+02  0.00000000000E+00 0. -1.
</event>
<event>
 7    1  0.2873461E-009  0.1019797E+03  0.7561462E-02  0.1276187E+00
          2   -1    0    0  501    0  0.00000000000E+00  0.00000000000E+00  0.75651854622E+02  0.75651854622E+02  0.00000000000E+00 0. -1.
         -2   -1    0    0    0  501 -0.00000000000E+00 -0.00000000000E+00 -0.24916950017E+03  0.24916950017E+03  0.00000000000E+00 0.  1.
         25    2    1    2    0    0 -0.84977908074E+01 -0.77367039297E+02 -0.13198863009E+03  0.19780520490E+03  0.12509208365E+03 0.  0.
          5    1    3    3  502    0 -0.27800333843E+02 -0.37698912018E+02 -0.14433638246E+03  0.15180424971E+03  0.41800000000E+01 0. -1.
         -5    1    3    3    0  502  0.19302543035E+02 -0.39668127279E+02  0.12347752366E+02  0.46000955185E+02  0.41800000000E+01 0. -1.
        -11    1    1    2    0    0  0.35802554784E+02  0.61230399096E+01 -0.34998256478E+02  0.50439989128E+02  0.00000000000E+00 0.  1.
         11    1    1    2    0    0 -0.27304763976E+02  0.71243999387E+02 -0.65307589729E+01  0.76576160763E+02  0.00000000000E+00 0. -1.
</event>
<event>
 7    1  0.2873461E-009  0.1048318E+03  0.7561462E-02  0.1270451E+00
         -1   -1    0    0    0  501 -0.00000000000E+00  0.00000000000E+00  0.73096047120E+02  0.73096047120E+02  0.00000000000E+00 0.  1.
          1   -1    0    0  501    0  0.00000000000E+00 -0.00000000000E+00 -0.16760768202E+03  0.16760768202E+03  0.00000000000E+00 0. -1.
         25    2    1    2    0    0 -0.73771612681E+00  0.10961676300E+02 -0.68248886957E+02  0.14292048245E+03  0.12509057183E+03 0.  0.
          5    1    3    3  502    0 -0.18949236149E+02 -0.54309082540E+02 -0.32142820962E+02  0.66024111780E+02  0.41800000000E+01 0.  1.
         -5    1    3    3    0  502  0.18211520022E+02  0.65270758840E+02 -0.36106065995E+02  0.76896370674E+02  0.41800000000E+01 0.  1.
        -11    1    1    2    0    0 -0.26159457969E+02  0.26987335691E+02 -0.33937742397E+02  0.50639943602E+02  0.00000000000E+00 0. -1.
         11    1    1    2    0    0  0.26897174096E+02 -0.37949011992E+02  0.76749944579E+01  0.47143303081E+02  0.00000000000E+00 0.  1.
</event>
<event>
 7    1  0.2873461E-009  0.1228750E+03  0.7561462E-02  0.1238428E+00
          1   -1    0    0  501    0  0.00000000000E+00  0.00000000000E+00  0.72246403414E+02  0.72246403414E+02  0.00000000000E+00 0. -1.
         -1   -1    0    0    0  501 -0.00000000000E+00 -0.00000000000E+00 -0.27561964167E+03  0.27561964167E+03  0.00000000000E+00 0.  1.
         25    2    1    2    0    0  0.82604408224E+02 -0.34767829507E+02 -0.99098976540E+02  0.18303153713E+03  0.12509055203E+03 0.  0.
          5    1    3    3  502    0 -0.19837648980E+02 -0.60739246896E+01 -0.69319724622E+02  0.72478420926E+02  0.41800000000E+01 0.  1.
         -5    1    3    3    0  502  0.10244205720E+03 -0.28693904817E+02 -0.29779251917E+02  0.11055311621E+03  0.41800000000E+01 0.  1.
        -11    1    1    2    0    0 -0.91401680228E+01 -0.22944024389E+02 -0.52514430536E+02  0.58032200899E+02  0.00000000000E+00 0.  1.
         11    1    1    2    0    0 -0.73464240202E+02  0.57711853896E+02 -0.51759831181E+02  0.10680230706E+03  0.00000000000E+00 0. -1.
</event>
<event>
 7    1  0.2873461E-009  0.1862056E+03  0.7561462E-02  0.1161929E+00
         -2   -1    0    0    0  501 -0.00000000000E+00  0.00000000000E+00  0.29643825923E+02  0.29643825923E+02  0.00000000000E+00 0.  1.
          2   -1    0    0  501    0  0.00000000000E+00 -0.00000000000E+00 -0.14599292257E+04  0.14599292257E+04  0.00000000000E+00 0. -1.
         25    2    1    2    0    0  0.70519811156E+02 -0.14269799381E+03 -0.10574491499E+04  0.10766525661E+04  0.12508509981E+03 0.  0.
          5    1    3    3  502    0 -0.96651378576E+01  0.17625314362E+02 -0.17275600266E+03  0.17397176625E+03  0.41800000000E+01 0. -1.
         -5    1    3    3    0  502  0.80184949014E+02 -0.16032330817E+03 -0.88469314726E+03  0.90268079984E+03  0.41800000000E+01 0. -1.
        -11    1    1    2    0    0 -0.55343800207E+02  0.38839809087E+02 -0.19536456835E+03  0.20673360045E+03  0.00000000000E+00 0.  1.
         11    1    1    2    0    0 -0.15176010949E+02  0.10385818472E+03 -0.17747168154E+03  0.20618688511E+03  0.00000000000E+00 0. -1.
</event>
<event>
 7    1  0.2873461E-009  0.1096927E+03  0.7561462E-02  0.1261140E+00
          1   -1    0    0  501    0  0.00000000000E+00  0.00000000000E+00  0.55342599346E+03  0.55342599346E+03  0.00000000000E+00 0. -1.
         -1   -1    0    0    0  501 -0.00000000000E+00 -0.00000000000E+00 -0.28459211098E+02  0.28459211098E+02  0.00000000000E+00 0.  1.
         25    2    1    2    0    0 -0.12661690194E+02 -0.28037620512E+02  0.19148790428E+03  0.23078400837E+03  0.12508882633E+03 0.  0.
          5    1    3    3  502    0  0.55263505436E+02 -0.96055034778E+01  0.64873595342E+02  0.85862544236E+02  0.41800000000E+01 0. -1.
         -5    1    3    3    0  502 -0.67925195629E+02 -0.18432117034E+02  0.12661430894E+03  0.14492146414E+03  0.41800000000E+01 0. -1.
        -11    1    1    2    0    0 -0.14496367242E+02  0.53485107577E+02  0.28306306975E+03  0.28843630640E+03  0.00000000000E+00 0. -1.
         11    1    1    2    0    0  0.27158057436E+02 -0.25447487065E+02  0.50415808340E+02  0.62664889789E+02  0.00000000000E+00 0.  1.
</event>
<event>
 7    1  0.2873461E-009  0.8904529E+02  0.7561462E-02  0.1305180E+00
          3   -1    0    0  501    0  0.00000000000E+00  0.00000000000E+00  0.13906393008E+03  0.13906393008E+03  0.00000000000E+00 0. -1.
         -3   -1    0    0    0  501 -0.00000000000E+00 -0.00000000000E+00 -0.10490705108E+03  0.10490705108E+03  0.00000000000E+00 0.  1.
         25    2    1    2    0    0 -0.26728651189E+02  0.62849205045E+01  0.66158346616E+02  0.14414929333E+03  0.12509264935E+03 0.  0.
          5    1    3    3  502    0  0.28919163946E+01  0.48238900256E+02 -0.12523975477E+02  0.50096676937E+02  0.41800000000E+01 0.  1.
         -5    1    3    3    0  502 -0.29620567584E+02 -0.41953979752E+02  0.78682322093E+02  0.94052616396E+02  0.41800000000E+01 0.  1.
        -11    1    1    2    0    0 -0.25345888033E+02 -0.57063910930E+01 -0.39426998407E+02  0.47217212358E+02  0.00000000000E+00 0.  1.
         11    1    1    2    0    0  0.52074539222E+02 -0.57852941151E+00  0.74255307906E+01  0.52604475466E+02  0.00000000000E+00 0. -1.
</event>
<event>
 7    1  0.2873461E-009  0.1365497E+03  0.7561462E-02  0.1218048E+00
         -1   -1    0    0    0  501 -0.00000000000E+00  0.00000000000E+00  0.70557105101E+02  0.70557105101E+02  0.00000000000E+00 0.  1.
          1   -1    0    0  501    0  0.00000000000E+00 -0.00000000000E+00 -0.31002193835E+03  0.31002193835E+03  0.00000000000E+00 0. -1.
         25    2    1    2    0    0  0.98483671649E+02  0.26450460516E+01 -0.16013823220E+03  0.22582714829E+03  0.12509043786E+03 0.  0.
          5    1    3    3  502    0  0.22559436232E+02  0.46926088591E+02 -0.11635761214E+03  0.12754431488E+03  0.41800000000E+01 0.  1.
         -5    1    3    3    0  502  0.75924235417E+02 -0.44281042539E+02 -0.43780620054E+02  0.98282833416E+02  0.41800000000E+01 0.  1.
        -11    1    1    2    0    0 -0.40001943881E+02 -0.45339649934E+02 -0.35667207842E+02  0.70199637361E+02  0.00000000000E+00 0. -1.
         11    1    1    2    0    0 -0.58481727768E+02  0.42694603882E+02 -0.43659393213E+02  0.84552257800E+02  0.00000000000E+00 0.  1.
</event>
<event>
 7    1  0.2873461E-009  0.9857900E+02  0.7561462E-02  0.1283313E+00
         -2   -1    0    0    0  501 -0.00000000000E+00  0.00000000000E+00  0.36900381657E+02  0.36900381657E+02  0.00000000000E+00 0.  1.
          2   -1    0    0  501    0  0.00000000000E+00 -0.00000000000E+00 -0.59340496418E+03  0.59340496418E+03  0.00000000000E+00 0. -1.
         25    2    1    2    0    0  0.65357754159E+02  0.39785583841E+02 -0.16493087109E+03  0.22067030401E+03  0.12505463656E+03 0.  0.
          5    1    3    3  502    0  0.14125429595E+02  0.65524155897E+01  0.20106173870E+02  0.25771933164E+02  0.41800000000E+01 0.  1.
         -5    1    3    3    0  502  0.51232324564E+02  0.33233168251E+02 -0.18503704496E+03  0.19489837085E+03  0.41800000000E+01 0.  1.
        -11    1    1    2    0    0 -0.89187705289E+02 -0.32046042244E+02 -0.32354211907E+03  0.33713632022E+03  0.00000000000E+00 0. -1.
         11    1    1    2    0    0  0.23829951129E+02 -0.77395415969E+01 -0.68031592365E+02  0.72498721607E+02  0.00000000000E+00 0.  1.
</event>
<event>
 7    1  0.2873461E-009  0.1829048E+03  0.7561462E-02  0.1165021E+00
          2   -1    0    0  501    0  0.00000000000E+00  0.00000000000E+00  0.75699439162E+03  0.75699439162E+03  0.00000000000E+00 0. -1.
         -2   -1    0    0    0  501 -0.00000000000E+00 -0.00000000000E+00 -0.47052859844E+02  0.47052859844E+02  0.00000000000E+00 0.  1.
         25    2    1    2    0    0  0.65448403356E+02  0.13680617624E+03  0.45143830988E+03  0.49238240743E+03  0.12507783242E+03 0.  0.
          5    1    3    3  502    0  0.10129478144E+03  0.79915185009E+02  0.30460835759E+03  0.33083348297E+03  0.41800000000E+01 0. -1.
         -5    1    3    3    0  502 -0.35846378082E+02  0.56890991232E+02  0.14682995228E+03  0.16154892445E+03  0.41800000000E+01 0. -1.
        -11    1    1    2    0    0 -0.46598457485E+02 -0.19464913611E+02  0.11316411308E+03  0.12392100545E+03  0.00000000000E+00 0.  1.
         11    1    1    2    0    0 -0.18849945871E+02 -0.11734126263E+03  0.14533910881E+03  0.18774383858E+03  0.00000000000E+00 0. -1.
</event>
<event>
 7    1  0.2963807E-009  0.1392576E+03  0.7561462E-02  0.1214331E+00
          1   -1    0    0  501    0  0.00000000000E+00  0.00000000000E+00  0.39251356345E+02  0.39251356345E+02  0.00000000000E+00 0. -1.
         -1   -1    0    0    0  501 -0.00000000000E+00 -0.00000000000E+00 -0.64312329176E+03  0.64312329176E+03  0.00000000000E+00 0.  1.
         25    2    1    2    0    0  0.86948078875E+02 -0.71279740279E+02 -0.38268427755E+03  0.41801328842E+03  0.12508830167E+03 0.  0.
          5    1    3    3  502    0  0.98592105488E+02 -0.64328536734E+01 -0.18770728943E+03  0.21216334220E+03  0.41800000000E+01 0. -1.
         -5    1    3    3    0  502 -0.11644026613E+02 -0.64846886606E+02 -0.19497698812E+03  0.20584994621E+03  0.41800000000E+01 0. -1.
        -11    1    1    2    0    0 -0.64663506417E+02  0.61615027984E+02 -0.22278098802E+03  0.24001906040E+03  0.00000000000E+00 0.  1.
         11    1    1    2    0    0 -0.22284572458E+02  0.96647122956E+01  0.15933301533E+01  0.24342299283E+02  0.00000000000E+00 0. -1.
</event>
<event>
 7    1  0.2873461E-009  0.1253762E+03  0.7561462E-02  0.1234482E+00
         -1   -1    0    0    0  501 -0.00000000000E+00  0.00000000000E+00  0.16808687999E+02  0.16808687999E+02  0.00000000000E+00 0.  1.
          1   -1    0    0  501    0  0.00000000000E+00 -0.00000000000E+00 -0.11090390876E+04  0.11090390876E+04  0.00000000000E+00 0. -1.
         25    2    1    2    0    0  0.65189312113E+02 -0.34514508288E+02 -0.77077556110E+03  0.78433584225E+03  0.12508737007E+03 0.  0.
          5    1    3    3  502    0  0.10003784160E+03 -0.19528574321E+02 -0.64094886426E+03  0.64901606603E+03  0.41800000000E+01 0.  1.
         -5    1    3    3    0  502 -0.34848529485E+02 -0.14985933966E+02 -0.12982669683E+03  0.13531977622E+03  0.41800000000E+01 0.  1.
        -11    1    1    2    0    0 -0.82612064625E+02  0.14215563379E+02 -0.19492597365E+03  0.21218616983E+03  0.00000000000E+00 0.  1.
         11    1    1    2    0    0  0.17422752513E+02  0.20298944909E+02 -0.12652886484E+03  0.12932576351E+03  0.00000000000E+00 0. -1.
</event>
<event>
 7    1  0.2873461E-009  0.1093859E+03  0.7561462E-02  0.1261711E+00
         -2   -1    0    0    0  501 -0.00000000000E+00  0.00000000000E+00  0.27432789741E+02  0.27432789741E+02  0.00000000000E+00 0.  1.
          2   -1    0    0  501    0  0.00000000000E+00 -0.00000000000E+00 -0.49403824097E+03  0.49403824097E+03  0.00000000000E+00 0. -1.
         25    2    1    2    0    0  0.10164255272E+02  0.17642168517E+02 -0.33727920801E+03  0.36030466698E+03  0.12509049004E+03 0.  0.
          5    1    3    3  502    0 -0.41236509229E+02 -0.33559334212E+02 -0.16219926343E+03  0.17074177012E+03  0.41800000000E+01 0. -1.
         -5    1    3    3    0  502  0.51400764501E+02  0.51201502729E+02 -0.17507994458E+03  0.18956289687E+03  0.41800000000E+01 0. -1.
        -11    1    1    2    0    0 -0.49470958997E+02 -0.20073087841E+02 -0.52726272254E+02  0.75035754313E+02  0.00000000000E+00 0.  1.
         11    1    1    2    0    0  0.39306703725E+02  0.24309193243E+01 -0.76599970960E+02  0.86130609412E+02  0.00000000000E+00 0. -1.
</event>
<event>
 7    1  0.2873461E-009  0.6454610E+02  0.7561462E-02  0.1379687E+00
         -4   -1    0    0    0  501 -0.00000000000E+00  0.00000000000E+00  0.15871966215E+03  0.15871966215E+03  0.00000000000E+00 0.  1.
          4   -1    0    0  501    0  0.00000000000E+00 -0.00000000000E+00 -0.73790077119E+02  0.73790077119E+02  0.00000000000E+00 0. -1.
         25    2    1    2    0    0 -0.93402198711E+01  0.54941818124E+02  0.15095944017E+02  0.13777024890E+03  0.12508761278E+03 0.  0.
          5    1    3    3  502    0 -0.21782745712E+02  0.13357368382E+02  0.65908339213E+02  0.70811643666E+02  0.41800000000E+01 0. -1.
         -5    1    3    3    0  502  0.12442525841E+02  0.41584449741E+02 -0.50812395196E+02  0.66958605236E+02  0.41800000000E+01 0. -1.
        -11    1    1    2    0    0  0.16173840468E+02 -0.40746867781E+02  0.33617833428E+02  0.55245443919E+02  0.00000000000E+00 0.  1.
         11    1    1    2    0    0 -0.68336205966E+01 -0.14194950343E+02  0.36215807587E+02  0.39494046448E+02  0.00000000000E+00 0. -1.
</event>
<event>
 7    1  0.2873461E-009  0.1138001E+03  0.7561462E-02  0.1253690E+00
          2   -1    0    0  501    0  0.00000000000E+00  0.00000000000E+00  0.29198136416E+02  0.29198136416E+02  0.00000000000E+00 0. -1.
         -2   -1    0    0    0  501 -0.00000000000E+00 -0.00000000000E+00 -0.62088493226E+03  0.62088493226E+03  0.00000000000E+00 0.  1.
         25    2    1    2    0    0  0.97222811837E+01 -0.53551137024E+02 -0.18600043468E+03  0.23066433745E+03  0.12509047862E+03 0.  0.
          5    1    3    3  502    0 -0.49775055705E+02 -0.31352981389E+02 -0.39619472313E+02  0.71047453148E+02  0.41800000000E+01 0. -1.
         -5    1    3    3    0  502  0.59497336889E+02 -0.22198155635E+02 -0.14638096237E+03  0.15961688430E+03  0.41800000000E+01 0. -1.
        -11    1    1    2    0    0 -0.41386457152E+02 -0.15695887701E+01 -0.12734064552E+03  0.13390646902E+03  0.00000000000E+00 0.  1.
         11    1    1    2    0    0  0.31664175968E+02  0.55120725794E+02 -0.27834571564E+03  0.28551226220E+03  0.00000000000E+00 0. -1.
</event>
<event>
 7    1  0.2873461E-009  0.1390902E+03  0.7561462E-02  0.1214558E+00
          1   -1    0    0  501    0  0.00000000000E+00  0.00000000000E+00  0.61601367605E+03  0.61601367605E+03  0.00000000000E+00 0. -1.
         -1   -1    0    0    0  501 -0.00000000000E+00 -0.00000000000E+00 -0.53918638469E+02  0.53918638469E+02  0.00000000000E+00 0.  1.
         25    2    1    2    0    0 -0.65463593562E+02 -0.87328399985E+02  0.11766478874E+03  0.20348056456E+03  0.12509039179E+03 0.  0.
          5    1    3    3  502    0  0.25707776626E+02 -0.54505133241E+02  0.78088566761E+02  0.98726875710E+02  0.41800000000E+01 0. -1.
         -5    1    3    3    0  502 -0.91171370188E+02 -0.32823266744E+02  0.39576221982E+02  0.10475368885E+03  0.41800000000E+01 0. -1.
        -11    1    1    2    0    0  0.11814980343E+02  0.58887266846E+02  0.99534084436E+02  0.11625118460E+03  0.00000000000E+00 0.  1.
         11    1    1    2    0    0  0.53648613220E+02  0.28441133139E+02  0.34489616440E+03  0.35020056536E+03  0.00000000000E+00 0. -1.
</event>
<event>
 7    1  0.2873461E-009  0.8069407E+02  0.7561462E-02  0.1327093E+00
         -2   -1    0    0    0  501 -0.00000000000E+00  0.00000000000E+00  0.85189678306E+02  0.85189678306E+02  0.00000000000E+00 0.  1.
          2   -1    0    0  501    0  0.00000000000E+00 -0.00000000000E+00 -0.19507892444E+03  0.19507892444E+03  0.00000000000E+00 0. -1.
         25    2    1    2    0    0 -0.43676194083E+02  0.29645465317E+02 -0.14169314645E+02  0.13651005070E+03  0.12509101055E+03 0.  0.
          5    1    3    3  502    0 -0.28438702667E+02  0.10562497877E+02  0.55047813771E+02  0.62992542192E+02  0.41800000000E+01 0. -1.
         -5    1    3    3    0  502 -0.15237491416E+02  0.19082967439E+02 -0.69217128416E+02  0.73517508507E+02  0.41800000000E+01 0. -1.
        -11    1    1    2    0    0  0.71114013466E+02 -0.90620141548E+01 -0.54016172601E+02  0.89761182670E+02  0.00000000000E+00 0.  1.
         11    1    1    2    0    0 -0.27437819384E+02 -0.20583451162E+02 -0.41703758887E+02  0.53997369377E+02  0.00000000000E+00 0. -1.
</event>
<event>
 7    1  0.2873461E-009  0.3475568E+03  0.7561462E-02  0.1063622E+00
         -1   -1    0    0    0  501 -0.00000000000E+00  0.00000000000E+00  0.49908332243E+02  0.49908332243E+02  0.00000000000E+00 0.  1.
          1   -1    0    0  501    0  0.00000000000E+00 -0.00000000000E+00 -0.26298416703E+04  0.26298416703E+04  0.00000000000E+00 0. -1.
         25    2    1    2    0    0  0.27419551938E+03  0.20475932462E+03 -0.11401427859E+04  0.11969472883E+04  0.12509066656E+03 0.  0.
          5    1    3    3  502    0  0.14321972938E+03  0.10271340852E+03 -0.78969690580E+03  0.80913571828E+03  0.41800000000E+01 0. -1.
         -5    1    3    3    0  502  0.13097579000E+03  0.10204591610E+03 -0.35044588013E+03  0.38781157004E+03  0.41800000000E+01 0. -1.
        -11    1    1    2    0    0 -0.13267585653E+03 -0.15184494466E+03 -0.74774268428E+03  0.77445393150E+03  0.00000000000E+00 0.  1.
         11    1    1    2    0    0 -0.14151966285E+03 -0.52914379964E+02 -0.69204786781E+03  0.70834878267E+03  0.00000000000E+00 0. -1.
</event>
<event>
 7    1  0.2873461E-009  0.1705081E+03  0.7561462E-02  0.1177319E+00
         -3   -1    0    0    0  501 -0.00000000000E+00  0.00000000000E+00  0.49511557331E+03  0.49511557331E+03  0.00000000000E+00 0. -1.
          3   -1    0    0  501    0  0.00000000000E+00 -0.00000000000E+00 -0.65293462854E+02  0.65293462854E+02  0.00000000000E+00 0.  1.
         25    2    1    2    0    0  0.13171259843E+03  0.51658113227E+02  0.25144739183E+03  0.31446579669E+03  0.12508468006E+03 0.  0.
          5    1    3    3  502    0  0.14296447500E+03  0.11622461721E+02  0.16657823434E+03  0.21986291930E+03  0.41800000000E+01 0. -1.
         -5    1    3    3    0  502 -0.11251876569E+02  0.40035651506E+02  0.84869157490E+02  0.94602877392E+02  0.41800000000E+01 0. -1.
        -11    1    1    2    0    0 -0.53813583296E+01  0.12809010577E+02 -0.44192280240E+01  0.14579415138E+02  0.00000000000E+00 0.  1.
         11    1    1    2    0    0 -0.12633124010E+03 -0.64467123804E+02  0.18279394666E+03  0.23136382434E+03  0.00000000000E+00 0. -1.
</event>
<event>
 7    1  0.2873461E-009  0.1092994E+03  0.7561462E-02  0.1261873E+00
          4   -1    0    0  501    0  0.00000000000E+00  0.00000000000E+00  0.28565974557E+02  0.28565974557E+02  0.00000000000E+00 0.  1.
         -4   -1    0    0    0  501 -0.00000000000E+00 -0.00000000000E+00 -0.50774043968E+03  0.50774043968E+03  0.00000000000E+00 0. -1.
         25    2    1    2    0    0 -0.55256289768E+02  0.23409008689E+02 -0.26352483475E+03  0.29781133574E+03  0.12508003004E+03 0.  0.
          5    1    3    3  502    0 -0.49432916857E+02 -0.43611453828E+02 -0.17119768801E+03  0.18349848216E+03  0.41800000000E+01 0.  1.
         -5    1    3    3    0  502 -0.58233729106E+01  0.67020462517E+02 -0.92327146743E+02  0.11431285358E+03  0.41800000000E+01 0.  1.
        -11    1    1    2    0    0  0.13466104232E+02  0.20498989628E+02 -0.13709848487E+03  0.13927504835E+03  0.00000000000E+00 0. -1.
         11    1    1    2    0    0  0.41790185536E+02 -0.43907998317E+02 -0.78551145492E+02  0.99220030142E+02  0.00000000000E+00 0.  1.
</event>
<event>
 7    1  0.2873461E-009  0.1294939E+03  0.7561462E-02  0.1228209E+00
         -1   -1    0    0    0  501 -0.00000000000E+00  0.00000000000E+00  0.71589927551E+02  0.71589927551E+02  0.00000000000E+00 0.  1.
          1   -1    0    0  501    0  0.00000000000E+00 -0.00000000000E+00 -0.35455529700E+03  0.35455529700E+03  0.00000000000E+00 0. -1.
         25    2    1    2    0    0 -0.67141213004E+02 -0.95101907433E+02 -0.15342281377E+03  0.22964831588E+03  0.12508986337E+03 0.  0.
          5    1    3    3  502    0 -0.56889366172E+02 -0.22777556770E+02 -0.14314079330E+03  0.15576256348E+03  0.41800000000E+01 0. -1.
         -5    1    3    3    0  502 -0.10251846832E+02 -0.72324350662E+02 -0.10282020475E+02  0.73885752397E+02  0.41800000000E+01 0. -1.
        -11    1    1    2    0    0  0.49548246900E+02  0.32221995291E+02 -0.95238392336E+01  0.59866428532E+02  0.00000000000E+00 0.  1.
         11    1    1    2    0    0  0.17592966103E+02  0.62879912142E+02 -0.12001871644E+03  0.13663048014E+03  0.00000000000E+00 0. -1.
</event>
<event>
 7    1  0.2873461E-009  0.1722966E+03  0.7561462E-02  0.1175474E+00
         -2   -1    0    0    0  501 -0.00000000000E+00  0.00000000000E+00  0.26636081577E+02  0.26636081577E+02  0.00000000000E+00 0. -1.
          2   -1    0    0  501    0  0.00000000000E+00 -0.00000000000E+00 -0.14065821124E+04  0.14065821124E+04  0.00000000000E+00 0.  1.
         25    2    1    2    0    0  0.15393706235E+03 -0.19525206351E+02 -0.88666186263E+03  0.90878718884E+03  0.12508814139E+03 0.  0.
          5    1    3    3  502    0  0.16541612391E+03 -0.71416657701E+01 -0.62579476919E+03  0.64734076264E+03  0.41800000000E+01 0.  1.
         -5    1    3    3    0  502 -0.11479061556E+02 -0.12383540581E+02 -0.26086709344E+03  0.26144642620E+03  0.41800000000E+01 0.  1.
        -11    1    1    2    0    0 -0.13953222272E+03  0.31265049215E+02 -0.48183346754E+03  0.50260345694E+03  0.00000000000E+00 0.  1.
         11    1    1    2    0    0 -0.14404839630E+02 -0.11739842864E+02 -0.11450700664E+02  0.21827548212E+02  0.00000000000E+00 0. -1.
</event>
<event>
 7    1  0.2873461E-009  0.1091341E+03  0.7561462E-02  0.1262182E+00
          3   -1    0    0  501    0  0.00000000000E+00  0.00000000000E+00  0.52773521049E+02  0.52773521049E+02  0.00000000000E+00 0. -1.
         -3   -1    0    0    0  501 -0.00000000000E+00 -0.00000000000E+00 -0.27417655041E+03  0.27417655041E+03  0.00000000000E+00 0.  1.
         25    2    1    2    0    0  0.57458002511E+02  0.23794847571E+02 -0.90529918810E+02  0.16645733559E+03  0.12507902121E+03 0.  0.
          5    1    3    3  502    0  0.35533710596E+02  0.74582001221E+02 -0.42101498795E+02  0.92817714342E+02  0.41800000000E+01 0. -1.
         -5    1    3    3    0  502  0.21924291915E+02 -0.50787153650E+02 -0.48428420015E+02  0.73639621245E+02  0.41800000000E+01 0. -1.
        -11    1    1    2    0    0 -0.23443079991E+02 -0.36820032147E+02 -0.29261599311E+02  0.52550299343E+02  0.00000000000E+00 0.  1.
         11    1    1    2    0    0 -0.34014922520E+02  0.13025184576E+02 -0.10161151124E+03  0.10794243653E+03  0.00000000000E+00 0. -1.
</event>
<event>
 7    1  0.2873461E-009  0.1366872E+03  0.7561462E-02  0.1217857E+00
         -2   -1    0    0    0  501 -0.00000000000E+00  0.00000000000E+00  0.55705915531E+02  0.55705915531E+02  0.00000000000E+00 0.  1.
          2   -1    0    0  501    0  0.00000000000E+00 -0.00000000000E+00 -0.48542739860E+03  0.48542739860E+03  0.00000000000E+00 0. -1.
         25    2    1    2    0    0 -0.25858071284E+01 -0.11241442754E+03 -0.14843156701E+03  0.22432883343E+03  0.12509118875E+03 0.  0.
          5    1    3    3  502    0  0.52915805567E+02 -0.28780190694E+02 -0.25437530608E+02  0.65520395440E+02  0.41800000000E+01 0.  1.
         -5    1    3    3    0  502 -0.55501612695E+02 -0.83634236848E+02 -0.12299403640E+03  0.15880843799E+03  0.41800000000E+01 0.  1.
        -11    1    1    2    0    0 -0.12737725003E+01  0.28298781654E+02 -0.60419280541E+01  0.28964606576E+02  0.00000000000E+00 0.  1.
         11    1    1    2    0    0  0.38595796288E+01  0.84115645888E+02 -0.27524798800E+03  0.28783987413E+03  0.00000000000E+00 0. -1.
</event>
<event>
 7    1  0.2873461E-009  0.1091428E+03  0.7561462E-02  0.1262166E+00
         -1   -1    0    0    0  501 -0.00000000000E+00  0.00000000000E+00  0.56314610298E+03  0.56314610298E+03  0.00000000000E+00 0.  1.
          1   -1    0    0  501    0  0.00000000000E+00 -0.00000000000E+00 -0.44384241130E+02  0.44384241130E+02  0.00000000000E+00 0. -1.
         25    2    1    2    0    0 -0.29051169360E+02  0.89295352816E+02  0.15458552535E+03  0.21991519945E+03  0.12509348435E+03 0.  0.
          5    1    3    3  502    0 -0.24438611630E+02  0.10425086152E+03  0.16774049520E+03  0.19904731597E+03  0.41800000000E+01 0. -1.
         -5    1    3    3    0  502 -0.46125577298E+01 -0.14955508701E+02 -0.13154969847E+02  0.20867883482E+02  0.41800000000E+01 0. -1.
        -11    1    1    2    0    0  0.13056542703E+02 -0.61394827076E+02  0.34393455340E+03  0.34961518148E+03  0.00000000000E+00 0.  1.
         11    1    1    2    0    0  0.15994626657E+02 -0.27900525740E+02  0.20241783098E+02  0.37999963177E+02  0.00000000000E+00 0. -1.
</event>
<event>
 7    1  0.2873461E-009  0.1764084E+03  0.7561462E-02  0.1171325E+00
          1   -1    0    0  501    0  0.00000000000E+00  0.00000000000E+00  0.27020042143E+03  0.27020042143E+03  0.00000000000E+00 0. -1.
         -1   -1    0    0    0  501 -0.00000000000E+00 -0.00000000000E+00 -0.12870149740E+03  0.12870149740E+03  0.00000000000E+00 0.  1.
         25    2    1    2    0    0  0.67507590562E+02  0.13033736034E+03  0.35501892144E+02  0.19609416644E+03  0.12508970974E+03 0.  0.
          5    1    3    3  502    0 -0.28455166946E+02  0.10900954669E+02  0.29637907347E+02  0.42713057612E+02  0.41800000000E+01 0.  1.
         -5    1    3    3    0  502  0.95962757508E+02  0.11943640567E+03  0.58639847970E+01  0.15338110883E+03  0.41800000000E+01 0.  1.
        -11    1    1    2    0    0 -0.24765968965E+02 -0.12294486697E+03  0.58193583073E+02  0.13825804368E+03  0.00000000000E+00 0. -1.
         11    1    1    2    0    0 -0.42741621597E+02 -0.73924933745E+01  0.47803448809E+02  0.64549708699E+02  0.00000000000E+00 0.  1.
</event>
<event>
 7    1  0.2873461E-009  0.1114324E+03  0.7561462E-02  0.1257940E+00
         -1   -1    0    0    0  501 -0.00000000000E+00  0.00000000000E+00  0.14397440601E+02  0.14397440601E+02  0.00000000000E+00 0.  1.
          1   -1    0    0  501    0  0.00000000000E+00 -0.00000000000E+00 -0.91804039582E+03  0.91804039582E+03  0.00000000000E+00 0. -1.
         25    2    1    2    0    0  0.31242820241E+02  0.39037981045E+01 -0.52717391968E+03  0.54272650004E+03  0.12509340028E+03 0.  0.
          5    1    3    3  502    0  0.59205798354E+01  0.60050185458E+02 -0.34795290913E+03  0.35317103139E+03  0.41800000000E+01 0. -1.
         -5    1    3    3    0  502  0.25322240406E+02 -0.56146387353E+02 -0.17922101055E+03  0.18955546865E+03  0.41800000000E+01 0. -1.
        -11    1    1    2    0    0  0.28195030068E+02 -0.24891342052E+02 -0.13312980927E+03  0.13834046677E+03  0.00000000000E+00 0. -1.
         11    1    1    2    0    0 -0.59437850309E+02  0.20987543947E+02 -0.24333922626E+03  0.25137086961E+03  0.00000000000E+00 0.  1.
</event>
<event>
 7    1  0.2873461E-009  0.8377101E+02  0.7561462E-02  0.1318678E+00
          1   -1    0    0  501    0  0.00000000000E+00  0.00000000000E+00  0.15232722794E+02  0.15232722794E+02  0.00000000000E+00 0. -1.
         -1   -1    0    0    0  501 -0.00000000000E+00 -0.00000000000E+00 -0.13955948762E+04  0.13955948762E+04  0.00000000000E+00 0.  1.
         25    2    1    2    0    0 -0.27704667351E+02 -0.25243182517E+02 -0.11876843977E+04  0.11948417350E+04  0.12509107225E+03 0.  0.
          5    1    3    3  502    0 -0.44986811065E+02 -0.93182149919E+01 -0.11450610067E+04  0.11459898881E+04  0.41800000000E+01 0. -1.
         -5    1    3    3    0  502  0.17282143714E+02 -0.15924967525E+02 -0.42623391032E+02  0.48851846896E+02  0.41800000000E+01 0. -1.
        -11    1    1    2    0    0  0.44931083576E+02 -0.19961260346E+02 -0.10077297650E+03  0.11212692353E+03  0.00000000000E+00 0.  1.
         11    1    1    2    0    0 -0.17226416225E+02  0.45204442863E+02 -0.91904779212E+02  0.10385894046E+03  0.00000000000E+00 0. -1.
</event>
<event>
 7    1  0.2873461E-009  0.1992853E+03  0.7561462E-02  0.1150343E+00
         -4   -1    0    0    0  501 -0.00000000000E+00  0.00000000000E+00  0.18200753466E+03  0.18200753466E+03  0.00000000000E+00 0.  1.
          4   -1    0    0  501    0  0.00000000000E+00 -0.00000000000E+00 -0.27491741316E+03  0.27491741316E+03  0.00000000000E+00 0. -1.
         25    2    1    2    0    0 -0.15917283040E+03 -0.61443378632E+02  0.48775967304E+02  0.21711216292E+03  0.12508923848E+03 0.  0.
          5    1    3    3  502    0 -0.13019265899E+03  0.88036905829E+01  0.80729593647E+01  0.13080626321E+03  0.41800000000E+01 0. -1.
         -5    1    3    3    0  502 -0.28980171411E+02 -0.70247069215E+02  0.40703007939E+02  0.86305899703E+02  0.41800000000E+01 0. -1.
        -11    1    1    2    0    0  0.32608961695E+02  0.56516097615E+02 -0.63011945771E+02  0.90707877179E+02  0.00000000000E+00 0.  1.
         11    1    1    2    0    0  0.12656386871E+03  0.49272810162E+01 -0.78673900028E+02  0.14910490772E+03  0.00000000000E+00 0. -1.
</event>
<event>
 7    1  0.2873461E-009  0.3218666E+03  0.7561462E-02  0.1074793E+00
          2   -1    0    0  501    0  0.00000000000E+00  0.00000000000E+00  0.22781516445E+04  0.22781516445E+04  0.00000000000E+00 0. -1.
         -2   -1    0    0    0  501 -0.00000000000E+00 -0.00000000000E+00 -0.46380968782E+02  0.46380968782E+02  0.00000000000E+00 0.  1.
         25    2    1    2    0    0  0.30568589256E+03 -0.10345544401E+02  0.10893400446E+04  0.11383600044E+04  0.12510344345E+03 0.  0.
          5    1    3    3  502    0  0.12978811166E+03 -0.61662064007E+02  0.39902828523E+03  0.42413230115E+03  0.41800000000E+01 0. -1.
         -5    1    3    3    0  502  0.17589778091E+03  0.51316519606E+02  0.69031175938E+03  0.71422770322E+03  0.41800000000E+01 0. -1.
        -11    1    1    2    0    0 -0.74928649136E+02 -0.33061749152E+02  0.23528299839E+03  0.24912942630E+03  0.00000000000E+00 0.  1.
         11    1    1    2    0    0 -0.23075724343E+03  0.43407293553E+02  0.90714763276E+03  0.93704318265E+03  0.00000000000E+00 0. -1.
</event>
<event>
 7    1  0.2873461E-009  0.7266445E+02  0.7561462E-02  0.1351260E+00
          2   -1    0    0  501    0  0.00000000000E+00  0.00000000000E+00  0.54250245202E+03  0.54250245202E+03  0.00000000000E+00 0. -1.
         -2   -1    0    0    0  501 -0.00000000000E+00 -0.00000000000E+00 -0.30585507837E+02  0.30585507837E+02  0.00000000000E+00 0.  1.
         25    2    1    2    0    0  0.31264130078E+02  0.59278859656E+02  0.28186124204E+03  0.31557040957E+03  0.12508994603E+03 0.  0.
          5    1    3    3  502    0  0.38196738706E+02  0.44907283522E+02  0.36098618053E+02  0.69254874099E+02  0.41800000000E+01 0. -1.
         -5    1    3    3    0  502 -0.69326086285E+01  0.14371576134E+02  0.24576262399E+03  0.24631553547E+03  0.41800000000E+01 0. -1.
        -11    1    1    2    0    0 -0.11261031407E+02 -0.41395405106E+02  0.22641097371E+03  0.23043940507E+03  0.00000000000E+00 0. -1.
         11    1    1    2    0    0 -0.20003098670E+02 -0.17883454550E+02  0.36447284259E+01  0.27078145216E+02  0.00000000000E+00 0.  1.
</event>
<event>
 7    1  0.2873461E-009  0.1333249E+03  0.7561462E-02  0.1222604E+00
         -3   -1    0    0    0  501 -0.00000000000E+00  0.00000000000E+00  0.13171414566E+03  0.13171414566E+03  0.00000000000E+00 0.  1.
          3   -1    0    0  501    0  0.00000000000E+00 -0.00000000000E+00 -0.16386892351E+03  0.16386892351E+03  0.00000000000E+00 0. -1.
         25    2    1    2    0    0 -0.92131258118E+02  0.55262979666E+01  0.16809276621E+02  0.15636025565E+03  0.12508904458E+03 0.  0.
          5    1    3    3  502    0  0.29066965102E+01  0.50051294681E+02  0.82058063574E+01  0.50974392020E+02  0.41800000000E+01 0. -1.
         -5    1    3    3    0  502 -0.95037954628E+02 -0.44524996714E+02  0.86034702635E+01  0.10538586363E+03  0.41800000000E+01 0. -1.
        -11    1    1    2    0    0  0.24942023939E+02  0.26914953687E+02 -0.53044762577E+02  0.64500125016E+02  0.00000000000E+00 0. -1.
         11    1    1    2    0    0  0.67189234179E+02 -0.32441251654E+02  0.40807081025E+01  0.74722688503E+02  0.00000000000E+00 0.  1.
</event>
<event>
 7    1  0.2873461E-009  0.1184520E+03  0.7561462E-02  0.1245673E+00
         -1   -1    0    0    0  501 -0.00000000000E+00  0.00000000000E+00  0.77411491031E+02  0.77411491031E+02  0.00000000000E+00 0.  1.
          1   -1    0    0  501    0  0.00000000000E+00 -0.00000000000E+00 -0.33688940612E+03  0.33688940612E+03  0.00000000000E+00 0. -1.
         25    2    1    2    0    0 -0.71899313746E+02 -0.40496775961E+02 -0.24915811966E+03  0.29075281509E+03  0.12509168920E+03 0.  0.
          5    1    3    3  502    0 -0.10657126418E+03 -0.17814067757E+02 -0.17544432541E+03  0.20608968698E+03  0.41800000000E+01 0. -1.
         -5    1    3    3    0  502  0.34671950433E+02 -0.22682708204E+02 -0.73713794250E+02  0.84663128108E+02  0.41800000000E+01 0. -1.
        -11    1    1    2    0    0  0.48359638764E+02  0.11365460014E+02  0.37905484402E+02  0.62487231420E+02  0.00000000000E+00 0.  1.
         11    1    1    2    0    0  0.23539674982E+02  0.29131315947E+02 -0.48225279825E+02  0.61060850644E+02  0.00000000000E+00 0. -1.
</event>
<event>
 7    1  0.2873461E-009  0.1189341E+03  0.7561462E-02  0.1244866E+00
         -1   -1    0    0    0  501 -0.00000000000E+00  0.00000000000E+00  0.35731479116E+02  0.35731479116E+02  0.00000000000E+00 0.  1.
          1   -1    0    0  501    0  0.00000000000E+00 -0.00000000000E+00 -0.63851086263E+03  0.63851086263E+03  0.00000000000E+00 0. -1.
         25    2    1    2    0    0 -0.96547526308E+02 -0.39371846759E+02 -0.34200925350E+03  0.37880135705E+03  0.12509425034E+03 0.  0.
          5    1    3    3  502    0 -0.10933237003E+03 -0.27198071339E+02 -0.15910982899E+03  0.19500439047E+03  0.41800000000E+01 0.  1.
         -5    1    3    3    0  502  0.12784843725E+02 -0.12173775420E+02 -0.18289942451E+03  0.18379696658E+03  0.41800000000E+01 0.  1.
        -11    1    1    2    0    0  0.45380803165E+02  0.57124799985E+01 -0.21276004387E+03  0.21762096864E+03  0.00000000000E+00 0. -1.
         11    1    1    2    0    0  0.51166723143E+02  0.33659366760E+02 -0.48010086142E+02  0.77820016058E+02  0.00000000000E+00 0.  1.
</event>
<event>
 7    1  0.2873461E-009  0.1237852E+03  0.7561462E-02  0.1236980E+00
         -2   -1    0    0    0  501 -0.00000000000E+00  0.00000000000E+00  0.28001290573E+03  0.28001290573E+03  0.00000000000E+00 0.  1.
          2   -1    0    0  501    0  0.00000000000E+00 -0.00000000000E+00 -0.76923670897E+02  0.76923670897E+02  0.00000000000E+00 0. -1.
         25    2    1    2    0    0  0.87885824231E+02  0.87952921234E+01  0.56387045619E+02  0.16317771202E+03  0.12508473737E+03 0.  0.
          5    1    3    3  502    0 -0.16810223485E+02 -0.54641188753E+01  0.54466204684E+02  0.57414981158E+02  0.41800000000E+01 0. -1.
         -5    1    3    3    0  502  0.10469604772E+03  0.14259410999E+02  0.19208409349E+01  0.10576273086E+03  0.41800000000E+01 0. -1.
        -11    1    1    2    0    0 -0.14574149871E+02 -0.41055709457E+02  0.72452014901E+02  0.84541537641E+02  0.00000000000E+00 0.  1.
         11    1    1    2    0    0 -0.73311674360E+02  0.32260417334E+02  0.74250174312E+02  0.10921732697E+03  0.00000000000E+00 0. -1.
</event>
<event>
 7    1  0.2873461E-009  0.1290629E+03  0.7561462E-02  0.1228853E+00
         -2   -1    0    0    0  501 -0.00000000000E+00  0.00000000000E+00  0.29327771064E+02  0.29327771064E+02  0.00000000000E+00 0.  1.
          2   -1    0    0  501    0  0.00000000000E+00 -0.00000000000E+00 -0.11913231288E+04  0.11913231288E+04  0.00000000000E+00 0. -1.
         25    2    1    2    0    0 -0.88998895250E+02  0.63247356394E+02 -0.94981940356E+03  0.96422288593E+03  0.12509133831E+03 0.  0.
          5    1    3    3  502    0 -0.98718812426E+02  0.73783288802E+02 -0.53074874300E+03  0.54488629845E+03  0.41800000000E+01 0. -1.
         -5    1    3    3    0  502  0.97199171756E+01 -0.10535932409E+02 -0.41907066056E+03  0.41933658748E+03  0.41800000000E+01 0. -1.
        -11    1    1    2    0    0  0.40203839943E+02 -0.26417777199E+00 -0.15020095689E+03  0.15548873266E+03  0.00000000000E+00 0.  1.
         11    1    1    2    0    0  0.48795055307E+02 -0.62983178622E+02 -0.61974997252E+02  0.10093928123E+03  0.00000000000E+00 0. -1.
</event>
<event>
 7    1  0.2873461E-009  0.2814797E+03  0.7561462E-02  0.1094883E+00
          1   -1    0    0  501    0  0.00000000000E+00  0.00000000000E+00  0.58574377490E+03  0.58574377490E+03  0.00000000000E+00 0. -1.
         -1   -1    0    0    0  501 -0.00000000000E+00 -0.00000000000E+00 -0.14815807409E+03  0.14815807409E+03  0.00000000000E+00 0.  1.
         25    2    1    2    0    0  0.23383752442E+02  0.26306389953E+03  0.14744633843E+03  0.32731819136E+03  0.12508941030E+03 0.  0.
          5    1    3    3  502    0 -0.30814079371E+02  0.89437987023E+01  0.16018129419E+02  0.36104735047E+02  0.41800000000E+01 0.  1.
         -5    1    3    3    0  502  0.54197831813E+02  0.25412010082E+03  0.13142820901E+03  0.29121345632E+03  0.41800000000E+01 0.  1.
        -11    1    1    2    0    0  0.18588684328E+02 -0.45370604804E+02  0.11171447763E+03  0.12200063720E+03  0.00000000000E+00 0. -1.
         11    1    1    2    0    0 -0.41972436770E+02 -0.21769329472E+03  0.17842488475E+03  0.28458302042E+03  0.00000000000E+00 0.  1.
</event>
<event>
 7    1  0.2873461E-009  0.9295637E+02  0.7561462E-02  0.1295846E+00
          2   -1    0    0  501    0  0.00000000000E+00  0.00000000000E+00  0.18628409780E+03  0.18628409780E+03  0.00000000000E+00 0. -1.
         -2   -1    0    0    0  501 -0.00000000000E+00 -0.00000000000E+00 -0.15646135873E+03  0.15646135873E+03  0.00000000000E+00 0.  1.
         25    2    1    2    0    0 -0.28821745761E+02 -0.61580496501E+02 -0.97202593990E+02  0.17239898440E+03  0.12510081921E+03 0.  0.
          5    1    3    3  502    0 -0.28449084447E+02 -0.24868915405E+02 -0.12207454002E+03  0.12785726057E+03  0.41800000000E+01 0.  1.
         -5    1    3    3    0  502 -0.37266131394E+00 -0.36711581096E+02  0.24871946029E+02  0.44541723836E+02  0.41800000000E+01 0.  1.
        -11    1    1    2    0    0 -0.31645676089E+02  0.17969470450E+02  0.59565922022E+02  0.69802935108E+02  0.00000000000E+00 0.  1.
         11    1    1    2    0    0  0.60467421851E+02  0.43611026051E+02  0.67459411042E+02  0.10054353702E+03  0.00000000000E+00 0. -1.
</event>
<event>
 7    1  0.2873461E-009  0.9615374E+02  0.7561462E-02  0.1288599E+00
         -4   -1    0    0    0  501 -0.00000000000E+00  0.00000000000E+00  0.76636936106E+02  0.76636936106E+02  0.00000000000E+00 0.  1.
          4   -1    0    0  501    0  0.00000000000E+00 -0.00000000000E+00 -0.19941661889E+03  0.19941661889E+03  0.00000000000E+00 0. -1.
         25    2    1    2    0    0  0.15636217344E+02 -0.25513651226E+02 -0.79106040178E+01  0.12887321548E+03  0.12510112039E+03 0.  0.
          5    1    3    3  502    0 -0.52206794084E+02 -0.80847301520E+01  0.14967353547E+02  0.55067288678E+02  0.41800000000E+01 0.  1.
         -5    1    3    3    0  502  0.67843011428E+02 -0.17428921074E+02 -0.22877957564E+02  0.73805926806E+02  0.41800000000E+01 0.  1.
        -11    1    1    2    0    0  0.18602059423E+02  0.29288864377E+02 -0.10610945317E+03  0.11163821140E+03  0.00000000000E+00 0. -1.
         11    1    1    2    0    0 -0.34238276767E+02 -0.37752131501E+01 -0.87596255914E+01  0.35542128113E+02  0.00000000000E+00 0.  1.
</event>
<event>
 7    1  0.2873461E-009  0.8229714E+02  0.7561462E-02  0.1322656E+00
         -1   -1    0    0    0  501 -0.00000000000E+00  0.00000000000E+00  0.30969991871E+02  0.30969991871E+02  0.00000000000E+00 0.  1.
          1   -1    0    0  501    0  0.00000000000E+00 -0.00000000000E+00 -0.49566277604E+03  0.49566277604E+03  0.00000000000E+00 0. -1.
         25    2    1    2    0    0  0.26610459103E+02 -0.23480966614E+02 -0.15453244900E+03  0.20196285432E+03  0.12509694002E+03 0.  0.
          5    1    3    3  502    0 -0.25953820052E+02  0.21404223405E+01  0.92923477396E+01  0.27964304204E+02  0.41800000000E+01 0. -1.
         -5    1    3    3    0  502  0.52564279155E+02 -0.25621388954E+02 -0.16382479674E+03  0.17399855011E+03  0.41800000000E+01 0. -1.
        -11    1    1    2    0    0 -0.45615006258E+02  0.34889055363E+02 -0.28669769259E+03  0.29239278704E+03  0.00000000000E+00 0. -1.
         11    1    1    2    0    0  0.19004547155E+02 -0.11408088750E+02 -0.23462642587E+02  0.32277126555E+02  0.00000000000E+00 0.  1.
</event>
<event>
 7    1  0.2873461E-009  0.1362976E+03  0.7561462E-02  0.1218399E+00
          2   -1    0    0  501    0  0.00000000000E+00  0.00000000000E+00  0.91308245196E+02  0.91308245196E+02  0.00000000000E+00 0. -1.
         -2   -1    0    0    0  501 -0.00000000000E+00 -0.00000000000E+00 -0.32357762340E+03  0.32357762340E+03  0.00000000000E+00 0.  1.
         25    2    1    2    0    0 -0.11533036748E+03  0.31997125648E+02 -0.19473977265E+03  0.26056992035E+03  0.12509274409E+03 0.  0.
          5    1    3    3  502    0 -0.11773608896E+02  0.12357685184E+02  0.16722374758E+02  0.24257791884E+02  0.41800000000E+01 0. -1.
         -5    1    3    3    0  502 -0.10355675859E+03  0.19639440464E+02 -0.21146214741E+03  0.23631212846E+03  0.41800000000E+01 0. -1.
        -11    1    1    2    0    0  0.11376089557E+03  0.36847335318E+01 -0.25641368463E+02  0.11667304058E+03  0.00000000000E+00 0. -1.
         11    1    1    2    0    0  0.15694719150E+01 -0.35681859179E+02 -0.11888237088E+02  0.37642907667E+02  0.00000000000E+00 0.  1.
</event>
<event>
 7    1  0.2873461E-009  0.1241304E+03  0.7561462E-02  0.1236435E+00
         -2   -1    0    0    0  501 -0.00000000000E+00  0.00000000000E+00  0.37777901916E+02  0.37777901916E+02  0.00000000000E+00 0.  1.
          2   -1    0    0  501    0  0.00000000000E+00 -0.00000000000E+00 -0.89226658191E+03  0.89226658191E+03  0.00000000000E+00 0. -1.
         25    2    1    2    0    0 -0.67005633588E+02  0.72321151303E+02 -0.72827110089E+03  0.74548376650E+03  0.12508855210E+03 0.  0.
          5    1    3    3  502    0  0.61835021425E+01  0.34711782919E+02 -0.45277585319E+02  0.57538471517E+02  0.41800000000E+01 0. -1.
         -5    1    3    3    0  502 -0.73189135731E+02  0.37609368384E+02 -0.68299351557E+03  0.68794529499E+03  0.41800000000E+01 0. -1.
        -11    1    1    2    0    0 -0.60021060963E+01 -0.55002508827E+02 -0.77030912188E+02  0.94842304312E+02  0.00000000000E+00 0.  1.
         11    1    1    2    0    0  0.73007739684E+02 -0.17318642477E+02 -0.49186666917E+02  0.89718413013E+02  0.00000000000E+00 0. -1.
</event>
<event>
 7    1  0.2873461E-009  0.1573091E+03  0.7561462E-02  0.1191769E+00
         -1   -1    0    0    0  501 -0.00000000000E+00  0.00000000000E+00  0.47455350138E+03  0.47455350138E+03  0.00000000000E+00 0.  1.
          1   -1    0    0  501    0  0.00000000000E+00 -0.00000000000E+00 -0.69461762786E+02  0.69461762786E+02  0.00000000000E+00 0. -1.
         25    2    1    2    0    0 -0.58633869248E+02  0.13144721128E+03  0.18950342847E+03  0.26884209879E+03  0.12509286432E+03 0.  0.
          5    1    3    3  502    0 -0.46850562878E+02  0.13400374398E+03  0.89152701124E+02  0.16768319880E+03  0.41800000000E+01 0.  1.
         -5    1    3    3    0  502 -0.11783306370E+02 -0.25565327005E+01  0.10035072734E+03  0.10115889999E+03  0.41800000000E+01 0.  1.
        -11    1    1    2    0    0  0.23730445962E+02 -0.12114238891E+03  0.11699564029E+03  0.17007819467E+03  0.00000000000E+00 0. -1.
         11    1    1    2    0    0  0.34903423286E+02 -0.10304822366E+02  0.98592669844E+02  0.10509497071E+03  0.00000000000E+00 0.  1.
</event>
<event>
 7    1  0.2873461E-009  0.7878415E+02  0.7561462E-02  0.1332538E+00
          1   -1    0    0  501    0  0.00000000000E+00  0.00000000000E+00  0.15790620926E+03  0.15790620926E+03  0.00000000000E+00 0. -1.
         -1   -1    0    0    0  501 -0.00000000000E+00 -0.00000000000E+00 -0.11669816673E+03  0.11669816673E+03  0.00000000000E+00 0.  1.
         25    2    1    2    0    0 -0.27806658747E+02  0.29275895884E+02 -0.48906706064E+02  0.14024867176E+03  0.12509011025E+03 0.  0.
          5    1    3    3  502    0  0.24346930610E+02  0.17451326011E+02 -0.74801553875E+02  0.80684984178E+02  0.41800000000E+01 0. -1.
         -5    1    3    3    0  502 -0.52153589357E+02  0.11824569873E+02  0.25894847811E+02  0.59563687585E+02  0.41800000000E+01 0. -1.
        -11    1    1    2    0    0  0.43111423618E+02 -0.29265038720E+01  0.94174570916E+02  0.10361471458E+03  0.00000000000E+00 0. -1.
         11    1    1    2    0    0 -0.15304764871E+02 -0.26349392012E+02 -0.40598223264E+01  0.30740989647E+02  0.00000000000E+00 0.  1.
</event>
<event>
 7    1  0.2873461E-009  0.1408241E+03  0.7561462E-02  0.1212224E+00
         -2   -1    0    0    0  501 -0.00000000000E+00  0.00000000000E+00  0.75991811833E+02  0.75991811833E+02  0.00000000000E+00 0.  1.
          2   -1    0    0  501    0  0.00000000000E+00 -0.00000000000E+00 -0.32849906326E+03  0.32849906326E+03  0.00000000000E+00 0. -1.
         25    2    1    2    0    0 -0.96324619541E+02  0.50597463749E+02 -0.18185724180E+03  0.24606653681E+03  0.12505258283E+03 0.  0.
          5    1    3    3  502    0 -0.12543707636E+03  0.43452566628E+02 -0.16358046675E+03  0.21070981746E+03  0.41800000000E+01 0. -1.
         -5    1    3    3    0  502  0.29112456816E+02  0.71448971216E+01 -0.18276775048E+02  0.35356719346E+02  0.41800000000E+01 0. -1.
        -11    1    1    2    0    0  0.69964245171E+02 -0.10745346871E+02  0.27548612294E+01  0.70838177151E+02  0.00000000000E+00 0.  1.
         11    1    1    2    0    0  0.26360374370E+02 -0.39852116878E+02 -0.73404870854E+02  0.87586161131E+02  0.00000000000E+00 0. -1.
</event>
<event>
 7    1  0.2873461E-009  0.1354622E+03  0.7561462E-02  0.1219569E+00
         -1   -1    0    0    0  501 -0.00000000000E+00  0.00000000000E+00  0.31899445150E+03  0.31899445150E+03  0.00000000000E+00 0.  1.
          1   -1    0    0  501    0  0.00000000000E+00 -0.00000000000E+00 -0.85649225920E+02  0.85649225920E+02  0.00000000000E+00 0. -1.
         25    2    1    2    0    0  0.75197846853E+02  0.92447090555E+02  0.78481490474E+02  0.18975766507E+03  0.12508975331E+03 0.  0.
          5    1    3    3  502    0  0.17968772220E+02  0.87882242817E+02 -0.31721128035E+01  0.89853770524E+02  0.41800000000E+01 0. -1.
         -5    1    3    3    0  502  0.57229074633E+02  0.45648477371E+01  0.81653603277E+02  0.99903894551E+02  0.41800000000E+01 0. -1.
        -11    1    1    2    0    0 -0.32148644564E+02 -0.16191436515E+02  0.11150569179E+03  0.11717174261E+03  0.00000000000E+00 0.  1.
         11    1    1    2    0    0 -0.43049202289E+02 -0.76255654039E+02  0.43358043319E+02  0.97714269741E+02  0.00000000000E+00 0. -1.
</event>
<event>
 7    1  0.2873461E-009  0.1128091E+03  0.7561462E-02  0.1255455E+00
         -2   -1    0    0    0  501 -0.00000000000E+00  0.00000000000E+00  0.13105110062E+02  0.13105110062E+02  0.00000000000E+00 0.  1.
          2   -1    0    0  501    0  0.00000000000E+00 -0.00000000000E+00 -0.15907414805E+04  0.15907414805E+04  0.00000000000E+00 0. -1.
         25    2    1    2    0    0 -0.54891645092E+02 -0.54026543822E+02 -0.11648042808E+04  0.11740310466E+04  0.12509166936E+03 0.  0.
          5    1    3    3  502    0 -0.91403468798E+02 -0.60209517146E+02 -0.88776191258E+03  0.89449341299E+03  0.41800000000E+01 0. -1.
         -5    1    3    3    0  502  0.36511823706E+02  0.61829733238E+01 -0.27704236821E+03  0.27953763362E+03  0.41800000000E+01 0. -1.
        -11    1    1    2    0    0  0.98125984948E+01  0.20624956296E+01  0.12079620685E+01  0.10099512355E+02  0.00000000000E+00 0.  1.
         11    1    1    2    0    0  0.45079046598E+02  0.51964048192E+02 -0.41404005177E+03  0.41971603164E+03  0.00000000000E+00 0. -1.
</event>
<event>
 7    1  0.2873461E-009  0.7943468E+02  0.7561462E-02  0.1330663E+00
         -1   -1    0    0    0  501 -0.00000000000E+00  0.00000000000E+00  0.27425100401E+02  0.27425100401E+02  0.00000000000E+00 0.  1.
          1   -1    0    0  501    0  0.00000000000E+00 -0.00000000000E+00 -0.55550780567E+03  0.55550780567E+03  0.00000000000E+00 0. -1.
         25    2    1    2    0    0 -0.33411491536E+02 -0.23394866070E+02 -0.46845809455E+03  0.48657101944E+03  0.12503888629E+03 0.  0.
          5    1    3    3  502    0 -0.48384821139E+02  0.71082335938E+01 -0.43801773480E+03  0.44075914772E+03  0.41800000000E+01 0.  1.
         -5    1    3    3    0  502  0.14973329603E+02 -0.30503099663E+02 -0.30440359749E+02  0.45811871716E+02  0.41800000000E+01 0.  1.
        -11    1    1    2    0    0 -0.17627375728E+02 -0.33288144909E+01 -0.16796277294E+02  0.24574790170E+02  0.00000000000E+00 0.  1.
         11    1    1    2    0    0  0.51038867264E+02  0.26723680560E+02 -0.42828333424E+02  0.71787096460E+02  0.00000000000E+00 0. -1.
</event>
<event>
 6    1  0.2873461E-009  0.1969958E+03  0.7561462E-02  0.1152299E+00
          2   -1    0    0  501    0  0.00000000000E+00  0.00000000000E+00  0.11449924430E+04  0.11449924430E+04  0.00000000000E+00 0. -1.
         -2   -1    0    0    0  501 -0.00000000000E+00 -0.00000000000E+00 -0.40350574088E+02  0.40350574088E+02  0.00000000000E+00 0.  1.
          5    1    1    2  502    0 -0.45435276312E+02 -0.13512357821E+03  0.43624823953E+03  0.45896921969E+03  0.41800000000E+01 0.  1.
         -5    1    1    2    0  502  0.51241016512E+02 -0.35441823824E+02  0.33380127784E+03  0.33959171094E+03  0.41800000000E+01 0.  1.
        -11    1    1    2    0    0 -0.31055885264E+02  0.21577141020E+02  0.36409671632E+02  0.52494811291E+02  0.00000000000E+00 0.  1.
         11    1    1    2    0    0  0.25250145064E+02  0.14898826101E+03  0.29818267987E+03  0.33428727514E+03  0.00000000000E+00 0. -1.
</event>
<event>
 7    1  0.6070341E-009  0.1744914E+03  0.7561462E-02  0.1173243E+00
          1   -1    0    0  501    0  0.00000000000E+00  0.00000000000E+00  0.54393738652E+03  0.54393738652E+03  0.00000000000E+00 0. -1.
         -1   -1    0    0    0  501 -0.00000000000E+00 -0.00000000000E+00 -0.72268353699E+02  0.72268353699E+02  0.00000000000E+00 0.  1.
         25    2    1    2    0    0  0.32874748443E+02  0.16044065470E+03  0.28347967929E+03  0.35047116235E+03  0.12508938526E+03 0.  0.
          5    1    3    3  502    0  0.61322146550E+02  0.11217014851E+03  0.11196651450E+03  0.16998976629E+03  0.41800000000E+01 0. -1.
         -5    1    3    3    0  502 -0.28447398107E+02  0.48270506186E+02  0.17151316480E+03  0.18048139606E+03  0.41800000000E+01 0. -1.
        -11    1    1    2    0    0 -0.20922341160E+02 -0.56207400695E+02  0.12746988653E+02  0.61314777764E+02  0.00000000000E+00 0.  1.
         11    1    1    2    0    0 -0.11952407283E+02 -0.10423325401E+03  0.17544236488E+03  0.20441980010E+03  0.00000000000E+00 0. -1.
</event>
<event>
 7    1  0.2873461E-009  0.9425190E+02  0.7561462E-02  0.1292870E+00
         -2   -1    0    0    0  501 -0.00000000000E+00  0.00000000000E+00  0.11464868022E+03  0.11464868022E+03  0.00000000000E+00 0.  1.
          2   -1    0    0  501    0  0.00000000000E+00 -0.00000000000E+00 -0.12362841421E+03  0.12362841421E+03  0.00000000000E+00 0. -1.
         25    2    1    2    0    0 -0.46707018175E+02 -0.10124224321E+02  0.13648247016E+02  0.13460312214E+03  0.12509068862E+03 0.  0.
          5    1    3    3  502    0  0.36318956988E+02 -0.19296569014E+02 -0.18122083411E+02  0.45136531984E+02  0.41800000000E+01 0. -1.
         -5    1    3    3    0  502 -0.83025975163E+02  0.91723446925E+01  0.31770330427E+02  0.89466590157E+02  0.41800000000E+01 0. -1.
        -11    1    1    2    0    0  0.22100784644E+02 -0.16270560035E+02  0.29488973852E+02  0.40283686333E+02  0.00000000000E+00 0.  1.
         11    1    1    2    0    0  0.24606233530E+02  0.26394784356E+02 -0.52116954858E+02  0.63390285955E+02  0.00000000000E+00 0. -1.
</event>
<event>
 7    1  0.2873461E-009  0.2103198E+03  0.7561462E-02  0.1141313E+00
          2   -1    0    0  501    0  0.00000000000E+00  0.00000000000E+00  0.90511600568E+03  0.90511600568E+03  0.00000000000E+00 0. -1.
         -2   -1    0    0    0  501 -0.00000000000E+00 -0.00000000000E+00 -0.78666028412E+02  0.78666028412E+02  0.00000000000E+00 0.  1.
         25    2    1    2    0    0 -0.17552278237E+03 -0.10584362818E+03  0.18392764147E+03  0.30246666221E+03  0.12508230769E+03 0.  0.
          5    1    3    3  502    0 -0.15942968739E+03 -0.82389810559E+02  0.83451690581E+02  0.19795848849E+03  0.41800000000E+01 0.  1.
         -5    1    3    3    0  502 -0.16093094975E+02 -0.23453817626E+02  0.10047595089E+03  0.10450817372E+03  0.41800000000E+01 0.  1.
        -11    1    1    2    0    0  0.94619552684E+02  0.88673861053E+02  0.49992417787E+03  0.51646887322E+03  0.00000000000E+00 0. -1.
         11    1    1    2    0    0  0.80903229683E+02  0.17169767132E+02  0.14259815793E+03  0.16484649866E+03  0.00000000000E+00 0.  1.
</event>
<event>
 7    1  0.2873461E-009  0.1072030E+03  0.7561462E-02  0.1265839E+00
          1   -1    0    0  501    0  0.00000000000E+00  0.00000000000E+00  0.21317853073E+03  0.21317853073E+03  0.00000000000E+00 0. -1.
         -1   -1    0    0    0  501 -0.00000000000E+00 -0.00000000000E+00 -0.87733983738E+02  0.87733983738E+02  0.00000000000E+00 0.  1.
         25    2    1    2    0    0  0.50683996554E+01 -0.14124359146E+02  0.16031533975E+03  0.20389533108E+03  0.12508841545E+03 0.  0.
          5    1    3    3  502    0 -0.57625240369E+02  0.92716493465E+01  0.83067679127E+02  0.10160877681E+03  0.41800000000E+01 0.  1.
         -5    1    3    3    0  502  0.62693640024E+02 -0.23396008493E+02  0.77247660624E+02  0.10228655427E+03  0.41800000000E+01 0.  1.
        -11    1    1    2    0    0 -0.45939576447E+02  0.13810526599E+02 -0.28079367101E+02  0.55584405959E+02  0.00000000000E+00 0.  1.
         11    1    1    2    0    0  0.40871176791E+02  0.31383254749E+00 -0.67914256541E+01  0.41432777430E+02  0.00000000000E+00 0. -1.
</event>
<event>
 7    1  0.2873461E-009  0.1023368E+03  0.7561462E-02  0.1275457E+00
         -3   -1    0    0    0  501 -0.00000000000E+00  0.00000000000E+00  0.23600969192E+03  0.23600969192E+03  0.00000000000E+00 0.  1.
          3   -1    0    0  501    0  0.00000000000E+00 -0.00000000000E+00 -0.50427598907E+02  0.50427598907E+02  0.00000000000E+00 0. -1.
         25    2    1    2    0    0 -0.38075374458E+01 -0.18430457678E+02  0.11510927725E+03  0.17103104100E+03  0.12508913687E+03 0.  0.
          5    1    3    3  502    0 -0.60581676132E+02 -0.13978555663E+02  0.31606398800E+02  0.69871141013E+02  0.41800000000E+01 0.  1.
         -5    1    3    3    0  502  0.56774138686E+02 -0.44519020149E+01  0.83502878450E+02  0.10115989998E+03  0.41800000000E+01 0.  1.
        -11    1    1    2    0    0  0.14112151911E+02 -0.31372419541E+02  0.49757952485E+02  0.60491614088E+02  0.00000000000E+00 0.  1.
         11    1    1    2    0    0 -0.10304614465E+02  0.49802877218E+02  0.20714863281E+02  0.54914635747E+02  0.00000000000E+00 0. -1.
</event>
<event>
 7    1  0.2873461E-009  0.1732264E+03  0.7561462E-02  0.1174524E+00
         -1   -1    0    0    0  501 -0.00000000000E+00  0.00000000000E+00  0.30244283004E+03  0.30244283004E+03  0.00000000000E+00 0.  1.
          1   -1    0    0  501    0  0.00000000000E+00 -0.00000000000E+00 -0.16357711409E+03  0.16357711409E+03  0.00000000000E+00 0. -1.
         25    2    1    2    0    0  0.90368454202E+02 -0.12661169581E+03  0.17772658991E+03  0.26726968406E+03  0.12509741894E+03 0.  0.
          5    1    3    3  502    0  0.33816130137E+02  0.72303824999E+01 -0.34345321595E+01  0.35001107121E+02  0.41800000000E+01 0. -1.
         -5    1    3    3    0  502  0.56552324064E+02 -0.13384207831E+03  0.18116112207E+03  0.23226857694E+03  0.41800000000E+01 0. -1.
        -11    1    1    2    0    0 -0.74895337969E+02  0.54802997959E+02  0.30533477542E+02  0.97698380159E+02  0.00000000000E+00 0.  1.
         11    1    1    2    0    0 -0.15473116232E+02  0.71808697850E+02 -0.69394351506E+02  0.10105187991E+03  0.00000000000E+00 0. -1.
</event>
<event>
 7    1  0.2873461E-009  0.1015195E+03  0.7561462E-02  0.1277133E+00
          1   -1    0    0  501    0  0.00000000000E+00  0.00000000000E+00  0.65496284932E+03  0.65496284932E+03  0.00000000000E+00 0. -1.
         -1   -1    0    0    0  501 -0.00000000000E+00 -0.00000000000E+00 -0.40154495415E+02  0.40154495415E+02  0.00000000000E+00 0.  1.
         25    2    1    2    0    0  0.25342670324E+02 -0.32656026451E+02  0.57117080237E+03  0.58616779905E+03  0.12509171097E+03 0.  0.
          5    1    3    3  502    0  0.77997101821E+01  0.43142795919E+02  0.32474822274E+03  0.32772094362E+03  0.41800000000E+01 0. -1.
         -5    1    3    3    0  502  0.17542960142E+02 -0.75798822371E+02  0.24642257963E+03  0.25844685542E+03  0.41800000000E+01 0. -1.
        -11    1    1    2    0    0  0.14222876599E+02  0.38541904675E+02  0.53786409111E+02  0.67681211867E+02  0.00000000000E+00 0. -1.
         11    1    1    2    0    0 -0.39565546924E+02 -0.58858782237E+01 -0.10148857583E+02  0.41268333817E+02  0.00000000000E+00 0.  1.
</event>
<event>
 7    1  0.2873461E-009  0.9445085E+02  0.7561462E-02  0.1292418E+00
         -4   -1    0    0    0  501 -0.00000000000E+00  0.00000000000E+00  0.44677745279E+03  0.44677745279E+03  0.00000000000E+00 0.  1.
          4   -1    0    0  501    0  0.00000000000E+00 -0.00000000000E+00 -0.38894304167E+02  0.38894304167E+02  0.00000000000E+00 0. -1.
         25    2    1    2    0    0  0.58402887985E+02  0.13808641856E+02  0.31857677129E+03  0.34747069239E+03  0.12507256675E+03 0.  0.
          5    1    3    3  502    0 -0.18430154667E+02  0.18220763613E+02  0.22369423346E+03  0.22522932605E+03  0.41800000000E+01 0.  1.
         -5    1    3    3    0  502  0.76833042652E+02 -0.44121217577E+01  0.94882537821E+02  0.12224136634E+03  0.41800000000E+01 0.  1.
        -11    1    1    2    0    0 -0.70505097370E+01  0.21915010218E+02 -0.63725967429E+01  0.23886970290E+02  0.00000000000E+00 0. -1.
         11    1    1    2    0    0 -0.51352378248E+02 -0.35723652074E+02  0.95678974085E+02  0.11431409428E+03  0.00000000000E+00 0.  1.
</event>
<event>
 7    1  0.2873461E-009  0.7728736E+02  0.7561462E-02  0.1336931E+00
         -1   -1    0    0    0  501 -0.00000000000E+00  0.00000000000E+00  0.87832958811E+01  0.87832958811E+01  0.00000000000E+00 0.  1.
          1   -1    0    0  501    0  0.00000000000E+00 -0.00000000000E+00 -0.18387462055E+04  0.18387462055E+04  0.00000000000E+00 0. -1.
         25    2    1    2    0    0  0.40408267044E+02  0.49207998098E+02 -0.15297993879E+04  0.15362245899E+04  0.12508224660E+03 0.  0.
          5    1    3    3  502    0  0.35052652235E+02  0.55749403249E+02 -0.33761894510E+03  0.34400684424E+03  0.41800000000E+01 0.  1.
         -5    1    3    3    0  502  0.53556148089E+01 -0.65414051509E+01 -0.11921804428E+04  0.11922177457E+04  0.41800000000E+01 0.  1.
        -11    1    1    2    0    0 -0.33597326972E+02 -0.58604710196E+02 -0.28006182409E+03  0.28809359199E+03  0.00000000000E+00 0. -1.
         11    1    1    2    0    0 -0.68109400719E+01  0.93967120979E+01 -0.20101697699E+02  0.23211319508E+02  0.00000000000E+00 0.  1.
</event>
<event>
 7    1  0.2873461E-009  0.9182673E+02  0.7561462E-02  0.1298487E+00
          2   -1    0    0  501    0  0.00000000000E+00  0.00000000000E+00  0.69184744680E+02  0.69184744680E+02  0.00000000000E+00 0. -1.
         -2   -1    0    0    0  501 -0.00000000000E+00 -0.00000000000E+00 -0.18172778110E+03  0.18172778110E+03  0.00000000000E+00 0.  1.
         25    2    1    2    0    0 -0.26912871215E+02 -0.23369774186E+02 -0.67700206711E+02  0.14662937576E+03  0.12508559815E+03 0.  0.
          5    1    3    3  502    0  0.43768483443E+01  0.43159374653E+02 -0.57708178651E+02  0.72315936730E+02  0.41800000000E+01 0.  1.
         -5    1    3    3    0  502 -0.31289719559E+02 -0.66529148839E+02 -0.99920280595E+01  0.74313439027E+02  0.41800000000E+01 0.  1.
        -11    1    1    2    0    0 -0.17162894683E+02  0.14954941697E+01 -0.51798835066E+02  0.54588650569E+02  0.00000000000E+00 0.  1.
         11    1    1    2    0    0  0.44075765898E+02  0.21874280016E+02  0.69560053552E+01  0.49694499456E+02  0.00000000000E+00 0. -1.
</event>
<event>
 7    1  0.2873461E-009  0.9012372E+02  0.7561462E-02  0.1302552E+00
          2   -1    0    0  501    0  0.00000000000E+00  0.00000000000E+00  0.78994180424E+03  0.78994180424E+03  0.00000000000E+00 0. -1.
         -2   -1    0    0    0  501 -0.00000000000E+00 -0.00000000000E+00 -0.25470891359E+02  0.25470891359E+02  0.00000000000E+00 0.  1.
         25    2    1    2    0    0  0.34784994638E+01 -0.28850977009E+00  0.67758133792E+03  0.68904041587E+03  0.12509213408E+03 0.  0.
          5    1    3    3  502    0  0.26335599682E+02  0.39385620051E+02  0.57083773446E+03  0.57281583634E+03  0.41800000000E+01 0. -1.
         -5    1    3    3    0  502 -0.22857100219E+02 -0.39674129821E+02  0.10674360345E+03  0.11622457953E+03  0.41800000000E+01 0. -1.
        -11    1    1    2    0    0  0.39647966696E+02 -0.12757465550E+02  0.62588943805E+02  0.75180383592E+02  0.00000000000E+00 0.  1.
         11    1    1    2    0    0 -0.43126466160E+02  0.13045975320E+02  0.24300631156E+02  0.51191896136E+02  0.00000000000E+00 0. -1.
</event>
<event>
 7    1  0.3197095E-009  0.6800523E+02  0.7561462E-02  0.1367011E+00
          1   -1    0    0  501    0  0.00000000000E+00  0.00000000000E+00  0.26330711262E+03  0.26330711262E+03  0.00000000000E+00 0. -1.
         -1   -1    0    0    0  501 -0.00000000000E+00 -0.00000000000E+00 -0.47525520211E+02  0.47525520211E+02  0.00000000000E+00 0.  1.
         25    2    1    2    0    0 -0.11027673127E+02  0.33481576078E+01  0.15943079911E+03  0.20297317807E+03  0.12508841504E+03 0.  0.
          5    1    3    3  502    0  0.37556417986E+02  0.28198838453E+02  0.16552678973E+02  0.49971217748E+02  0.41800000000E+01 0. -1.
         -5    1    3    3    0  502 -0.48584091113E+02 -0.24850680845E+02  0.14287812014E+03  0.15300196032E+03  0.41800000000E+01 0. -1.
        -11    1    1    2    0    0 -0.71920708678E+01 -0.11976595916E+02  0.77436913403E+02  0.78686976626E+02  0.00000000000E+00 0. -1.
         11    1    1    2    0    0  0.18219743995E+02  0.86284383083E+01 -0.21086120112E+02  0.29172478130E+02  0.00000000000E+00 0.  1.
</event>
<event>
 7    1  0.2873461E-009  0.1243830E+03  0.7561462E-02  0.1236037E+00
         -2   -1    0    0    0  501 -0.00000000000E+00  0.00000000000E+00  0.51184928599E+02  0.51184928599E+02  0.00000000000E+00 0.  1.
          2   -1    0    0  501    0  0.00000000000E+00 -0.00000000000E+00 -0.34256442995E+03  0.34256442995E+03  0.00000000000E+00 0. -1.
         25    2    1    2    0    0  0.44319006913E+02 -0.59142999465E+02 -0.16741667670E+03  0.22167120525E+03  0.12509081037E+03 0.  0.
          5    1    3    3  502    0  0.74669786442E+02 -0.71545305201E+02 -0.88735568366E+02  0.13632967834E+03  0.41800000000E+01 0. -1.
         -5    1    3    3    0  502 -0.30350779529E+02  0.12402305737E+02 -0.78681108337E+02  0.85341526907E+02  0.41800000000E+01 0. -1.
        -11    1    1    2    0    0  0.47047817240E+01 -0.19216852890E+02 -0.32629747650E+01  0.20051668518E+02  0.00000000000E+00 0.  1.
         11    1    1    2    0    0 -0.49023788637E+02  0.78359852354E+02 -0.12069984988E+03  0.15202648478E+03  0.00000000000E+00 0. -1.
</event>
<event>
 7    1  0.2873461E-009  0.8616990E+02  0.7561462E-02  0.1312401E+00
         -1   -1    0    0    0  501 -0.00000000000E+00  0.00000000000E+00  0.69451206342E+02  0.69451206342E+02  0.00000000000E+00 0.  1.
          1   -1    0    0  501    0  0.00000000000E+00 -0.00000000000E+00 -0.20876244101E+03  0.20876244101E+03  0.00000000000E+00 0. -1.
         25    2    1    2    0    0  0.16165937150E+01 -0.12259201744E+01 -0.13785156861E+03  0.18615875529E+03  0.12509161023E+03 0.  0.
          5    1    3    3  502    0 -0.53196919882E+02  0.30622644007E+02 -0.70517251369E+02  0.93583191609E+02  0.41800000000E+01 0.  1.
         -5    1    3    3    0  502  0.54813513597E+02 -0.31848564182E+02 -0.67334317237E+02  0.92575563682E+02  0.41800000000E+01 0.  1.
        -11    1    1    2    0    0  0.22711371875E+02 -0.17313107120E+01 -0.40205479411E+02  0.46209137883E+02  0.00000000000E+00 0. -1.
         11    1    1    2    0    0 -0.24327965590E+02  0.29572308864E+01  0.38745813347E+02  0.45845754179E+02  0.00000000000E+00 0.  1.
</event>
<event>
 7    1  0.2873461E-009  0.1777058E+03  0.7561462E-02  0.1170042E+00
         -2   -1    0    0    0  501 -0.00000000000E+00  0.00000000000E+00  0.36040099861E+03  0.36040099861E+03  0.00000000000E+00 0.  1.
          2   -1    0    0  501    0  0.00000000000E+00 -0.00000000000E+00 -0.10527351057E+03  0.10527351057E+03  0.00000000000E+00 0. -1.
         25    2    1    2    0    0 -0.94722056683E+02 -0.12458601384E+03  0.18294500540E+03  0.27131185079E+03  0.12508917823E+03 0.  0.
          5    1    3    3  502    0 -0.55349253636E+02 -0.14392257479E+03  0.12516813192E+03  0.19864989569E+03  0.41800000000E+01 0. -1.
         -5    1    3    3    0  502 -0.39372803047E+02  0.19336560946E+02  0.57776873482E+02  0.72661955096E+02  0.41800000000E+01 0. -1.
        -11    1    1    2    0    0  0.14541531292E+02  0.11888795996E+02 -0.20551587123E+02  0.27841827093E+02  0.00000000000E+00 0. -1.
         11    1    1    2    0    0  0.80180525390E+02  0.11269721784E+03  0.92734069765E+02  0.16652083130E+03  0.00000000000E+00 0.  1.
</event>
<event>
 7    1  0.2873461E-009  0.1027795E+03  0.7561462E-02  0.1274557E+00
          1   -1    0    0  501    0  0.00000000000E+00  0.00000000000E+00  0.15071447483E+04  0.15071447483E+04  0.00000000000E+00 0. -1.
         -1   -1    0    0    0  501 -0.00000000000E+00 -0.00000000000E+00 -0.16247928388E+02  0.16247928388E+02  0.00000000000E+00 0.  1.
         25    2    1    2    0    0  0.44535085549E+01  0.42694029636E+02  0.13007045952E+04  0.13074098792E+04  0.12508211100E+03 0.  0.
          5    1    3    3  502    0  0.55415046507E+02  0.24961902721E+02  0.35747867699E+03  0.36263259764E+03  0.41800000000E+01 0.  1.
         -5    1    3    3    0  502 -0.50961537952E+02  0.17732126914E+02  0.94322591816E+03  0.94477728157E+03  0.41800000000E+01 0.  1.
        -11    1    1    2    0    0  0.37497238479E+02 -0.24499539004E+02  0.43926382974E+02  0.62735934090E+02  0.00000000000E+00 0.  1.
         11    1    1    2    0    0 -0.41950747034E+02 -0.18194490631E+02  0.14626584177E+03  0.15324686337E+03  0.00000000000E+00 0. -1.
</event>
<event>
 7    1  0.2873461E-009  0.1841465E+03  0.7561462E-02  0.1163849E+00
          1   -1    0    0  501    0  0.00000000000E+00  0.00000000000E+00  0.70809902124E+03  0.70809902124E+03  0.00000000000E+00 0. -1.
         -1   -1    0    0    0  501 -0.00000000000E+00 -0.00000000000E+00 -0.57231168230E+02  0.57231168230E+02  0.00000000000E+00 0.  1.
         25    2    1    2    0    0  0.47900566746E+02 -0.15773489818E+03  0.41731047624E+03  0.46580064921E+03  0.12508976309E+03 0.  0.
          5    1    3    3  502    0  0.48044164200E+01 -0.14059509882E+03  0.38276307725E+03  0.40781749586E+03  0.41800000000E+01 0. -1.
         -5    1    3    3    0  502  0.43096150326E+02 -0.17139799368E+02  0.34547398988E+02  0.57983153348E+02  0.41800000000E+01 0. -1.
        -11    1    1    2    0    0 -0.59799185411E+02  0.15815254880E+03  0.23263404047E+03  0.28758784406E+03  0.00000000000E+00 0. -1.
         11    1    1    2    0    0  0.11898618665E+02 -0.41765061576E+00  0.92333630833E+00  0.11941696199E+02  0.00000000000E+00 0.  1.
</event>
<event>
 7    1  0.2873461E-009  0.1110890E+03  0.7561462E-02  0.1258566E+00
          2   -1    0    0  501    0  0.00000000000E+00  0.00000000000E+00  0.11670355048E+04  0.11670355048E+04  0.00000000000E+00 0. -1.
         -2   -1    0    0    0  501 -0.00000000000E+00 -0.00000000000E+00 -0.13126550364E+02  0.13126550364E+02  0.00000000000E+00 0.  1.
         25    2    1    2    0    0  0.48373297556E+02  0.89334034912E+01  0.68446663305E+03  0.69753980961E+03  0.12508969829E+03 0.  0.
          5    1    3    3  502    0 -0.35255316664E+02  0.22692160455E+01  0.83943388097E+02  0.91170452997E+02  0.41800000000E+01 0.  1.
         -5    1    3    3    0  502  0.83628614220E+02  0.66641874457E+01  0.60052324496E+03  0.60636935662E+03  0.41800000000E+01 0.  1.
        -11    1    1    2    0    0 -0.71728509454E+02 -0.23018790875E+02  0.41442096568E+03  0.42121203757E+03  0.00000000000E+00 0. -1.
         11    1    1    2    0    0  0.23355211898E+02  0.14085387384E+02  0.55021355723E+02  0.61410207996E+02  0.00000000000E+00 0.  1.
</event>
<event>
 7    1  0.2873461E-009  0.9312084E+02  0.7561462E-02  0.1295465E+00
         -2   -1    0    0    0  501 -0.00000000000E+00  0.00000000000E+00  0.49984227843E+02  0.49984227843E+02  0.00000000000E+00 0. -1.
          2   -1    0    0  501    0  0.00000000000E+00 -0.00000000000E+00 -0.26554695865E+03  0.26554695865E+03  0.00000000000E+00 0.  1.
         25    2    1    2    0    0  0.26683682607E+02 -0.26750727580E+02 -0.88894216391E+02  0.15804412066E+03  0.12509253385E+03 0.  0.
          5    1    3    3  502    0  0.71038343182E+02 -0.31014019719E+02 -0.81731038722E+02  0.11271978847E+03  0.41800000000E+01 0. -1.
         -5    1    3    3    0  502 -0.44354660575E+02  0.42632921392E+01 -0.71631776683E+01  0.45324332194E+02  0.41800000000E+01 0. -1.
        -11    1    1    2    0    0 -0.94240363902E+01 -0.15545396032E+02 -0.10564813530E+03  0.10720074763E+03  0.00000000000E+00 0.  1.
         11    1    1    2    0    0 -0.17259646217E+02  0.42296123612E+02 -0.21020379113E+02  0.50286318201E+02  0.00000000000E+00 0. -1.
</event>
<event>
 7    1  0.2873461E-009  0.1106125E+03  0.7561462E-02  0.1259440E+00
          1   -1    0    0  501    0  0.00000000000E+00  0.00000000000E+00  0.24722017951E+03  0.24722017951E+03  0.00000000000E+00 0. -1.
         -1   -1    0    0    0  501 -0.00000000000E+00 -0.00000000000E+00 -0.98272175440E+02  0.98272175440E+02  0.00000000000E+00 0.  1.
         25    2    1    2    0    0 -0.41522925619E+02  0.45676403153E+02 -0.23304655660E+02  0.14142591218E+03  0.12509074507E+03 0.  0.
          5    1    3    3  502    0 -0.10331608244E+02 -0.40640191690E+02  0.10670437532E+02  0.43470656156E+02  0.41800000000E+01 0.  1.
         -5    1    3    3    0  502 -0.31191317375E+02  0.86316594844E+02 -0.33975093192E+02  0.97955256023E+02  0.41800000000E+01 0.  1.
        -11    1    1    2    0    0 -0.11609262240E+01 -0.44494428904E+02  0.25649169071E+02  0.51371021279E+02  0.00000000000E+00 0.  1.
         11    1    1    2    0    0  0.42683851843E+02 -0.11819742494E+01  0.14660349065E+03  0.15269542149E+03  0.00000000000E+00 0. -1.
</event>
<event>
 7    1  0.2873461E-009  0.1320313E+03  0.7561462E-02  0.1224472E+00
          2   -1    0    0  501    0  0.00000000000E+00  0.00000000000E+00  0.17448810171E+02  0.17448810171E+02  0.00000000000E+00 0. -1.
         -2   -1    0    0    0  501 -0.00000000000E+00 -0.00000000000E+00 -0.11233697128E+04  0.11233697128E+04  0.00000000000E+00 0.  1.
         25    2    1    2    0    0 -0.64202079621E+02  0.42985670265E+02 -0.76452870783E+03  0.77853793319E+03  0.12508994140E+03 0.  0.
          5    1    3    3  502    0 -0.10181636858E+03  0.29405781724E+02 -0.51726716536E+03  0.52802847050E+03  0.41800000000E+01 0.  1.
         -5    1    3    3    0  502  0.37614288956E+02  0.13579888542E+02 -0.24726154247E+03  0.25050946268E+03  0.41800000000E+01 0.  1.
        -11    1    1    2    0    0 -0.12677696169E+02 -0.38779597860E+02 -0.16209413673E+03  0.16714990384E+03  0.00000000000E+00 0. -1.
         11    1    1    2    0    0  0.76879775790E+02 -0.42060724049E+01 -0.17929805807E+03  0.19513068594E+03  0.00000000000E+00 0.  1.
</event>
<event>
 7    1  0.2873461E-009  0.1003031E+03  0.7561462E-02  0.1279660E+00
         -1   -1    0    0    0  501 -0.00000000000E+00  0.00000000000E+00  0.28097955160E+02  0.28097955160E+02  0.00000000000E+00 0.  1.
          1   -1    0    0  501    0  0.00000000000E+00 -0.00000000000E+00 -0.52411525643E+03  0.52411525643E+03  0.00000000000E+00 0. -1.
         25    2    1    2    0    0 -0.25392781706E+02  0.31435245622E+02 -0.19460343686E+03  0.23484180196E+03  0.12508879359E+03 0.  0.
          5    1    3    3  502    0  0.30483580215E+02  0.40645189898E+02 -0.16095866222E+03  0.16883851299E+03  0.41800000000E+01 0.  1.
         -5    1    3    3    0  502 -0.55876361920E+02 -0.92099442762E+01 -0.33644774635E+02  0.66003288973E+02  0.41800000000E+01 0.  1.
        -11    1    1    2    0    0  0.39760022293E+02  0.16316423878E+02 -0.84524957529E+02  0.94823802424E+02  0.00000000000E+00 0. -1.
         11    1    1    2    0    0 -0.14367240587E+02 -0.47751669500E+02 -0.21688890689E+03  0.22254760720E+03  0.00000000000E+00 0.  1.
</event>
<event>
 7    1  0.2873461E-009  0.1795952E+03  0.7561462E-02  0.1168195E+00
          1   -1    0    0  501    0  0.00000000000E+00  0.00000000000E+00  0.66211760543E+03  0.66211760543E+03  0.00000000000E+00 0. -1.
         -1   -1    0    0    0  501 -0.00000000000E+00 -0.00000000000E+00 -0.62122577384E+02  0.62122577384E+02  0.00000000000E+00 0.  1.
         25    2    1    2    0    0  0.15118206766E+03 -0.71352647194E+02  0.37796892240E+03  0.43180540926E+03  0.12509271491E+03 0.  0.
          5    1    3    3  502    0  0.46992701225E+02  0.58449453322E+01  0.20962531360E+02  0.51955533636E+02  0.41800000000E+01 0.  1.
         -5    1    3    3    0  502  0.10418936644E+03 -0.77197592526E+02  0.35700639104E+03  0.37984987562E+03  0.41800000000E+01 0.  1.
        -11    1    1    2    0    0 -0.29242942778E+02  0.50279713138E+02  0.34097549448E+02  0.67422860618E+02  0.00000000000E+00 0.  1.
         11    1    1    2    0    0 -0.12193912489E+03  0.21072934056E+02  0.18792855620E+03  0.22501191294E+03  0.00000000000E+00 0. -1.
</event>
<event>
 7    1  0.2873461E-009  0.1156342E+03  0.7561462E-02  0.1250478E+00
          1   -1    0    0  501    0  0.00000000000E+00  0.00000000000E+00  0.20168331657E+03  0.20168331657E+03  0.00000000000E+00 0. -1.
         -1   -1    0    0    0  501 -0.00000000000E+00 -0.00000000000E+00 -0.87906879714E+02  0.87906879714E+02  0.00000000000E+00 0.  1.
         25    2    1    2    0    0  0.36780440812E+02 -0.43967295391E+02  0.12104918077E+03  0.18326677437E+03  0.12509149665E+03 0.  0.
          5    1    3    3  502    0  0.43834243413E+02  0.31238184479E+02  0.81880044463E+02  0.98076904245E+02  0.41800000000E+01 0.  1.
         -5    1    3    3    0  502 -0.70538026008E+01 -0.75205479870E+02  0.39169136305E+02  0.85189870129E+02  0.41800000000E+01 0.  1.
        -11    1    1    2    0    0 -0.62813121181E+02  0.19162854547E+02 -0.19231508376E+02  0.68429190418E+02  0.00000000000E+00 0.  1.
         11    1    1    2    0    0  0.26032680369E+02  0.24804440844E+02  0.11958764462E+02  0.37894231491E+02  0.00000000000E+00 0. -1.
</event>
<event>
 7    1  0.2873461E-009  0.1126379E+03  0.7561462E-02  0.1255761E+00
         -2   -1    0    0    0  501 -0.00000000000E+00  0.00000000000E+00  0.19990611569E+03  0.19990611569E+03  0.00000000000E+00 0.  1.
          2   -1    0    0  501    0  0.00000000000E+00 -0.00000000000E+00 -0.70399882768E+02  0.70399882768E+02  0.00000000000E+00 0. -1.
         25    2    1    2    0    0  0.26653217408E+01  0.34627312241E+02  0.35980347655E+02  0.13471493391E+03  0.12508946122E+03 0.  0.
          5    1    3    3  502    0 -0.45448160874E+02  0.57873897383E+02  0.33765110092E+02  0.81070823263E+02  0.41800000000E+01 0.  1.
         -5    1    3    3    0  502  0.48113482615E+02 -0.23246585142E+02  0.22152375636E+01  0.53644110651E+02  0.41800000000E+01 0.  1.
        -11    1    1    2    0    0 -0.44557637414E+02 -0.34046645898E+02  0.49225413970E+02  0.74617012332E+02  0.00000000000E+00 0.  1.
         11    1    1    2    0    0  0.41892315674E+02 -0.58066634229E+00  0.44300471293E+02  0.60974052208E+02  0.00000000000E+00 0. -1.
</event>
<event>
 7    1  0.2873461E-009  0.9999394E+02  0.7561462E-02  0.1280309E+00
         -1   -1    0    0    0  501 -0.00000000000E+00  0.00000000000E+00  0.33583145850E+03  0.33583145850E+03  0.00000000000E+00 0.  1.
          1   -1    0    0  501    0  0.00000000000E+00 -0.00000000000E+00 -0.42999847622E+02  0.42999847622E+02  0.00000000000E+00 0. -1.
         25    2    1    2    0    0 -0.27820561694E+02  0.49976129138E+02  0.19943530916E+03  0.24227317327E+03  0.12510096246E+03 0.  0.
          5    1    3    3  502    0  0.25221978323E+02 -0.54969316883E+01 -0.24358052476E+01  0.26263472651E+02  0.41800000000E+01 0.  1.
         -5    1    3    3    0  502 -0.53042540017E+02  0.55473060827E+02  0.20187111440E+03  0.21600970062E+03  0.41800000000E+01 0.  1.
        -11    1    1    2    0    0  0.53640820969E+02 -0.19610101432E+02  0.69985963504E+02  0.90332324447E+02  0.00000000000E+00 0. -1.
         11    1    1    2    0    0 -0.25820259274E+02 -0.30366027706E+02  0.23410338217E+02  0.46225808409E+02  0.00000000000E+00 0.  1.
</event>
<event>
 7    1  0.2873461E-009  0.1017765E+03  0.7561462E-02  0.1276604E+00
          2   -1    0    0  501    0  0.00000000000E+00  0.00000000000E+00  0.33270094945E+03  0.33270094945E+03  0.00000000000E+00 0. -1.
         -2   -1    0    0    0  501 -0.00000000000E+00 -0.00000000000E+00 -0.59770153941E+02  0.59770153941E+02  0.00000000000E+00 0.  1.
         25    2    1    2    0    0  0.77533387902E+02  0.22371254288E+02  0.21161504795E+03  0.25872806547E+03  0.12508950431E+03 0.  0.
          5    1    3    3  502    0  0.20465113261E+01  0.13411113071E+02 -0.14408732853E+02  0.20226965784E+02  0.41800000000E+01 0.  1.
         -5    1    3    3    0  502  0.75486876576E+02  0.89601412173E+01  0.22602378080E+03  0.23850109969E+03  0.41800000000E+01 0.  1.
        -11    1    1    2    0    0 -0.16786552029E+02 -0.45288625619E+02  0.46716644160E+02  0.67195928307E+02  0.00000000000E+00 0.  1.
         11    1    1    2    0    0 -0.60746835873E+02  0.22917371331E+02  0.14599103402E+02  0.66547109610E+02  0.00000000000E+00 0. -1.
</event>
<event>
 7    1  0.2873461E-009  0.1505063E+03  0.7561462E-02  0.1199852E+00
         -2   -1    0    0    0  501 -0.00000000000E+00  0.00000000000E+00  0.70249613001E+02  0.70249613001E+02  0.00000000000E+00 0.  1.
          2   -1    0    0  501    0  0.00000000000E+00 -0.00000000000E+00 -0.54800599904E+03  0.54800599904E+03  0.00000000000E+00 0. -1.
         25    2    1    2    0    0 -0.10944167914E+03 -0.79998885912E+02 -0.39277606820E+03  0.43393399413E+03  0.12509343961E+03 0.  0.
          5    1    3    3  502    0 -0.60167292988E+01  0.96252459762E+00  0.87488884609E+01  0.11451765556E+02  0.41800000000E+01 0. -1.
         -5    1    3    3    0  502 -0.10342494984E+03 -0.80961410509E+02 -0.40152495666E+03  0.42248222858E+03  0.41800000000E+01 0. -1.
        -11    1    1    2    0    0  0.72745737860E+02  0.97425790940E+02 -0.73619374868E+02  0.14213915531E+03  0.00000000000E+00 0.  1.
         11    1    1    2    0    0  0.36695941281E+02 -0.17426905028E+02 -0.11360942969E+02  0.42182462594E+02  0.00000000000E+00 0. -1.
</event>
<event>
 7    1  0.2873461E-009  0.1211685E+03  0.7561462E-02  0.1241182E+00
          2   -1    0    0  501    0  0.00000000000E+00  0.00000000000E+00  0.32234629610E+03  0.32234629610E+03  0.00000000000E+00 0. -1.
         -2   -1    0    0    0  501 -0.00000000000E+00 -0.00000000000E+00 -0.54600358254E+02  0.54600358254E+02  0.00000000000E+00 0.  1.
         25    2    1    2    0    0 -0.63081183233E+02  0.40459398061E+02  0.17206620462E+03  0.22554478325E+03  0.12508985533E+03 0.  0.
          5    1    3    3  502    0 -0.49440422632E+02  0.79134697566E+02  0.15491905484E+03  0.18089787644E+03  0.41800000000E+01 0.  1.
         -5    1    3    3    0  502 -0.13640760601E+02 -0.38675299505E+02  0.17147149786E+02  0.44646906806E+02  0.41800000000E+01 0.  1.
        -11    1    1    2    0    0 -0.50771252343E+01 -0.39214044427E+02  0.80050334056E+01  0.40343512995E+02  0.00000000000E+00 0. -1.
         11    1    1    2    0    0  0.68158308467E+02 -0.12453536337E+01  0.87674699817E+02  0.11105835811E+03  0.00000000000E+00 0.  1.
</event>
<event>
 7    1  0.2873461E-009  0.2698859E+03  0.7561462E-02  0.1101345E+00
         -1   -1    0    0    0  501 -0.00000000000E+00  0.00000000000E+00  0.45076596520E+02  0.45076596520E+02  0.00000000000E+00 0.  1.
          1   -1    0    0  501    0  0.00000000000E+00 -0.00000000000E+00 -0.17505367306E+04  0.17505367306E+04  0.00000000000E+00 0. -1.
         25    2    1    2    0    0 -0.14923841275E+03  0.20943039407E+03 -0.95351711481E+03  0.99547692252E+03  0.12508485608E+03 0.  0.
          5    1    3    3  502    0 -0.16360310212E+03  0.18964816490E+03 -0.75627905888E+03  0.79668556456E+03  0.41800000000E+01 0. -1.
         -5    1    3    3    0  502  0.14364689361E+02  0.19782229168E+02 -0.19723805593E+03  0.19879135796E+03  0.41800000000E+01 0. -1.
        -11    1    1    2    0    0  0.84716437031E+02 -0.16696544236E+03 -0.42885435387E+03  0.46794272136E+03  0.00000000000E+00 0. -1.
         11    1    1    2    0    0  0.64521975723E+02 -0.42464951713E+02 -0.32308866538E+03  0.33219368322E+03  0.00000000000E+00 0.  1.
</event>
<event>
 7    1  0.2873461E-009  0.1389561E+03  0.7561462E-02  0.1214741E+00
          1   -1    0    0  501    0  0.00000000000E+00  0.00000000000E+00  0.36966928458E+03  0.36966928458E+03  0.00000000000E+00 0. -1.
         -1   -1    0    0    0  501 -0.00000000000E+00 -0.00000000000E+00 -0.12703136892E+03  0.12703136892E+03  0.00000000000E+00 0.  1.
         25    2    1    2    0    0 -0.45419176947E+02 -0.77003735045E+02  0.31413700739E+03  0.34974514682E+03  0.12508849454E+03 0.  0.
          5    1    3    3  502    0 -0.88323775234E+02 -0.42543345915E+02  0.18813836365E+03  0.21218987212E+03  0.41800000000E+01 0. -1.
         -5    1    3    3    0  502  0.42904598287E+02 -0.34460389130E+02  0.12599864374E+03  0.13755527470E+03  0.41800000000E+01 0. -1.
        -11    1    1    2    0    0  0.27469196090E+02 -0.14699599605E+02 -0.34201943768E+01  0.31342187096E+02  0.00000000000E+00 0.  1.
         11    1    1    2    0    0  0.17949980856E+02  0.91703334650E+02 -0.68078897365E+02  0.11561331958E+03  0.00000000000E+00 0. -1.
</event>
<event>
 7    1  0.2873461E-009  0.2295496E+03  0.7561462E-02  0.1126957E+00
         -1   -1    0    0    0  501 -0.00000000000E+00  0.00000000000E+00  0.20928981872E+03  0.20928981872E+03  0.00000000000E+00 0.  1.
          1   -1    0    0  501    0  0.00000000000E+00 -0.00000000000E+00 -0.30942071844E+03  0.30942071844E+03  0.00000000000E+00 0. -1.
         25    2    1    2    0    0 -0.16166972088E+03 -0.16138651017E+03 -0.25342925670E+02  0.26167308958E+03  0.12509131711E+03 0.  0.
          5    1    3    3  502    0 -0.81992024036E+02 -0.86379583226E+02  0.49490001855E+02  0.12903820011E+03  0.41800000000E+01 0.  1.
         -5    1    3    3    0  502 -0.79677696842E+02 -0.75006926946E+02 -0.74832927525E+02  0.13263488947E+03  0.41800000000E+01 0.  1.
        -11    1    1    2    0    0  0.15976939519E+03  0.15090939804E+03 -0.43564940911E+02  0.22404867805E+03  0.00000000000E+00 0.  1.
         11    1    1    2    0    0  0.19003256855E+01  0.10477112129E+02 -0.31223033138E+02  0.32988769523E+02  0.00000000000E+00 0. -1.
</event>
<event>
 7    1  0.5376221E-009  0.1077714E+03  0.7561462E-02  0.1264754E+00
         -2   -1    0    0    0  501 -0.00000000000E+00  0.00000000000E+00  0.35411965259E+02  0.35411965259E+02  0.00000000000E+00 0.  1.
          2   -1    0    0  501    0  0.00000000000E+00 -0.00000000000E+00 -0.53456905739E+03  0.53456905739E+03  0.00000000000E+00 0. -1.
         25    2    1    2    0    0  0.45396433536E+02  0.69756071207E+02 -0.24660293176E+03  0.28876689380E+03  0.12508623967E+03 0.  0.
          5    1    3    3  502    0  0.59384751501E+02  0.34212665288E+02 -0.24018873199E+03  0.24981023709E+03  0.41800000000E+01 0. -1.
         -5    1    3    3    0  502 -0.13988317965E+02  0.35543405918E+02 -0.64141997693E+01  0.38956656716E+02  0.41800000000E+01 0. -1.
        -11    1    1    2    0    0  0.51286121716E+01 -0.55804131232E+02 -0.61956876566E+02  0.83540758192E+02  0.00000000000E+00 0.  1.
         11    1    1    2    0    0 -0.50525045707E+02 -0.13951939974E+02 -0.19059728380E+03  0.19767337065E+03  0.00000000000E+00 0. -1.
</event>
<event>
 7    1  0.2873461E-009  0.5904578E+02  0.7561462E-02  0.1401880E+00
          1   -1    0    0  501    0  0.00000000000E+00  0.00000000000E+00  0.51643639110E+03  0.51643639110E+03  0.00000000000E+00 0. -1.
         -1   -1    0    0    0  501 -0.00000000000E+00 -0.00000000000E+00 -0.25775005544E+02  0.25775005544E+02  0.00000000000E+00 0.  1.
         25    2    1    2    0    0  0.30929685305E+02 -0.13543835280E+02  0.29061995356E+03  0.31819230596E+03  0.12508519198E+03 0.  0.
          5    1    3    3  502    0  0.38227605375E+02 -0.43994841107E+01  0.30008676693E+03  0.30257271086E+03  0.41800000000E+01 0.  1.
         -5    1    3    3    0  502 -0.72979200706E+01 -0.91443511696E+01 -0.94668133624E+01  0.15619595094E+02  0.41800000000E+01 0.  1.
        -11    1    1    2    0    0 -0.25183062123E+02 -0.20477680123E+02  0.18240337334E+03  0.18526875777E+03  0.00000000000E+00 0. -1.
         11    1    1    2    0    0 -0.57466231813E+01  0.34021515403E+02  0.17638058659E+02  0.38750332922E+02  0.00000000000E+00 0.  1.
</event>
<event>
 7    1  0.2873461E-009  0.1079593E+03  0.7561462E-02  0.1264396E+00
          4   -1    0    0  501    0  0.00000000000E+00  0.00000000000E+00  0.37298528690E+02  0.37298528690E+02  0.00000000000E+00 0. -1.
         -4   -1    0    0    0  501 -0.00000000000E+00 -0.00000000000E+00 -0.45808550413E+03  0.45808550413E+03  0.00000000000E+00 0.  1.
         25    2    1    2    0    0  0.16109435732E+02 -0.70500767750E+02 -0.23109368418E+03  0.27254585216E+03  0.12508828277E+03 0.  0.
          5    1    3    3  502    0  0.37555139235E+02 -0.17393982605E+02 -0.82325707006E+01  0.42405031944E+02  0.41800000000E+01 0.  1.
         -5    1    3    3    0  502 -0.21445703503E+02 -0.53106785145E+02 -0.22286111348E+03  0.23014082021E+03  0.41800000000E+01 0.  1.
        -11    1    1    2    0    0  0.23807331823E+02  0.73113937229E+02 -0.12205172420E+03  0.14425345835E+03  0.00000000000E+00 0. -1.
         11    1    1    2    0    0 -0.39916767555E+02 -0.26131694792E+01 -0.67641567057E+02  0.78584722311E+02  0.00000000000E+00 0.  1.
</event>
<event>
 7    1  0.2873461E-009  0.1089563E+03  0.7561462E-02  0.1262515E+00
          2   -1    0    0  501    0  0.00000000000E+00  0.00000000000E+00  0.14414385528E+03  0.14414385528E+03  0.00000000000E+00 0. -1.
         -2   -1    0    0    0  501 -0.00000000000E+00 -0.00000000000E+00 -0.18933115948E+03  0.18933115948E+03  0.00000000000E+00 0.  1.
         25    2    1    2    0    0  0.85673837706E+02 -0.12766187700E+02 -0.11247012021E+03  0.18920834666E+03  0.12508912218E+03 0.  0.
          5    1    3    3  502    0  0.17816258525E+02 -0.28996678116E+02  0.19807995616E+02  0.39598680532E+02  0.41800000000E+01 0. -1.
         -5    1    3    3    0  502  0.67857579182E+02  0.16230490415E+02 -0.13227811582E+03  0.14960966612E+03  0.41800000000E+01 0. -1.
        -11    1    1    2    0    0 -0.51370985008E+02  0.43770431263E+02  0.63658190897E+01  0.67789028657E+02  0.00000000000E+00 0.  1.
         11    1    1    2    0    0 -0.34302852698E+02 -0.31004243562E+02  0.60916996920E+02  0.76477639450E+02  0.00000000000E+00 0. -1.
</event>
<event>
 7    1  0.2873461E-009  0.1212018E+03  0.7561462E-02  0.1241128E+00
          2   -1    0    0  501    0  0.00000000000E+00  0.00000000000E+00  0.65023641851E+03  0.65023641851E+03  0.00000000000E+00 0.  1.
         -2   -1    0    0    0  501 -0.00000000000E+00 -0.00000000000E+00 -0.57592127700E+02  0.57592127700E+02  0.00000000000E+00 0. -1.
         25    2    1    2    0    0 -0.45768581273E+02 -0.30445008981E+02  0.58311781781E+03  0.59891245632E+03  0.12509228308E+03 0.  0.
          5    1    3    3  502    0  0.40567544738E+02  0.38784772840E+01  0.12823850795E+03  0.13462301287E+03  0.41800000000E+01 0.  1.
         -5    1    3    3    0  502 -0.86336126011E+02 -0.34323486265E+02  0.45487930985E+03  0.46428944345E+03  0.41800000000E+01 0.  1.
        -11    1    1    2    0    0  0.74908531108E+02  0.20861938251E+02  0.51427667958E+01  0.77929176505E+02  0.00000000000E+00 0.  1.
         11    1    1    2    0    0 -0.29139949835E+02  0.95830707298E+01  0.43837062048E+01  0.30986913385E+02  0.00000000000E+00 0. -1.
</event>
<event>
 7    1  0.2873461E-009  0.1073976E+03  0.7561462E-02  0.1265466E+00
         -1   -1    0    0    0  501 -0.00000000000E+00  0.00000000000E+00  0.25587342675E+02  0.25587342675E+02  0.00000000000E+00 0.  1.
          1   -1    0    0  501    0  0.00000000000E+00 -0.00000000000E+00 -0.11178883843E+04  0.11178883843E+04  0.00000000000E+00 0. -1.
         25    2    1    2    0    0 -0.31721033338E+02 -0.67877422955E+02 -0.95220769733E+03  0.96330673505E+03  0.12508716334E+03 0.  0.
          5    1    3    3  502    0  0.28426382273E+02 -0.51575513575E+02 -0.20057337492E+03  0.20908190724E+03  0.41800000000E+01 0.  1.
         -5    1    3    3    0  502 -0.60147415611E+02 -0.16301909381E+02 -0.75163432241E+03  0.75422482780E+03  0.41800000000E+01 0.  1.
        -11    1    1    2    0    0  0.40143696442E+02  0.20305085649E+02 -0.17274052535E+02  0.48189270157E+02  0.00000000000E+00 0.  1.
         11    1    1    2    0    0 -0.84226631048E+01  0.47572337307E+02 -0.12281929180E+03  0.13197972181E+03  0.00000000000E+00 0. -1.
</event>
<event>
 7    1  0.2873461E-009  0.1139467E+03  0.7561462E-02  0.1253431E+00
          2   -1    0    0  501    0  0.00000000000E+00  0.00000000000E+00  0.55220173776E+02  0.55220173776E+02  0.00000000000E+00 0. -1.
         -2   -1    0    0    0  501 -0.00000000000E+00 -0.00000000000E+00 -0.32775201622E+03  0.32775201622E+03  0.00000000000E+00 0.  1.
         25    2    1    2    0    0 -0.70540051024E+02 -0.10822692143E+02 -0.97124371781E+02  0.17370774994E+03  0.12509280287E+03 0.  0.
          5    1    3    3  502    0 -0.79401544050E+02 -0.37653246766E+02 -0.18288942586E+02  0.89857275779E+02  0.41800000000E+01 0.  1.
         -5    1    3    3    0  502  0.88614930263E+01  0.26830554623E+02 -0.78835429195E+02  0.83850474157E+02  0.41800000000E+01 0.  1.
        -11    1    1    2    0    0  0.80600750346E+02 -0.16469243290E+02 -0.14784904328E+03  0.16919532065E+03  0.00000000000E+00 0. -1.
         11    1    1    2    0    0 -0.10060699323E+02  0.27291935432E+02 -0.27558427385E+02  0.40069119412E+02  0.00000000000E+00 0.  1.
</event>
<event>
 7    1  0.2873461E-009  0.1350083E+03  0.7561462E-02  0.1220208E+00
          2   -1    0    0  501    0  0.00000000000E+00  0.00000000000E+00  0.99448000583E+03  0.99448000583E+03  0.00000000000E+00 0. -1.
         -2   -1    0    0    0  501 -0.00000000000E+00 -0.00000000000E+00 -0.19550312578E+02  0.19550312578E+02  0.00000000000E+00 0.  1.
         25    2    1    2    0    0 -0.38854708805E+02 -0.77606229177E+02  0.54565883019E+03  0.56650127642E+03  0.12509085503E+03 0.  0.
          5    1    3    3  502    0  0.35311592947E+02  0.17269596437E+01  0.69389323785E+02  0.77988727656E+02  0.41800000000E+01 0.  1.
         -5    1    3    3    0  502 -0.74166301752E+02 -0.79333188821E+02  0.47626950640E+03  0.48851254876E+03  0.41800000000E+01 0.  1.
        -11    1    1    2    0    0  0.66142547336E+02  0.34195295408E+02  0.27828621870E+03  0.28807529279E+03  0.00000000000E+00 0.  1.
         11    1    1    2    0    0 -0.27287838532E+02  0.43410933769E+02  0.15098464436E+03  0.15945374921E+03  0.00000000000E+00 0. -1.
</event>
<event>
 7    1  0.2873461E-009  0.2110606E+03  0.7561462E-02  0.1140729E+00
          1   -1    0    0  501    0  0.00000000000E+00  0.00000000000E+00  0.76849422068E+02  0.76849422068E+02  0.00000000000E+00 0. -1.
         -1   -1    0    0    0  501 -0.00000000000E+00 -0.00000000000E+00 -0.67920779633E+03  0.67920779633E+03  0.00000000000E+00 0.  1.
         25    2    1    2    0    0  0.10560052888E+03  0.15835115030E+03 -0.25156106314E+03  0.33934671503E+03  0.12508663403E+03 0.  0.
          5    1    3    3  502    0  0.60059192390E+02  0.14841827929E+03 -0.12123953917E+03  0.20087705313E+03  0.41800000000E+01 0. -1.
         -5    1    3    3    0  502  0.45541336489E+02  0.99328710101E+01 -0.13032152397E+03  0.13846966190E+03  0.41800000000E+01 0. -1.
        -11    1    1    2    0    0  0.75348813466E+01 -0.73128856763E+02 -0.66713758203E+02  0.99274013024E+02  0.00000000000E+00 0. -1.
         11    1    1    2    0    0 -0.11313541023E+03 -0.85222293535E+02 -0.28408355292E+03  0.31743649034E+03  0.00000000000E+00 0.  1.
</event>
<event>
 7    1  0.2873461E-009  0.2758965E+03  0.7561462E-02  0.1097952E+00
          1   -1    0    0  501    0  0.00000000000E+00  0.00000000000E+00  0.44224982164E+03  0.44224982164E+03  0.00000000000E+00 0. -1.
         -1   -1    0    0    0  501 -0.00000000000E+00 -0.00000000000E+00 -0.23519339111E+03  0.23519339111E+03  0.00000000000E+00 0.  1.
         25    2    1    2    0    0  0.34714147362E+02 -0.26695586002E+03  0.25521283809E+03  0.39147260929E+03  0.12508680135E+03 0.  0.
          5    1    3    3  502    0  0.41544102204E+02 -0.17482961740E+03  0.23661820159E+03  0.29714803259E+03  0.41800000000E+01 0.  1.
         -5    1    3    3    0  502 -0.68299548418E+01 -0.92126242621E+02  0.18594636491E+02  0.94324576696E+02  0.41800000000E+01 0.  1.
        -11    1    1    2    0    0  0.29563069077E+01  0.21692919395E+03 -0.52451204246E+02  0.22319978442E+03  0.00000000000E+00 0.  1.
         11    1    1    2    0    0 -0.37670454270E+02  0.50026666070E+02  0.42947966904E+01  0.62770819029E+02  0.00000000000E+00 0. -1.
</event>
<event>
 7    1  0.2873461E-009  0.1557704E+03  0.7561462E-02  0.1193556E+00
         -2   -1    0    0    0  501 -0.00000000000E+00  0.00000000000E+00  0.22186938529E+03  0.22186938529E+03  0.00000000000E+00 0.  1.
          2   -1    0    0  501    0  0.00000000000E+00 -0.00000000000E+00 -0.14490663832E+03  0.14490663832E+03  0.00000000000E+00 0. -1.
         25    2    1    2    0    0  0.72905146966E+02  0.86461833740E+02  0.12784105249E+03  0.21161771034E+03  0.12509161236E+03 0.  0.
          5    1    3    3  502    0  0.39947989007E+01 -0.30523661448E+02  0.12756467568E+02  0.33583510705E+02  0.41800000000E+01 0. -1.
         -5    1    3    3    0  502  0.68910348066E+02  0.11698549519E+03  0.11508458492E+03  0.17803419964E+03  0.41800000000E+01 0. -1.
        -11    1    1    2    0    0 -0.43707094291E+02 -0.10242476426E+03 -0.28158746163E+02  0.11486538822E+03  0.00000000000E+00 0. -1.
         11    1    1    2    0    0 -0.29198052676E+02  0.15962930521E+02 -0.22719559359E+02  0.40292925041E+02  0.00000000000E+00 0.  1.
</event>
<event>
 7    1  0.2873461E-009  0.1112066E+03  0.7561462E-02  0.1258352E+00
          4   -1    0    0  501    0  0.00000000000E+00  0.00000000000E+00  0.10487986880E+03  0.10487986880E+03  0.00000000000E+00 0. -1.
         -4   -1    0    0    0  501 -0.00000000000E+00 -0.00000000000E+00 -0.18711093431E+03  0.18711093431E+03  0.00000000000E+00 0.  1.
         25    2    1    2    0    0 -0.31024205744E+02 -0.84056259123E+02 -0.49718963445E+02  0.16168017550E+03  0.12506217567E+03 0.  0.
          5    1    3    3  502    0 -0.14394077587E+00 -0.66521638794E+02  0.30915217334E+02  0.73473615738E+02  0.41800000000E+01 0.  1.
         -5    1    3    3    0  502 -0.30880264968E+02 -0.17534620328E+02 -0.80634180779E+02  0.88206559758E+02  0.41800000000E+01 0.  1.
        -11    1    1    2    0    0  0.46393240608E+02  0.91753009977E+02 -0.41546849821E+02  0.11089223753E+03  0.00000000000E+00 0.  1.
         11    1    1    2    0    0 -0.15369034864E+02 -0.76967508541E+01  0.90347477649E+01  0.19418390086E+02  0.00000000000E+00 0. -1.
</event>
<event>
 7    1  0.2873461E-009  0.2088331E+03  0.7561462E-02  0.1142493E+00
          2   -1    0    0  501    0  0.00000000000E+00  0.00000000000E+00  0.73387642787E+03  0.73387642787E+03  0.00000000000E+00 0. -1.
         -2   -1    0    0    0  501 -0.00000000000E+00 -0.00000000000E+00 -0.70193764727E+02  0.70193764727E+02  0.00000000000E+00 0.  1.
         25    2    1    2    0    0 -0.13718894192E+03 -0.13583315318E+03  0.42513951393E+03  0.48338678513E+03  0.12509087275E+03 0.  0.
          5    1    3    3  502    0  0.16022782361E+02 -0.89185994758E+01  0.65699170034E+01  0.19922529474E+02  0.41800000000E+01 0.  1.
         -5    1    3    3    0  502 -0.15321172429E+03 -0.12691455370E+03  0.41856959693E+03  0.46346425566E+03  0.41800000000E+01 0.  1.
        -11    1    1    2    0    0  0.11117549950E+03  0.13352327456E+03  0.23785778278E+03  0.29455862128E+03  0.00000000000E+00 0. -1.
         11    1    1    2    0    0  0.26013442422E+02  0.23098786165E+01  0.68536642446E+00  0.26124786181E+02  0.00000000000E+00 0.  1.
</event>
<event>
 7    1  0.2873461E-009  0.1174062E+03  0.7561462E-02  0.1247438E+00
          2   -1    0    0  501    0  0.00000000000E+00  0.00000000000E+00  0.29548625868E+03  0.29548625868E+03  0.00000000000E+00 0.  1.
         -2   -1    0    0    0  501 -0.00000000000E+00 -0.00000000000E+00 -0.48984821114E+02  0.48984821114E+02  0.00000000000E+00 0. -1.
         25    2    1    2    0    0  0.71076764627E+00  0.50173967602E+02  0.12037656331E+03  0.18070961345E+03  0.12509002831E+03 0.  0.
          5    1    3    3  502    0  0.55183435675E+02  0.56652927506E+02  0.62803016386E+02  0.10107649101E+03  0.41800000000E+01 0.  1.
         -5    1    3    3    0  502 -0.54472668029E+02 -0.64789599039E+01  0.57573546925E+02  0.79633122437E+02  0.41800000000E+01 0.  1.
        -11    1    1    2    0    0 -0.34669441383E+02  0.57787765399E+01  0.66528808028E+02  0.75242585826E+02  0.00000000000E+00 0.  1.
         11    1    1    2    0    0  0.33958673737E+02 -0.55952744142E+02  0.59596066230E+02  0.88518880523E+02  0.00000000000E+00 0. -1.
</event>
<event>
 7    1  0.2873461E-009  0.2017601E+03  0.7561462E-02  0.1148262E+00
         -2   -1    0    0    0  501 -0.00000000000E+00  0.00000000000E+00  0.61463243285E+02  0.61463243285E+02  0.00000000000E+00 0.  1.
          2   -1    0    0  501    0  0.00000000000E+00 -0.00000000000E+00 -0.91377488792E+03  0.91377488792E+03  0.00000000000E+00 0. -1.
         25    2    1    2    0    0  0.16623843613E+03 -0.67580860719E+02 -0.66487090248E+03  0.69993076110E+03  0.12508941998E+03 0.  0.
          5    1    3    3  502    0  0.17515166525E+03 -0.87368109768E+02 -0.61426107877E+03  0.64470569854E+03  0.41800000000E+01 0.  1.
         -5    1    3    3    0  502 -0.89132291273E+01  0.19787249050E+02 -0.50609823714E+02  0.55225062561E+02  0.41800000000E+01 0.  1.
        -11    1    1    2    0    0 -0.91201578566E+02  0.62239678868E+02 -0.55861565266E+02  0.12374174733E+03  0.00000000000E+00 0. -1.
         11    1    1    2    0    0 -0.75036857559E+02  0.53411818506E+01 -0.13157917689E+03  0.15156562278E+03  0.00000000000E+00 0.  1.
</event>
<event>
 7    1  0.2873461E-009  0.9071601E+02  0.7561462E-02  0.1301127E+00
          1   -1    0    0  501    0  0.00000000000E+00  0.00000000000E+00  0.14412297517E+03  0.14412297517E+03  0.00000000000E+00 0. -1.
         -1   -1    0    0    0  501 -0.00000000000E+00 -0.00000000000E+00 -0.10598589282E+03  0.10598589282E+03  0.00000000000E+00 0.  1.
         25    2    1    2    0    0 -0.20656040329E+02 -0.52919041967E+02  0.17782748296E+02  0.13853317859E+03  0.12509243954E+03 0.  0.
          5    1    3    3  502    0 -0.22456839269E+02 -0.12498338264E+01 -0.48938775495E+02  0.54021735084E+02  0.41800000000E+01 0.  1.
         -5    1    3    3    0  502  0.18007989401E+01 -0.51669208141E+02  0.66721523791E+02  0.84511443507E+02  0.41800000000E+01 0.  1.
        -11    1    1    2    0    0  0.35190715822E+02 -0.14247019633E+02  0.19875661749E+02  0.42853307672E+02  0.00000000000E+00 0.  1.
         11    1    1    2    0    0 -0.14534675493E+02  0.67166061600E+02  0.47867230525E+00  0.68722381723E+02  0.00000000000E+00 0. -1.
</event>
<event>
 7    1  0.2873461E-009  0.1798935E+03  0.7561462E-02  0.1167906E+00
          4   -1    0    0  501    0  0.00000000000E+00  0.00000000000E+00  0.13643061601E+03  0.13643061601E+03  0.00000000000E+00 0.  1.
         -4   -1    0    0    0  501 -0.00000000000E+00 -0.00000000000E+00 -0.24976723193E+03  0.24976723193E+03  0.00000000000E+00 0. -1.
         25    2    1    2    0    0  0.44201684764E+02  0.14157629769E+03 -0.83161201223E+02  0.21109381293E+03  0.12508867040E+03 0.  0.
          5    1    3    3  502    0  0.85679757284E+02  0.68491009022E+02 -0.50648388492E+02  0.12089156622E+03  0.41800000000E+01 0.  1.
         -5    1    3    3    0  502 -0.41478072519E+02  0.73085288670E+02 -0.32512812731E+02  0.90202246710E+02  0.41800000000E+01 0.  1.
        -11    1    1    2    0    0 -0.47726771942E+02 -0.34857080022E+02  0.11987044837E+02  0.60303814403E+02  0.00000000000E+00 0.  1.
         11    1    1    2    0    0  0.35250871778E+01 -0.10671921767E+03 -0.42162459529E+02  0.11480022062E+03  0.00000000000E+00 0. -1.
</event>
<event>
 7    1  0.2873461E-009  0.9448042E+02  0.7561462E-02  0.1292351E+00
         -1   -1    0    0    0  501 -0.00000000000E+00  0.00000000000E+00  0.21295926475E+03  0.21295926475E+03  0.00000000000E+00 0.  1.
          1   -1    0    0  501    0  0.00000000000E+00 -0.00000000000E+00 -0.68368125658E+02  0.68368125658E+02  0.00000000000E+00 0. -1.
         25    2    1    2    0    0 -0.44584130085E+02 -0.32041061614E+02  0.68047919601E+02  0.15261483529E+03  0.12508554794E+03 0.  0.
          5    1    3    3  502    0 -0.57166593210E+01 -0.70214941134E+02  0.73592134807E+01  0.70953848206E+02  0.41800000000E+01 0.  1.
         -5    1    3    3    0  502 -0.38867470764E+02  0.38173879519E+02  0.60688706120E+02  0.81660987085E+02  0.41800000000E+01 0.  1.
        -11    1    1    2    0    0  0.40042088340E+02  0.10034206634E+02  0.92405731247E+02  0.10120708132E+03  0.00000000000E+00 0.  1.
         11    1    1    2    0    0  0.45420417449E+01  0.22006854981E+02 -0.15862511761E+02  0.27505473796E+02  0.00000000000E+00 0. -1.
</event>
<event>
 7    1  0.2873461E-009  0.1137376E+03  0.7561462E-02  0.1253801E+00
         -2   -1    0    0    0  501 -0.00000000000E+00  0.00000000000E+00  0.12150246366E+02  0.12150246366E+02  0.00000000000E+00 0.  1.
          2   -1    0    0  501    0  0.00000000000E+00 -0.00000000000E+00 -0.13031909207E+04  0.13031909207E+04  0.00000000000E+00 0. -1.
         25    2    1    2    0    0 -0.91527612826E+01  0.62098650650E+02 -0.76070444202E+03  0.77347182110E+03  0.12508954582E+03 0.  0.
          5    1    3    3  502    0 -0.41505596147E+02  0.71133196777E+02 -0.69184625704E+03  0.69674339751E+03  0.41800000000E+01 0. -1.
         -5    1    3    3    0  502  0.32352834865E+02 -0.90345461277E+01 -0.68858184977E+02  0.76728423585E+02  0.41800000000E+01 0. -1.
        -11    1    1    2    0    0 -0.31650694398E+02  0.55767190756E+01 -0.14688535168E+03  0.15036014362E+03  0.00000000000E+00 0.  1.
         11    1    1    2    0    0  0.40803455681E+02 -0.67675369725E+02 -0.38345088063E+03  0.39150920234E+03  0.00000000000E+00 0. -1.
</event>
<event>
 7    1  0.2873461E-009  0.5677372E+02  0.7561462E-02  0.1411892E+00
          2   -1    0    0  501    0  0.00000000000E+00  0.00000000000E+00  0.34209533357E+03  0.34209533357E+03  0.00000000000E+00 0. -1.
         -2   -1    0    0    0  501 -0.00000000000E+00 -0.00000000000E+00 -0.35953214815E+02  0.35953214815E+02  0.00000000000E+00 0.  1.
         25    2    1    2    0    0  0.56716670402E+01 -0.16144179908E+02  0.20427184257E+03  0.24014210341E+03  0.12509373209E+03 0.  0.
          5    1    3    3  502    0 -0.28627863841E+02 -0.27060618286E+02  0.78234618259E+01  0.40379581537E+02  0.41800000000E+01 0. -1.
         -5    1    3    3    0  502  0.34299530881E+02  0.10916438379E+02  0.19644838075E+03  0.19976252187E+03  0.41800000000E+01 0. -1.
        -11    1    1    2    0    0 -0.60576879890E+01  0.26575837724E+02  0.11666100901E+03  0.11980301230E+03  0.00000000000E+00 0. -1.
         11    1    1    2    0    0  0.38602094876E+00 -0.10431657816E+02 -0.14790732827E+02  0.18103432672E+02  0.00000000000E+00 0.  1.
</event>
<event>
 7    1  0.2873461E-009  0.1422352E+03  0.7561462E-02  0.1210353E+00
          1   -1    0    0  501    0  0.00000000000E+00  0.00000000000E+00  0.75623094015E+03  0.75623094015E+03  0.00000000000E+00 0. -1.
         -1   -1    0    0    0  501 -0.00000000000E+00 -0.00000000000E+00 -0.37580751819E+02  0.37580751819E+02  0.00000000000E+00 0.  1.
         25    2    1    2    0    0  0.92795140097E+02  0.85442536761E+02  0.32534497766E+03  0.37068619451E+03  0.12509010831E+03 0.  0.
          5    1    3    3  502    0  0.82057826975E+02  0.25694290317E+02  0.78678712567E+02  0.11662545063E+03  0.41800000000E+01 0.  1.
         -5    1    3    3    0  502  0.10737313121E+02  0.59748246444E+02  0.24666626509E+03  0.25406074388E+03  0.41800000000E+01 0.  1.
        -11    1    1    2    0    0 -0.79676024402E+02 -0.37931748221E+02  0.33668505052E+03  0.34805733670E+03  0.00000000000E+00 0. -1.
         11    1    1    2    0    0 -0.13119115695E+02 -0.47510788540E+02  0.56620160150E+02  0.75068160758E+02  0.00000000000E+00 0.  1.
</event>
<event>
 7    1  0.2873461E-009  0.1046663E+03  0.7561462E-02  0.1270778E+00
         -1   -1    0    0    0  501 -0.00000000000E+00  0.00000000000E+00  0.29539831265E+03  0.29539831265E+03  0.00000000000E+00 0.  1.
          1   -1    0    0  501    0  0.00000000000E+00 -0.00000000000E+00 -0.62964111886E+02  0.62964111886E+02  0.00000000000E+00 0. -1.
         25    2    1    2    0    0  0.14159647231E+02 -0.44427820523E+02  0.35789520702E+02  0.13821217731E+03  0.12508952521E+03 0.  0.
          5    1    3    3  502    0  0.41659803638E+01 -0.88193618398E+02  0.24848890003E+02  0.91817261193E+02  0.41800000000E+01 0. -1.
         -5    1    3    3    0  502  0.99936668671E+01  0.43765797875E+02  0.10940630699E+02  0.46394916114E+02  0.41800000000E+01 0. -1.
        -11    1    1    2    0    0  0.26273496327E+01  0.55618331126E+02  0.19135780050E+03  0.19929402785E+03  0.00000000000E+00 0.  1.
         11    1    1    2    0    0 -0.16786996864E+02 -0.11190510603E+02  0.52868795559E+01  0.20856219377E+02  0.00000000000E+00 0. -1.
</event>
<event>
 7    1  0.2873461E-009  0.1084747E+03  0.7561462E-02  0.1263421E+00
         -1   -1    0    0    0  501 -0.00000000000E+00  0.00000000000E+00  0.17867756636E+03  0.17867756636E+03  0.00000000000E+00 0.  1.
          1   -1    0    0  501    0  0.00000000000E+00 -0.00000000000E+00 -0.98002999457E+02  0.98002999457E+02  0.00000000000E+00 0. -1.
         25    2    1    2    0    0  0.68661139874E+02  0.26593605382E+02  0.60558536618E+02  0.15727823224E+03  0.12509010354E+03 0.  0.
          5    1    3    3  502    0  0.20915308992E+02 -0.48822815878E+02  0.37004357935E+02  0.64868423803E+02  0.41800000000E+01 0. -1.
         -5    1    3    3    0  502  0.47745830882E+02  0.75416421260E+02  0.23554178683E+02  0.92409808439E+02  0.41800000000E+01 0. -1.
        -11    1    1    2    0    0 -0.31502708298E+02 -0.68632048243E+01 -0.36606167690E+02  0.48780485069E+02  0.00000000000E+00 0. -1.
         11    1    1    2    0    0 -0.37158431576E+02 -0.19730400558E+02  0.56722197974E+02  0.70621848506E+02  0.00000000000E+00 0.  1.
</event>
<event>
 7    1  0.2873461E-009  0.1784333E+03  0.7561462E-02  0.1169328E+00
         -1   -1    0    0    0  501 -0.00000000000E+00  0.00000000000E+00  0.35822175496E+03  0.35822175496E+03  0.00000000000E+00 0.  1.
          1   -1    0    0  501    0  0.00000000000E+00 -0.00000000000E+00 -0.16177526000E+03  0.16177526000E+03  0.00000000000E+00 0. -1.
         25    2    1    2    0    0 -0.17191446415E+03  0.11413757077E+02 -0.36982619193E+02  0.21610049441E+03  0.12508738036E+03 0.  0.
          5    1    3    3  502    0 -0.75747171430E+01  0.43203913086E+01  0.35137167352E+02  0.36443587233E+02  0.41800000000E+01 0.  1.
         -5    1    3    3    0  502 -0.16433974701E+03  0.70933657687E+01 -0.72119786545E+02  0.17965690717E+03  0.41800000000E+01 0.  1.
        -11    1    1    2    0    0  0.30051681886E+02 -0.26396788065E+02  0.14405082365E+02  0.42513531990E+02  0.00000000000E+00 0. -1.
         11    1    1    2    0    0  0.14186278226E+03  0.14983030988E+02  0.21902403179E+03  0.26138298857E+03  0.00000000000E+00 0.  1.
</event>
<event>
 7    1  0.2873461E-009  0.1078368E+03  0.7561462E-02  0.1264629E+00
          2   -1    0    0  501    0  0.00000000000E+00  0.00000000000E+00  0.59947853730E+03  0.59947853730E+03  0.00000000000E+00 0. -1.
         -2   -1    0    0    0  501 -0.00000000000E+00 -0.00000000000E+00 -0.29548653970E+02  0.29548653970E+02  0.00000000000E+00 0.  1.
         25    2    1    2    0    0 -0.19083293597E+02 -0.42619798454E+02  0.44422854318E+03  0.46386051137E+03  0.12508779366E+03 0.  0.
          5    1    3    3  502    0  0.30705475625E+02  0.13208469780E+02  0.29463194640E+03  0.29655142243E+03  0.41800000000E+01 0.  1.
         -5    1    3    3    0  502 -0.49788769223E+02 -0.55828268233E+02  0.14959659678E+03  0.16730908894E+03  0.41800000000E+01 0.  1.
        -11    1    1    2    0    0 -0.39262713186E+02  0.23034101340E+02  0.56508076596E+02  0.72562340039E+02  0.00000000000E+00 0. -1.
         11    1    1    2    0    0  0.58346006784E+02  0.19585697113E+02  0.69193263559E+02  0.92604339860E+02  0.00000000000E+00 0.  1.
</event>
<event>
 7    1  0.2873461E-009  0.1701491E+03  0.7561462E-02  0.1177692E+00
          1   -1    0    0  501    0  0.00000000000E+00  0.00000000000E+00  0.14066288816E+03  0.14066288816E+03  0.00000000000E+00 0. -1.
         -1   -1    0    0    0  501 -0.00000000000E+00 -0.00000000000E+00 -0.38857646796E+03  0.38857646796E+03  0.00000000000E+00 0.  1.
         25    2    1    2    0    0 -0.19115112723E+02 -0.15991190290E+03  0.17819433796E+02  0.20469994954E+03  0.12508929969E+03 0.  0.
          5    1    3    3  502    0  0.14509253011E+02 -0.24904293114E+02 -0.43700698694E+02  0.52516337504E+02  0.41800000000E+01 0.  1.
         -5    1    3    3    0  502 -0.33624365735E+02 -0.13500760979E+03  0.61520132490E+02  0.15218361204E+03  0.41800000000E+01 0.  1.
        -11    1    1    2    0    0  0.34794732206E+02  0.14866692640E+03 -0.17710242713E+03  0.23383284219E+03  0.00000000000E+00 0. -1.
         11    1    1    2    0    0 -0.15679619483E+02  0.11244976499E+02 -0.88630586471E+02  0.90706564381E+02  0.00000000000E+00 0.  1.
</event>
<event>
 7    1  0.2873461E-009  0.4441627E+03  0.7561462E-02  0.1029477E+00
          2   -1    0    0  501    0  0.00000000000E+00  0.00000000000E+00  0.21714823687E+04  0.21714823687E+04  0.00000000000E+00 0. -1.
         -2   -1    0    0    0  501 -0.00000000000E+00 -0.00000000000E+00 -0.93216527231E+02  0.93216527231E+02  0.00000000000E+00 0.  1.
         25    2    1    2    0    0  0.41760186507E+03 -0.11426843196E+03  0.10275091700E+04  0.11219948825E+04  0.12509528260E+03 0.  0.
          5    1    3    3  502    0  0.77316796819E+02  0.26850656394E+02  0.17161028424E+03  0.19017467464E+03  0.41800000000E+01 0.  1.
         -5    1    3    3    0  502  0.34028506825E+03 -0.14111908835E+03  0.85589888572E+03  0.93182020785E+03  0.41800000000E+01 0.  1.
        -11    1    1    2    0    0 -0.11157410086E+03  0.80341251451E+00  0.16929896114E+03  0.20275986708E+03  0.00000000000E+00 0. -1.
         11    1    1    2    0    0 -0.30602776421E+03  0.11346501945E+03  0.88145771034E+03  0.93994414633E+03  0.00000000000E+00 0.  1.
</event>
<event>
 7    1  0.2873461E-009  0.1777463E+03  0.7561462E-02  0.1170002E+00
          1   -1    0    0  501    0  0.00000000000E+00  0.00000000000E+00  0.17889164432E+03  0.17889164432E+03  0.00000000000E+00 0. -1.
         -1   -1    0    0    0  501 -0.00000000000E+00 -0.00000000000E+00 -0.19712077062E+03  0.19712077062E+03  0.00000000000E+00 0.  1.
         25    2    1    2    0    0 -0.11058290988E+03  0.10052067222E+03  0.21947782254E+02  0.19611464772E+03  0.12508502869E+03 0.  0.
          5    1    3    3  502    0 -0.47728164509E+01  0.75234210733E+02 -0.22103662031E+02  0.78670264501E+02  0.41800000000E+01 0. -1.
         -5    1    3    3    0  502 -0.10581009343E+03  0.25286461490E+02  0.44051444285E+02  0.11744438322E+03  0.41800000000E+01 0. -1.
        -11    1    1    2    0    0  0.53727326899E+02 -0.10084574211E+03 -0.79456452938E+01  0.11454092123E+03  0.00000000000E+00 0. -1.
         11    1    1    2    0    0  0.56855582980E+02  0.32506988265E+00 -0.32231263260E+02  0.65356845990E+02  0.00000000000E+00 0.  1.
</event>
<event>
 7    1  0.2873461E-009  0.9013640E+02  0.7561462E-02  0.1302522E+00
         -3   -1    0    0    0  501 -0.00000000000E+00  0.00000000000E+00  0.51862593551E+02  0.51862593551E+02  0.00000000000E+00 0.  1.
          3   -1    0    0  501    0  0.00000000000E+00 -0.00000000000E+00 -0.27944990987E+03  0.27944990987E+03  0.00000000000E+00 0. -1.
         25    2    1    2    0    0  0.40124568880E+02  0.24285469788E+02 -0.97562223206E+02  0.16542105575E+03  0.12508386473E+03 0.  0.
          5    1    3    3  502    0 -0.23424767397E+02 -0.17717476878E+02 -0.82481344427E+02  0.87654282798E+02  0.41800000000E+01 0.  1.
         -5    1    3    3    0  502  0.63549336277E+02  0.42002946666E+02 -0.15080878780E+02  0.77766772947E+02  0.41800000000E+01 0.  1.
        -11    1    1    2    0    0 -0.42790200369E+02 -0.39881337793E+02 -0.13672298277E+03  0.14871010850E+03  0.00000000000E+00 0. -1.
         11    1    1    2    0    0  0.26656314887E+01  0.15595868004E+02  0.66978896589E+01  0.17181339177E+02  0.00000000000E+00 0.  1.
</event>
<event>
 7    1  0.2873461E-009  0.1029296E+03  0.7561462E-02  0.1274253E+00
          2   -1    0    0  501    0  0.00000000000E+00  0.00000000000E+00  0.68936612437E+03  0.68936612437E+03  0.00000000000E+00 0. -1.
         -2   -1    0    0    0  501 -0.00000000000E+00 -0.00000000000E+00 -0.26515168421E+02  0.26515168421E+02  0.00000000000E+00 0.  1.
         25    2    1    2    0    0 -0.23814521834E+02 -0.52420287128E+01  0.56858441506E+03  0.58269230799E+03  0.12508988138E+03 0.  0.
          5    1    3    3  502    0  0.86012888062E+01  0.48226718236E+02  0.39679906410E+03  0.39983342555E+03  0.41800000000E+01 0. -1.
         -5    1    3    3    0  502 -0.32415810641E+02 -0.53468746949E+02  0.17178535097E+03  0.18285888244E+03  0.41800000000E+01 0. -1.
        -11    1    1    2    0    0 -0.33949621083E+02  0.11684534681E+02  0.33612966704E+02  0.49182686517E+02  0.00000000000E+00 0.  1.
         11    1    1    2    0    0  0.57764142918E+02 -0.64425059682E+01  0.60653574184E+02  0.84006298285E+02  0.00000000000E+00 0. -1.
</event>
<event>
 7    1  0.2873461E-009  0.1225864E+03  0.7561462E-02  0.1238890E+00
         -1   -1    0    0    0  501 -0.00000000000E+00  0.00000000000E+00  0.54716696579E+02  0.54716696579E+02  0.00000000000E+00 0.  1.
          1   -1    0    0  501    0  0.00000000000E+00 -0.00000000000E+00 -0.45973211670E+03  0.45973211670E+03  0.00000000000E+00 0. -1.
         25    2    1    2    0    0  0.53918349736E+02  0.23244762801E+02 -0.55961258320E+02  0.14908442642E+03  0.12508795438E+03 0.  0.
          5    1    3    3  502    0  0.21368166090E+02 -0.51358554265E+02 -0.31139033780E+02  0.63885925234E+02  0.41800000000E+01 0.  1.
         -5    1    3    3    0  502  0.32550183646E+02  0.74603317066E+02 -0.24822224539E+02  0.85198501183E+02  0.41800000000E+01 0.  1.
        -11    1    1    2    0    0 -0.11041057455E+02  0.34352046402E+02 -0.11111135650E+03  0.11682337773E+03  0.00000000000E+00 0.  1.
         11    1    1    2    0    0 -0.42877292281E+02 -0.57596809203E+02 -0.23794280530E+03  0.24854100913E+03  0.00000000000E+00 0. -1.
</event>
<event>
 7    1  0.2873461E-009  0.1029490E+03  0.7561462E-02  0.1274214E+00
         -1   -1    0    0    0  501 -0.00000000000E+00  0.00000000000E+00  0.81938740785E+02  0.81938740785E+02  0.00000000000E+00 0.  1.
          1   -1    0    0  501    0  0.00000000000E+00 -0.00000000000E+00 -0.17952926619E+03  0.17952926619E+03  0.00000000000E+00 0. -1.
         25    2    1    2    0    0  0.18614736056E+02  0.38563911777E+02 -0.16968138256E+02  0.13333667928E+03  0.12512820880E+03 0.  0.
          5    1    3    3  502    0 -0.50365099030E+02  0.31816583625E+02  0.64317454883E+01  0.60064781227E+02  0.41800000000E+01 0. -1.
         -5    1    3    3    0  502  0.68979835086E+02  0.67473281520E+01 -0.23399883745E+02  0.73271898057E+02  0.41800000000E+01 0. -1.
        -11    1    1    2    0    0 -0.35197438615E+02 -0.47405692168E+00  0.24133854609E+01  0.35283265784E+02  0.00000000000E+00 0. -1.
         11    1    1    2    0    0  0.16582702558E+02 -0.38089854855E+02 -0.83035772608E+02  0.92848061906E+02  0.00000000000E+00 0.  1.
</event>
<event>
 7    1  0.2873461E-009  0.9036966E+02  0.7561462E-02  0.1301959E+00
          4   -1    0    0  501    0  0.00000000000E+00  0.00000000000E+00  0.61780088760E+02  0.61780088760E+02  0.00000000000E+00 0. -1.
         -4   -1    0    0    0  501 -0.00000000000E+00 -0.00000000000E+00 -0.21323079319E+03  0.21323079319E+03  0.00000000000E+00 0.  1.
         25    2    1    2    0    0 -0.66539794283E+01  0.37849250994E+02 -0.80475934273E+02  0.15362646140E+03  0.12509145615E+03 0.  0.
          5    1    3    3  502    0 -0.65034989430E+02  0.11514696153E+02 -0.47562791993E+02  0.81497421185E+02  0.41800000000E+01 0.  1.
         -5    1    3    3    0  502  0.58381010002E+02  0.26334554841E+02 -0.32913142280E+02  0.72129040215E+02  0.41800000000E+01 0.  1.
        -11    1    1    2    0    0  0.19513912881E+02 -0.16989340478E+02 -0.87882610783E+02  0.91612137645E+02  0.00000000000E+00 0.  1.
         11    1    1    2    0    0 -0.12859933453E+02 -0.20859910516E+02  0.16907840621E+02  0.29772282909E+02  0.00000000000E+00 0. -1.
</event>
<event>
 7    1  0.2873461E-009  0.1435025E+03  0.7561462E-02  0.1208692E+00
         -1   -1    0    0    0  501 -0.00000000000E+00  0.00000000000E+00  0.14850731476E+03  0.14850731476E+03  0.00000000000E+00 0.  1.
          1   -1    0    0  501    0  0.00000000000E+00 -0.00000000000E+00 -0.17601108435E+03  0.17601108435E+03  0.00000000000E+00 0. -1.
         25    2    1    2    0    0  0.99480579517E+02  0.41157558312E+02 -0.65216573168E+02  0.17742072296E+03  0.12503831897E+03 0.  0.
          5    1    3    3  502    0  0.57156745385E+02 -0.28737864173E+02  0.11648093860E+02  0.65160638968E+02  0.41800000000E+01 0. -1.
         -5    1    3    3    0  502  0.42323834132E+02  0.69895422485E+02 -0.76864667028E+02  0.11226008399E+03  0.41800000000E+01 0. -1.
        -11    1    1    2    0    0  0.11640756772E+02 -0.26561311578E+02  0.15351596611E+02  0.32812833000E+02  0.00000000000E+00 0.  1.
         11    1    1    2    0    0 -0.11112133629E+03 -0.14596246734E+02  0.22361206968E+02  0.11428484315E+03  0.00000000000E+00 0. -1.
</event>
<event>
 7    1  0.2873461E-009  0.9749992E+02  0.7561462E-02  0.1285643E+00
          2   -1    0    0  501    0  0.00000000000E+00  0.00000000000E+00  0.16582777812E+03  0.16582777812E+03  0.00000000000E+00 0. -1.
         -2   -1    0    0    0  501 -0.00000000000E+00 -0.00000000000E+00 -0.12030722165E+03  0.12030722165E+03  0.00000000000E+00 0.  1.
         25    2    1    2    0    0  0.64043814407E+02  0.13060914533E+02 -0.58454616391E+02  0.15276200997E+03  0.12508833623E+03 0.  0.
          5    1    3    3  502    0  0.12247854738E+01 -0.44268510315E+02 -0.50416087703E+02  0.67234332035E+02  0.41800000000E+01 0. -1.
         -5    1    3    3    0  502  0.62819028933E+02  0.57329424848E+02 -0.80385286883E+01  0.85527677935E+02  0.41800000000E+01 0. -1.
        -11    1    1    2    0    0 -0.27912359956E+02 -0.61564029380E+01  0.89309547197E+02  0.93772044641E+02  0.00000000000E+00 0. -1.
         11    1    1    2    0    0 -0.36131454450E+02 -0.69045115951E+01  0.14665625668E+02  0.39600945156E+02  0.00000000000E+00 0.  1.
</event>
<event>
 7    1  0.2873461E-009  0.1411050E+03  0.7561462E-02  0.1211850E+00
          1   -1    0    0  501    0  0.00000000000E+00  0.00000000000E+00  0.29880087462E+02  0.29880087462E+02  0.00000000000E+00 0. -1.
         -1   -1    0    0    0  501 -0.00000000000E+00 -0.00000000000E+00 -0.69672701733E+03  0.69672701733E+03  0.00000000000E+00 0.  1.
         25    2    1    2    0    0 -0.61804739030E+02  0.69084760711E+02 -0.32382833944E+03  0.35931198088E+03  0.12509107183E+03 0.  0.
          5    1    3    3  502    0  0.31938540776E+02  0.43161747251E+02 -0.15909303217E+03  0.16796151970E+03  0.41800000000E+01 0. -1.
         -5    1    3    3    0  502 -0.93743279805E+02  0.25923013460E+02 -0.16473530726E+03  0.19135046118E+03  0.41800000000E+01 0. -1.
        -11    1    1    2    0    0  0.60696889981E+02  0.12002913488E+01 -0.17167296948E+03  0.18209108052E+03  0.00000000000E+00 0. -1.
         11    1    1    2    0    0  0.11078490487E+01 -0.70285052059E+02 -0.17134562095E+03  0.18520404340E+03  0.00000000000E+00 0.  1.
</event>
<event>
 7    1  0.2962488E-009  0.1528512E+03  0.7561462E-02  0.1197013E+00
          2   -1    0    0  501    0  0.00000000000E+00  0.00000000000E+00  0.56170924297E+03  0.56170924297E+03  0.00000000000E+00 0. -1.
         -2   -1    0    0    0  501 -0.00000000000E+00 -0.00000000000E+00 -0.53029376707E+02  0.53029376707E+02  0.00000000000E+00 0.  1.
         25    2    1    2    0    0  0.12557320316E+03  0.28342780437E+02  0.20749154442E+03  0.27435968350E+03  0.12509417400E+03 0.  0.
          5    1    3    3  502    0  0.60024705035E+02  0.74969178683E+02  0.13675013550E+03  0.16715685725E+03  0.41800000000E+01 0. -1.
         -5    1    3    3    0  502  0.65548498126E+02 -0.46626398246E+02  0.70741408922E+02  0.10720282625E+03  0.41800000000E+01 0. -1.
        -11    1    1    2    0    0 -0.26495785810E+02 -0.23832750264E+01  0.51143787728E+01  0.27089915758E+02  0.00000000000E+00 0.  1.
         11    1    1    2    0    0 -0.99077417350E+02 -0.25959505411E+02  0.29607394307E+03  0.31328902042E+03  0.00000000000E+00 0. -1.
</event>
<event>
 7    1  0.2898670E-009  0.1477367E+03  0.7561462E-02  0.1203282E+00
         -2   -1    0    0    0  501 -0.00000000000E+00  0.00000000000E+00  0.27394935172E+02  0.27394935172E+02  0.00000000000E+00 0.  1.
          2   -1    0    0  501    0  0.00000000000E+00 -0.00000000000E+00 -0.10015360776E+04  0.10015360776E+04  0.00000000000E+00 0. -1.
         25    2    1    2    0    0 -0.84780887534E+01  0.12301087484E+03 -0.46136837851E+03  0.49367210675E+03  0.12509122659E+03 0.  0.
          5    1    3    3  502    0  0.10775488170E+02 -0.21132150426E+02 -0.30247996759E+02  0.38666427749E+02  0.41800000000E+01 0. -1.
         -5    1    3    3    0  502 -0.19253576924E+02  0.14414302527E+03 -0.43112038175E+03  0.45500567900E+03  0.41800000000E+01 0. -1.
        -11    1    1    2    0    0  0.17521451529E+02 -0.72290075760E+02 -0.43911787633E+03  0.44537328796E+03  0.00000000000E+00 0. -1.
         11    1    1    2    0    0 -0.90433627753E+01 -0.50720799079E+02 -0.73654887585E+02  0.89885618063E+02  0.00000000000E+00 0.  1.
</event>
<event>
 7    1  0.2873461E-009  0.1734697E+03  0.7561462E-02  0.1174277E+00
          1   -1    0    0  501    0  0.00000000000E+00  0.00000000000E+00  0.55948891729E+03  0.55948891729E+03  0.00000000000E+00 0. -1.
         -1   -1    0    0    0  501 -0.00000000000E+00 -0.00000000000E+00 -0.61234252347E+02  0.61234252347E+02  0.00000000000E+00 0.  1.
         25    2    1    2    0    0 -0.13657089057E+03  0.69322658493E+02  0.25596969404E+03  0.32345916965E+03  0.12509240996E+03 0.  0.
          5    1    3    3  502    0 -0.47922811343E+02  0.71325656984E+02  0.20203482973E+03  0.21958936681E+03  0.41800000000E+01 0. -1.
         -5    1    3    3    0  502 -0.88648079223E+02 -0.20029984914E+01  0.53934864311E+02  0.10386980284E+03  0.41800000000E+01 0. -1.
        -11    1    1    2    0    0  0.70242282322E+02  0.75027231419E+01  0.94639342439E+02  0.11809688488E+03  0.00000000000E+00 0.  1.
         11    1    1    2    0    0  0.66328608245E+02 -0.76825381635E+02  0.14764562846E+03  0.17916711512E+03  0.00000000000E+00 0. -1.
</event>
<event>
 7    1  0.2873461E-009  0.1124806E+03  0.7561462E-02  0.1256044E+00
          1   -1    0    0  501    0  0.00000000000E+00  0.00000000000E+00  0.69909944311E+02  0.69909944311E+02  0.00000000000E+00 0. -1.
         -1   -1    0    0    0  501 -0.00000000000E+00 -0.00000000000E+00 -0.23516777072E+03  0.23516777072E+03  0.00000000000E+00 0.  1.
         25    2    1    2    0    0 -0.63381751237E+02  0.65457069760E+01 -0.12048833399E+03  0.18499921287E+03  0.12508867841E+03 0.  0.
          5    1    3    3  502    0  0.11332727901E+02 -0.33734610398E+02 -0.86215063848E+02  0.93364684408E+02  0.41800000000E+01 0. -1.
         -5    1    3    3    0  502 -0.74714479138E+02  0.40280317374E+02 -0.34273270139E+02  0.91634528463E+02  0.41800000000E+01 0. -1.
        -11    1    1    2    0    0  0.65077608770E+02 -0.36182779203E+02 -0.50333114121E+02  0.89876087204E+02  0.00000000000E+00 0.  1.
         11    1    1    2    0    0 -0.16958575331E+01  0.29637072227E+02  0.55636216948E+01  0.30202414959E+02  0.00000000000E+00 0. -1.
</event>
<event>
 7    1  0.2873461E-009  0.1094872E+03  0.7561462E-02  0.1261522E+00
         -1   -1    0    0    0  501 -0.00000000000E+00  0.00000000000E+00  0.68734099429E+03  0.68734099429E+03  0.00000000000E+00 0.  1.
          1   -1    0    0  501    0  0.00000000000E+00 -0.00000000000E+00 -0.30346255020E+02  0.30346255020E+02  0.00000000000E+00 0. -1.
         25    2    1    2    0    0 -0.61608461061E+02  0.54229407449E+00  0.57892258900E+03  0.59547796838E+03  0.12508697059E+03 0.  0.
          5    1    3    3  502    0 -0.78420195684E+02 -0.41730473696E+02  0.30233959200E+03  0.31514736366E+03  0.41800000000E+01 0.  1.
         -5    1    3    3    0  502  0.16811734622E+02  0.42272767770E+02  0.27658299700E+03  0.28033060472E+03  0.41800000000E+01 0.  1.
        -11    1    1    2    0    0 -0.17785115256E+00  0.19425658901E+02 -0.15252832775E+01  0.19486260387E+02  0.00000000000E+00 0. -1.
         11    1    1    2    0    0  0.61786312214E+02 -0.19967952976E+02  0.79597433547E+02  0.10272302055E+03  0.00000000000E+00 0.  1.
</event>
<event>
 7    1  0.2873461E-009  0.1148637E+03  0.7561462E-02  0.1251819E+00
         -2   -1    0    0    0  501 -0.00000000000E+00  0.00000000000E+00  0.29986543449E+03  0.29986543449E+03  0.00000000000E+00 0.  1.
          2   -1    0    0  501    0  0.00000000000E+00 -0.00000000000E+00 -0.53455918986E+02  0.53455918986E+02  0.00000000000E+00 0. -1.
         25    2    1    2    0    0  0.30985812911E+01  0.63428370059E+02  0.15103338546E+03  0.20613288926E+03  0.12508766995E+03 0.  0.
          5    1    3    3  502    0  0.16484909931E+02 -0.35359940067E+02  0.30746440797E+02  0.49848707493E+02  0.41800000000E+01 0. -1.
         -5    1    3    3    0  502 -0.13386328640E+02  0.98788310127E+02  0.12028694467E+03  0.15628418176E+03  0.41800000000E+01 0. -1.
        -11    1    1    2    0    0  0.87909647305E+01  0.11707587156E+02  0.62717100660E+02  0.64403286974E+02  0.00000000000E+00 0.  1.
         11    1    1    2    0    0 -0.11889546022E+02 -0.75135957215E+02  0.32659029375E+02  0.82785177241E+02  0.00000000000E+00 0. -1.
</event>
<event>
 7    1  0.2873461E-009  0.1671309E+03  0.7561462E-02  0.1180873E+00
          1   -1    0    0  501    0  0.00000000000E+00  0.00000000000E+00  0.12849876899E+03  0.12849876899E+03  0.00000000000E+00 0. -1.
         -1   -1    0    0    0  501 -0.00000000000E+00 -0.00000000000E+00 -0.28903769274E+03  0.28903769274E+03  0.00000000000E+00 0.  1.
         25    2    1    2    0    0 -0.14443310032E+03  0.47108835991E+02 -0.27240305399E+02  0.19867301138E+03  0.12509503713E+03 0.  0.
          5    1    3    3  502    0 -0.10205541620E+03 -0.24740027327E-01 -0.68449453969E+02  0.12295571860E+03  0.41800000000E+01 0. -1.
         -5    1    3    3    0  502 -0.42377684114E+02  0.47133576019E+02  0.41209148570E+02  0.75717292774E+02  0.41800000000E+01 0. -1.
        -11    1    1    2    0    0  0.65897139568E+02 -0.59871138240E+02 -0.96185634026E+02  0.13106739637E+03  0.00000000000E+00 0.  1.
         11    1    1    2    0    0  0.78535960749E+02  0.12762302249E+02 -0.37112984328E+02  0.87796053984E+02  0.00000000000E+00 0. -1.
</event>
<event>
 7    1  0.2873461E-009  0.6948293E+02  0.7561462E-02  0.1361860E+00
          1   -1    0    0  501    0  0.00000000000E+00  0.00000000000E+00  0.24133726908E+02  0.24133726908E+02  0.00000000000E+00 0. -1.
         -1   -1    0    0    0  501 -0.00000000000E+00 -0.00000000000E+00 -0.54827228256E+03  0.54827228256E+03  0.00000000000E+00 0.  1.
         25    2    1    2    0    0  0.78664453284E+01 -0.31836246619E+02 -0.24968246135E+03  0.28118273161E+03  0.12508784709E+03 0.  0.
          5    1    3    3  502    0 -0.25450125906E+01 -0.31735476695E+02 -0.87508146167E+00  0.32122511386E+02  0.41800000000E+01 0. -1.
         -5    1    3    3    0  502  0.10411457919E+02 -0.10076992402E+00 -0.24880737989E+03  0.24906022023E+03  0.41800000000E+01 0. -1.
        -11    1    1    2    0    0  0.38869713305E+02  0.29580063845E+02 -0.16758007990E+03  0.17455348168E+03  0.00000000000E+00 0. -1.
         11    1    1    2    0    0 -0.46736158634E+02  0.22561827740E+01 -0.10687601440E+03  0.11666979617E+03  0.00000000000E+00 0.  1.
</event>
<event>
 7    1  0.2873461E-009  0.1409543E+03  0.7561462E-02  0.1212051E+00
         -1   -1    0    0    0  501 -0.00000000000E+00  0.00000000000E+00  0.10547353286E+03  0.10547353286E+03  0.00000000000E+00 0.  1.
          1   -1    0    0  501    0  0.00000000000E+00 -0.00000000000E+00 -0.33207779712E+03  0.33207779712E+03  0.00000000000E+00 0. -1.
         25    2    1    2    0    0  0.67658947954E+02  0.74789242237E+02 -0.25288906671E+03  0.29962522347E+03  0.12510487795E+03 0.  0.
          5    1    3    3  502    0 -0.11153202684E+02 -0.23351047863E+02 -0.14354423153E+02  0.29886238145E+02  0.41800000000E+01 0. -1.
         -5    1    3    3    0  502  0.78812150638E+02  0.98140290100E+02 -0.23853464355E+03  0.26973898532E+03  0.41800000000E+01 0. -1.
        -11    1    1    2    0    0 -0.20897727602E+02  0.16871358874E+02  0.22367365838E+02  0.34952207709E+02  0.00000000000E+00 0.  1.
         11    1    1    2    0    0 -0.46761220352E+02 -0.91660601111E+02  0.39174366031E+01  0.10297389880E+03  0.00000000000E+00 0. -1.
</event>
<event>
 7    1  0.2873461E-009  0.8375169E+02  0.7561462E-02  0.1318730E+00
          1   -1    0    0  501    0  0.00000000000E+00  0.00000000000E+00  0.11748686177E+03  0.11748686177E+03  0.00000000000E+00 0. -1.
         -1   -1    0    0    0  501 -0.00000000000E+00 -0.00000000000E+00 -0.14196626047E+03  0.14196626047E+03  0.00000000000E+00 0.  1.
         25    2    1    2    0    0  0.47128947749E+02 -0.39866067862E+02  0.12073426234E+02  0.14001328165E+03  0.12509000893E+03 0.  0.
          5    1    3    3  502    0  0.34131758032E+02  0.18935628551E+01  0.63583637346E+02  0.72311228898E+02  0.41800000000E+01 0.  1.
         -5    1    3    3    0  502  0.12997189717E+02 -0.41759630717E+02 -0.51510211112E+02  0.67702052753E+02  0.41800000000E+01 0.  1.
        -11    1    1    2    0    0  0.16060446522E+02  0.12103246457E+02  0.21363651128E+02  0.29339940471E+02  0.00000000000E+00 0. -1.
         11    1    1    2    0    0 -0.63189394271E+02  0.27762821405E+02 -0.57916476065E+02  0.90099900114E+02  0.00000000000E+00 0.  1.
</event>
<event>
 7    1  0.2873461E-009  0.1759746E+03  0.7561462E-02  0.1171757E+00
         -4   -1    0    0    0  501 -0.00000000000E+00  0.00000000000E+00  0.23167948452E+03  0.23167948452E+03  0.00000000000E+00 0. -1.
          4   -1    0    0  501    0  0.00000000000E+00 -0.00000000000E+00 -0.15879619576E+03  0.15879619576E+03  0.00000000000E+00 0.  1.
         25    2    1    2    0    0  0.13606006590E+03 -0.78307578740E+02  0.29821993317E+02  0.20293057830E+03  0.12508816851E+03 0.  0.
          5    1    3    3  502    0 -0.90319949582E+01 -0.41611906755E+02 -0.17032825391E+02  0.46051245993E+02  0.41800000000E+01 0. -1.
         -5    1    3    3    0  502  0.14509206086E+03 -0.36695671985E+02  0.46854818708E+02  0.15687933230E+03  0.41800000000E+01 0. -1.
        -11    1    1    2    0    0 -0.94189904615E+02  0.68435184861E+02 -0.12701690205E+02  0.11711723013E+03  0.00000000000E+00 0.  1.
         11    1    1    2    0    0 -0.41870161288E+02  0.98723938793E+01  0.55762985650E+02  0.70427871867E+02  0.00000000000E+00 0. -1.
</event>
<event>
 7    1  0.2873461E-009  0.3965500E+03  0.7561462E-02  0.1044981E+00
          2   -1    0    0  501    0  0.00000000000E+00  0.00000000000E+00  0.12687783694E+03  0.12687783694E+03  0.00000000000E+00 0. -1.
         -2   -1    0    0    0  501 -0.00000000000E+00 -0.00000000000E+00 -0.13875506964E+04  0.13875506964E+04  0.00000000000E+00 0.  1.
         25    2    1    2    0    0 -0.28330788915E+03 -0.26483974582E+03 -0.42609614048E+03  0.58958414302E+03  0.12509232491E+03 0.  0.
          5    1    3    3  502    0 -0.15308302284E+03 -0.21552084098E+03 -0.31601861497E+03  0.41203019572E+03  0.41800000000E+01 0. -1.
         -5    1    3    3    0  502 -0.13022486631E+03 -0.49318904844E+02 -0.11007752551E+03  0.17755394731E+03  0.41800000000E+01 0. -1.
        -11    1    1    2    0    0  0.11136011545E+03  0.12787767777E+03 -0.46345801540E+03  0.49350492178E+03  0.00000000000E+00 0. -1.
         11    1    1    2    0    0  0.17194777370E+03  0.13696206805E+03 -0.37111870354E+03  0.43133946850E+03  0.00000000000E+00 0.  1.
</event>
<event>
 7    1  0.2873461E-009  0.6555609E+02  0.7561462E-02  0.1375892E+00
         -1   -1    0    0    0  501 -0.00000000000E+00  0.00000000000E+00  0.21528366827E+02  0.21528366827E+02  0.00000000000E+00 0.  1.
          1   -1    0    0  501    0  0.00000000000E+00 -0.00000000000E+00 -0.71479759278E+03  0.71479759278E+03  0.00000000000E+00 0. -1.
         25    2    1    2    0    0 -0.22930561036E+02  0.18865298606E+02 -0.53768015890E+03  0.55283761107E+03  0.12509101013E+03 0.  0.
          5    1    3    3  502    0  0.10874142273E+02  0.32169293248E+02 -0.49684701147E+03  0.49802362957E+03  0.41800000000E+01 0.  1.
         -5    1    3    3    0  502 -0.33804703309E+02 -0.13303994642E+02 -0.40833147432E+02  0.54813981505E+02  0.41800000000E+01 0.  1.
        -11    1    1    2    0    0  0.19729435241E+02  0.15948651294E+02 -0.14464743050E+03  0.14685533440E+03  0.00000000000E+00 0. -1.
         11    1    1    2    0    0  0.32011257950E+01 -0.34813949900E+02 -0.10941636552E+02  0.36633014132E+02  0.00000000000E+00 0.  1.
</event>
<event>
 7    1  0.2873461E-009  0.1030497E+03  0.7561462E-02  0.1274011E+00
          4   -1    0    0  501    0  0.00000000000E+00  0.00000000000E+00  0.87595735314E+02  0.87595735314E+02  0.00000000000E+00 0. -1.
         -4   -1    0    0    0  501 -0.00000000000E+00 -0.00000000000E+00 -0.22170013486E+03  0.22170013486E+03  0.00000000000E+00 0.  1.
         25    2    1    2    0    0 -0.60468408735E+02  0.59494986831E+02 -0.75464965259E+02  0.16893189463E+03  0.12508773772E+03 0.  0.
          5    1    3    3  502    0 -0.43668047176E+02  0.71608803042E+02  0.65561173382E+01  0.84232856367E+02  0.41800000000E+01 0.  1.
         -5    1    3    3    0  502 -0.16800361558E+02 -0.12113816210E+02 -0.82021082598E+02  0.84699038260E+02  0.41800000000E+01 0.  1.
        -11    1    1    2    0    0  0.62337687486E+02 -0.26158938379E+02  0.57343529599E+01  0.67846592708E+02  0.00000000000E+00 0. -1.
         11    1    1    2    0    0 -0.18692787512E+01 -0.33336048452E+02 -0.64373787244E+02  0.72517382838E+02  0.00000000000E+00 0.  1.
</event>
<event>
 7    1  0.2873461E-009  0.1141734E+03  0.7561462E-02  0.1253031E+00
         -1   -1    0    0    0  501 -0.00000000000E+00  0.00000000000E+00  0.20978276457E+02  0.20978276457E+02  0.00000000000E+00 0.  1.
          1   -1    0    0  501    0  0.00000000000E+00 -0.00000000000E+00 -0.76383895561E+03  0.76383895561E+03  0.00000000000E+00 0. -1.
         25    2    1    2    0    0 -0.50748928004E+02 -0.68296077606E+02 -0.39978668274E+03  0.42745458225E+03  0.12509284664E+03 0.  0.
          5    1    3    3  502    0  0.30948345773E+02 -0.22932388223E+02 -0.39924307322E+02  0.55633777967E+02  0.41800000000E+01 0.  1.
         -5    1    3    3    0  502 -0.81697273777E+02 -0.45363689383E+02 -0.35986237542E+03  0.37182080428E+03  0.41800000000E+01 0.  1.
        -11    1    1    2    0    0  0.54760527151E+02  0.40836395619E+02 -0.19270386528E+03  0.20445318837E+03  0.00000000000E+00 0.  1.
         11    1    1    2    0    0 -0.40115991469E+01  0.27459681988E+02 -0.15037013114E+03  0.15290946145E+03  0.00000000000E+00 0. -1.
</event>
<event>
 7    1  0.2873461E-009  0.1987726E+03  0.7561462E-02  0.1150779E+00
          2   -1    0    0  501    0  0.00000000000E+00  0.00000000000E+00  0.16298154571E+03  0.16298154571E+03  0.00000000000E+00 0. -1.
         -2   -1    0    0    0  501 -0.00000000000E+00 -0.00000000000E+00 -0.25615932356E+03  0.25615932356E+03  0.00000000000E+00 0.  1.
         25    2    1    2    0    0 -0.13622509913E+02 -0.16848521331E+03 -0.84528871635E+02  0.22664101268E+03  0.12509268006E+03 0.  0.
          5    1    3    3  502    0 -0.43174886739E+02 -0.10555081424E+02  0.83997421112E+00  0.44650403642E+02  0.41800000000E+01 0.  1.
         -5    1    3    3    0  502  0.29552376826E+02 -0.15793013189E+03 -0.85368845846E+02  0.18199060903E+03  0.41800000000E+01 0.  1.
        -11    1    1    2    0    0 -0.31311915753E+02  0.20270465906E+02  0.11017327104E+01  0.37316774662E+02  0.00000000000E+00 0.  1.
         11    1    1    2    0    0  0.44934425666E+02  0.14821474741E+03 -0.97506389244E+01  0.15518308193E+03  0.00000000000E+00 0. -1.
</event>
<event>
 7    1  0.2873461E-009  0.1073929E+03  0.7561462E-02  0.1265475E+00
          1   -1    0    0  501    0  0.00000000000E+00  0.00000000000E+00  0.30647356416E+03  0.30647356416E+03  0.00000000000E+00 0. -1.
         -1   -1    0    0    0  501 -0.00000000000E+00 -0.00000000000E+00 -0.53797423316E+02  0.53797423316E+02  0.00000000000E+00 0.  1.
         25    2    1    2    0    0 -0.38966606288E+02  0.16918506604E+02  0.20782297705E+03  0.24625697685E+03  0.12508987403E+03 0.  0.
          5    1    3    3  502    0 -0.60190616552E+02  0.47476064449E+02  0.18973035111E+03  0.20467526853E+03  0.41800000000E+01 0. -1.
         -5    1    3    3    0  502  0.21224010265E+02 -0.30557557845E+02  0.18092625939E+02  0.41581708317E+02  0.41800000000E+01 0. -1.
        -11    1    1    2    0    0  0.57709959799E+02  0.18413198080E+02  0.42404863652E+02  0.73943612198E+02  0.00000000000E+00 0. -1.
         11    1    1    2    0    0 -0.18743353512E+02 -0.35331704684E+02  0.24483001453E+01  0.40070398430E+02  0.00000000000E+00 0.  1.
</event>
<event>
 7    1  0.2873461E-009  0.1140779E+03  0.7561462E-02  0.1253199E+00
         -1   -1    0    0    0  501 -0.00000000000E+00  0.00000000000E+00  0.27474234529E+02  0.27474234529E+02  0.00000000000E+00 0.  1.
          1   -1    0    0  501    0  0.00000000000E+00 -0.00000000000E+00 -0.83144691903E+03  0.83144691903E+03  0.00000000000E+00 0. -1.
         25    2    1    2    0    0 -0.68212369888E+02  0.34347724115E+02 -0.63665760631E+03  0.65332027770E+03  0.12514704960E+03 0.  0.
          5    1    3    3  502    0  0.35514327437E+02 -0.29439067276E+01 -0.13581700850E+03  0.14047656829E+03  0.41800000000E+01 0.  1.
         -5    1    3    3    0  502 -0.10372669733E+03  0.37291630843E+02 -0.50084059781E+03  0.51284370941E+03  0.41800000000E+01 0.  1.
        -11    1    1    2    0    0  0.17078275594E+02 -0.24548801694E+02 -0.14651404283E+03  0.14953486519E+03  0.00000000000E+00 0. -1.
         11    1    1    2    0    0  0.51134094294E+02 -0.97989224209E+01 -0.20801035360E+02  0.56066010665E+02  0.00000000000E+00 0.  1.
</event>
<event>
 7    1  0.2873461E-009  0.1377410E+03  0.7561462E-02  0.1216401E+00
          3   -1    0    0  501    0  0.00000000000E+00  0.00000000000E+00  0.16862750290E+03  0.16862750290E+03  0.00000000000E+00 0. -1.
         -3   -1    0    0    0  501 -0.00000000000E+00 -0.00000000000E+00 -0.13743562959E+03  0.13743562959E+03  0.00000000000E+00 0.  1.
         25    2    1    2    0    0  0.74515865629E+02  0.76057332217E+02  0.82368952326E+01  0.16447737033E+03  0.12509047483E+03 0.  0.
          5    1    3    3  502    0  0.93630192219E+02  0.60065277155E+02  0.44829937175E+02  0.12000685848E+03  0.41800000000E+01 0. -1.
         -5    1    3    3    0  502 -0.19114326590E+02  0.15992055062E+02 -0.36593041942E+02  0.44470511855E+02  0.41800000000E+01 0. -1.
        -11    1    1    2    0    0 -0.63040520081E+02 -0.10874791009E+01  0.18057558900E+02  0.65584794094E+02  0.00000000000E+00 0.  1.
         11    1    1    2    0    0 -0.11475345547E+02 -0.74969853116E+02  0.48974191811E+01  0.76000968061E+02  0.00000000000E+00 0. -1.
</event>
<event>
 7    1  0.2873461E-009  0.1923087E+03  0.7561462E-02  0.1156395E+00
         -3   -1    0    0    0  501 -0.00000000000E+00  0.00000000000E+00  0.87233126940E+02  0.87233126940E+02  0.00000000000E+00 0.  1.
          3   -1    0    0  501    0  0.00000000000E+00 -0.00000000000E+00 -0.49926862570E+03  0.49926862570E+03  0.00000000000E+00 0. -1.
         25    2    1    2    0    0  0.93593705444E+02  0.13977983733E+03 -0.12899692173E+03  0.24614215558E+03  0.12509024869E+03 0.  0.
          5    1    3    3  502    0 -0.22217267067E+02  0.24251364646E+02  0.63848067939E+01  0.33763498055E+02  0.41800000000E+01 0.  1.
         -5    1    3    3    0  502  0.11581097251E+03  0.11552847268E+03 -0.13538172853E+03  0.21237865753E+03  0.41800000000E+01 0.  1.
        -11    1    1    2    0    0 -0.79817109438E+02 -0.44156191277E+02 -0.15669133890E+03  0.18130834475E+03  0.00000000000E+00 0. -1.
         11    1    1    2    0    0 -0.13776596007E+02 -0.95623646048E+02 -0.12634723813E+03  0.15905125232E+03  0.00000000000E+00 0.  1.
</event>
<event>
 7    1  0.2873461E-009  0.1148618E+03  0.7561462E-02  0.1251823E+00
          1   -1    0    0  501    0  0.00000000000E+00  0.00000000000E+00  0.22598442747E+03  0.22598442747E+03  0.00000000000E+00 0. -1.
         -1   -1    0    0    0  501 -0.00000000000E+00 -0.00000000000E+00 -0.10691299503E+03  0.10691299503E+03  0.00000000000E+00 0.  1.
         25    2    1    2    0    0 -0.48332557098E+02 -0.88661815613E+02  0.11302054233E+03  0.19651347682E+03  0.12508776902E+03 0.  0.
          5    1    3    3  502    0  0.99599666461E+01 -0.75771271812E+01  0.93809617303E+02  0.94732943005E+02  0.41800000000E+01 0.  1.
         -5    1    3    3    0  502 -0.58292523744E+02 -0.81084688432E+02  0.19210925028E+02  0.10178053381E+03  0.41800000000E+01 0.  1.
        -11    1    1    2    0    0  0.54144180929E+02  0.39369041420E+02  0.38364476603E+02  0.77157934237E+02  0.00000000000E+00 0. -1.
         11    1    1    2    0    0 -0.58116238302E+01  0.49292774193E+02 -0.32313586494E+02  0.59226011441E+02  0.00000000000E+00 0.  1.
</event>
<event>
 7    1  0.2873461E-009  0.1518684E+03  0.7561462E-02  0.1198196E+00
          2   -1    0    0  501    0  0.00000000000E+00  0.00000000000E+00  0.92351111282E+02  0.92351111282E+02  0.00000000000E+00 0. -1.
         -2   -1    0    0    0  501 -0.00000000000E+00 -0.00000000000E+00 -0.25571373583E+03  0.25571373583E+03  0.00000000000E+00 0.  1.
         25    2    1    2    0    0 -0.81072168314E+02 -0.72371489093E+02 -0.96830309294E+02  0.19191925276E+03  0.12508621776E+03 0.  0.
          5    1    3    3  502    0 -0.82248596461E+02 -0.10347278142E+03 -0.89462355883E+02  0.15966350126E+03  0.41800000000E+01 0.  1.
         -5    1    3    3    0  502  0.11764281467E+01  0.31101292327E+02 -0.73679534112E+01  0.32255751503E+02  0.41800000000E+01 0.  1.
        -11    1    1    2    0    0  0.99335592610E+02  0.70327143385E+02 -0.64246212750E+02  0.13762646151E+03  0.00000000000E+00 0. -1.
         11    1    1    2    0    0 -0.18263424296E+02  0.20443457076E+01 -0.22861025058E+01  0.18519132837E+02  0.00000000000E+00 0.  1.
</event>
<event>
 7    1  0.2873461E-009  0.9994340E+02  0.7561462E-02  0.1280415E+00
          2   -1    0    0  501    0  0.00000000000E+00  0.00000000000E+00  0.29672178677E+03  0.29672178677E+03  0.00000000000E+00 0. -1.
         -2   -1    0    0    0  501 -0.00000000000E+00 -0.00000000000E+00 -0.46454473615E+02  0.46454473615E+02  0.00000000000E+00 0.  1.
         25    2    1    2    0    0  0.36730237745E+02  0.34718800351E+01  0.17962321389E+03  0.22197513935E+03  0.12508916502E+03 0.  0.
          5    1    3    3  502    0 -0.41152918520E+02 -0.11155840914E+02  0.29025406093E+02  0.51749029827E+02  0.41800000000E+01 0.  1.
         -5    1    3    3    0  502  0.77883156265E+02  0.14627720950E+02  0.15059780779E+03  0.17022610952E+03  0.41800000000E+01 0.  1.
        -11    1    1    2    0    0 -0.46626688967E+02 -0.25783807033E+02  0.78830898420E+01  0.53860894298E+02  0.00000000000E+00 0.  1.
         11    1    1    2    0    0  0.98964512221E+01  0.22311926998E+02  0.62761009427E+02  0.67340226740E+02  0.00000000000E+00 0. -1.
</event>
<event>
 7    1  0.2873461E-009  0.1044277E+03  0.7561462E-02  0.1271251E+00
          1   -1    0    0  501    0  0.00000000000E+00  0.00000000000E+00  0.11734651706E+03  0.11734651706E+03  0.00000000000E+00 0. -1.
         -1   -1    0    0    0  501 -0.00000000000E+00 -0.00000000000E+00 -0.11971950427E+03  0.11971950427E+03  0.00000000000E+00 0.  1.
         25    2    1    2    0    0 -0.43750068319E+02 -0.97865131148E+01  0.87361515188E+01  0.13316617951E+03  0.12508823568E+03 0.  0.
          5    1    3    3  502    0  0.30454488513E+02 -0.49589321455E+01 -0.34959538151E+02  0.46815687396E+02  0.41800000000E+01 0.  1.
         -5    1    3    3    0  502 -0.74204556832E+02 -0.48275809693E+01  0.43695689670E+02  0.86350492114E+02  0.41800000000E+01 0.  1.
        -11    1    1    2    0    0  0.42744214424E+02 -0.36944382333E+02 -0.79148434996E+01  0.57049101661E+02  0.00000000000E+00 0. -1.
         11    1    1    2    0    0  0.10058538945E+01  0.46730895448E+02 -0.31942952203E+01  0.46850740158E+02  0.00000000000E+00 0.  1.
</event>
<event>
 7    1  0.2873461E-009  0.1645173E+03  0.7561462E-02  0.1183689E+00
         -2   -1    0    0    0  501 -0.00000000000E+00  0.00000000000E+00  0.41852574788E+02  0.41852574788E+02  0.00000000000E+00 0.  1.
          2   -1    0    0  501    0  0.00000000000E+00 -0.00000000000E+00 -0.15678273803E+04  0.15678273803E+04  0.00000000000E+00 0. -1.
         25    2    1    2    0    0  0.10711460991E+02 -0.14767184363E+03 -0.13445456949E+04  0.13584449129E+04  0.12509095457E+03 0.  0.
          5    1    3    3  502    0  0.28486366561E+02 -0.73036533679E+02 -0.10831204075E+04  0.10859618308E+04  0.41800000000E+01 0. -1.
         -5    1    3    3    0  502 -0.17774905570E+02 -0.74635309947E+02 -0.26142528740E+03  0.27248308213E+03  0.41800000000E+01 0. -1.
        -11    1    1    2    0    0 -0.26018771808E+01  0.15940632020E+03 -0.16413616452E+03  0.22881832354E+03  0.00000000000E+00 0.  1.
         11    1    1    2    0    0 -0.81095838104E+01 -0.11734476570E+02 -0.17292946043E+02  0.22416718600E+02  0.00000000000E+00 0. -1.
</event>
<event>
 7    1  0.2873461E-009  0.1347171E+03  0.7561462E-02  0.1220620E+00
          1   -1    0    0  501    0  0.00000000000E+00  0.00000000000E+00  0.34746962349E+03  0.34746962349E+03  0.00000000000E+00 0. -1.
         -1   -1    0    0    0  501 -0.00000000000E+00 -0.00000000000E+00 -0.87409105892E+02  0.87409105892E+02  0.00000000000E+00 0.  1.
         25    2    1    2    0    0 -0.83020244114E+02 -0.84064313651E+02  0.53814669982E+02  0.18028547530E+03  0.12509062370E+03 0.  0.
          5    1    3    3  502    0 -0.34388707765E+02 -0.20658926646E+02  0.85253803051E+02  0.94313614110E+02  0.41800000000E+01 0.  1.
         -5    1    3    3    0  502 -0.48631536349E+02 -0.63405387005E+02 -0.31439133069E+02  0.85971861194E+02  0.41800000000E+01 0.  1.
        -11    1    1    2    0    0  0.94789476319E+02  0.94136825793E+02  0.18075806324E+03  0.22476713331E+03  0.00000000000E+00 0.  1.
         11    1    1    2    0    0 -0.11769232205E+02 -0.10072512142E+02  0.25487784376E+02  0.29826120766E+02  0.00000000000E+00 0. -1.
</event>
<event>
 7    1  0.2873461E-009  0.8713732E+02  0.7561462E-02  0.1309936E+00
          1   -1    0    0  501    0  0.00000000000E+00  0.00000000000E+00  0.10322224879E+04  0.10322224879E+04  0.00000000000E+00 0. -1.
         -1   -1    0    0    0  501 -0.00000000000E+00 -0.00000000000E+00 -0.15049700415E+02  0.15049700415E+02  0.00000000000E+00 0.  1.
         25    2    1    2    0    0  0.36728918954E+02  0.33712025611E+01  0.77393587323E+03  0.78484804397E+03  0.12509731316E+03 0.  0.
          5    1    3    3  502    0 -0.23563320673E+01 -0.26798920144E+02  0.35432286516E+02  0.44683931670E+02  0.41800000000E+01 0. -1.
         -5    1    3    3    0  502  0.39085251021E+02  0.30170122705E+02  0.73850358671E+03  0.74016411230E+03  0.41800000000E+01 0. -1.
        -11    1    1    2    0    0 -0.37580841321E+02  0.39556215271E+02  0.15436512103E+03  0.16372417168E+03  0.00000000000E+00 0. -1.
         11    1    1    2    0    0  0.85192236756E+00 -0.42927417832E+02  0.88871793236E+02  0.98699972677E+02  0.00000000000E+00 0.  1.
</event>
<event>
 7    1  0.2873461E-009  0.1781707E+03  0.7561462E-02  0.1169585E+00
         -1   -1    0    0    0  501 -0.00000000000E+00  0.00000000000E+00  0.62121312934E+02  0.62121312934E+02  0.00000000000E+00 0.  1.
          1   -1    0    0  501    0  0.00000000000E+00 -0.00000000000E+00 -0.80493200516E+03  0.80493200516E+03  0.00000000000E+00 0. -1.
         25    2    1    2    0    0 -0.94651506039E+02 -0.10881674779E+03 -0.13045762181E+03  0.23122958815E+03  0.12509172297E+03 0.  0.
          5    1    3    3  502    0 -0.63332311801E+02 -0.13364424918E+03 -0.85288567522E+02  0.17077288780E+03  0.41800000000E+01 0.  1.
         -5    1    3    3    0  502 -0.31319194238E+02  0.24827501388E+02 -0.45169054285E+02  0.60456700356E+02  0.41800000000E+01 0.  1.
        -11    1    1    2    0    0  0.78961470809E+02  0.24838903896E+02 -0.36029422120E+03  0.36968068769E+03  0.00000000000E+00 0.  1.
         11    1    1    2    0    0  0.15690035230E+02  0.83977843895E+02 -0.25205884922E+03  0.26614304226E+03  0.00000000000E+00 0. -1.
</event>
<event>
 7    1  0.2873461E-009  0.9915939E+02  0.7561462E-02  0.1282074E+00
         -3   -1    0    0    0  501 -0.00000000000E+00  0.00000000000E+00  0.11528762242E+02  0.11528762242E+02  0.00000000000E+00 0.  1.
          3   -1    0    0  501    0  0.00000000000E+00 -0.00000000000E+00 -0.13115357071E+04  0.13115357071E+04  0.00000000000E+00 0. -1.
         25    2    1    2    0    0 -0.48041388039E+01 -0.46710126822E+02 -0.85360205037E+03  0.86399545515E+03  0.12508705138E+03 0.  0.
          5    1    3    3  502    0  0.32239980840E+02  0.24589182858E+01 -0.65985917923E+03  0.66066411395E+03  0.41800000000E+01 0. -1.
         -5    1    3    3    0  502 -0.37044119644E+02 -0.49169045107E+02 -0.19374287115E+03  0.20333134121E+03  0.41800000000E+01 0. -1.
        -11    1    1    2    0    0  0.46709987814E+01 -0.28460750451E+02 -0.80195320122E+02  0.85223951535E+02  0.00000000000E+00 0.  1.
         11    1    1    2    0    0  0.13314002244E+00  0.75170877273E+02 -0.36620957434E+03  0.37384506263E+03  0.00000000000E+00 0. -1.
</event>
<event>
 7    1  0.2873461E-009  0.1846142E+03  0.7561462E-02  0.1163411E+00
          2   -1    0    0  501    0  0.00000000000E+00  0.00000000000E+00  0.29776683631E+02  0.29776683631E+02  0.00000000000E+00 0.  1.
         -2   -1    0    0    0  501 -0.00000000000E+00 -0.00000000000E+00 -0.11770902674E+04  0.11770902674E+04  0.00000000000E+00 0. -1.
         25    2    1    2    0    0 -0.11419109949E+02 -0.15100886474E+03 -0.54285218290E+03  0.57729560277E+03  0.12509055599E+03 0.  0.
          5    1    3    3  502    0 -0.62467908139E+02 -0.11670373092E+03 -0.40951141390E+03  0.43039408787E+03  0.41800000000E+01 0. -1.
         -5    1    3    3    0  502  0.51048798190E+02 -0.34305133823E+02 -0.13334076900E+03  0.14690151490E+03  0.41800000000E+01 0. -1.
        -11    1    1    2    0    0  0.49235774312E+02  0.10182225241E+03 -0.35928785903E+03  0.37666921590E+03  0.00000000000E+00 0. -1.
         11    1    1    2    0    0 -0.37816664363E+02  0.49186612336E+02 -0.24517354188E+03  0.25290213241E+03  0.00000000000E+00 0.  1.
</event>
<event>
 7    1  0.4850935E-009  0.8189101E+02  0.7561462E-02  0.1323769E+00
          2   -1    0    0  501    0  0.00000000000E+00  0.00000000000E+00  0.19531954646E+03  0.19531954646E+03  0.00000000000E+00 0. -1.
         -2   -1    0    0    0  501 -0.00000000000E+00 -0.00000000000E+00 -0.10016468829E+03  0.10016468829E+03  0.00000000000E+00 0.  1.
         25    2    1    2    0    0 -0.63851083416E+02  0.41332837050E+02  0.99025388082E+02  0.17674793726E+03  0.12509373113E+03 0.  0.
          5    1    3    3  502    0 -0.41561981634E+02  0.35788887565E+02  0.12812941708E+03  0.13943766604E+03  0.41800000000E+01 0.  1.
         -5    1    3    3    0  502 -0.22289101782E+02  0.55439494846E+01 -0.29104028997E+02  0.37310271213E+02  0.41800000000E+01 0.  1.
        -11    1    1    2    0    0  0.41645853756E+01 -0.22442354597E+02 -0.40291895038E+02  0.46308097099E+02  0.00000000000E+00 0.  1.
         11    1    1    2    0    0  0.59686498041E+02 -0.18890482452E+02  0.36421365122E+02  0.72428200399E+02  0.00000000000E+00 0. -1.
</event>
<event>
 7    1  0.2873461E-009  0.1943872E+03  0.7561462E-02  0.1154563E+00
          2   -1    0    0  501    0  0.00000000000E+00  0.00000000000E+00  0.11442942187E+04  0.11442942187E+04  0.00000000000E+00 0. -1.
         -2   -1    0    0    0  501 -0.00000000000E+00 -0.00000000000E+00 -0.35430725779E+02  0.35430725779E+02  0.00000000000E+00 0.  1.
         25    2    1    2    0    0  0.15833594964E+03 -0.50804565148E+02  0.49282492005E+03  0.53494911775E+03  0.12507109968E+03 0.  0.
          5    1    3    3  502    0  0.48737067138E+02  0.34346768228E+02  0.23072072210E+03  0.23833700134E+03  0.41800000000E+01 0.  1.
         -5    1    3    3    0  502  0.10959888250E+03 -0.85151333375E+02  0.26210419794E+03  0.29661211641E+03  0.41800000000E+01 0.  1.
        -11    1    1    2    0    0 -0.10522392123E+03 -0.14233366748E+02  0.35847495565E+03  0.37387023973E+03  0.00000000000E+00 0.  1.
         11    1    1    2    0    0 -0.53112028417E+02  0.65037931896E+02  0.25756361721E+03  0.27090558698E+03  0.00000000000E+00 0. -1.
</event>
<event>
 7    1  0.2873461E-009  0.1022200E+03  0.7561462E-02  0.1275696E+00
         -1   -1    0    0    0  501 -0.00000000000E+00  0.00000000000E+00  0.97909156275E+02  0.97909156275E+02  0.00000000000E+00 0.  1.
          1   -1    0    0  501    0  0.00000000000E+00 -0.00000000000E+00 -0.14445816080E+03  0.14445816080E+03  0.00000000000E+00 0. -1.
         25    2    1    2    0    0 -0.23612594774E+01 -0.34461226766E+02 -0.54771741428E+02  0.14085728074E+03  0.12509067984E+03 0.  0.
          5    1    3    3  502    0  0.45610096126E+02  0.15757898228E+02  0.55766729461E+01  0.48756167880E+02  0.41800000000E+01 0.  1.
         -5    1    3    3    0  502 -0.47971355603E+02 -0.50219124994E+02 -0.60348414374E+02  0.92101112865E+02  0.41800000000E+01 0.  1.
        -11    1    1    2    0    0 -0.29164580075E+02  0.44620560011E+02  0.30668288777E+02  0.61498870259E+02  0.00000000000E+00 0.  1.
         11    1    1    2    0    0  0.31525839552E+02 -0.10159333245E+02 -0.22445551870E+02  0.40011166069E+02  0.00000000000E+00 0. -1.
</event>
<event>
 7    1  0.2873461E-009  0.1577184E+03  0.7561462E-02  0.1191297E+00
          1   -1    0    0  501    0  0.00000000000E+00  0.00000000000E+00  0.42399264403E+03  0.42399264403E+03  0.00000000000E+00 0. -1.
         -1   -1    0    0    0  501 -0.00000000000E+00 -0.00000000000E+00 -0.88882933639E+02  0.88882933639E+02  0.00000000000E+00 0.  1.
         25    2    1    2    0    0 -0.12747803645E+03 -0.28206466305E+02  0.29881696801E+03  0.34926282537E+03  0.12508671513E+03 0.  0.
          5    1    3    3  502    0 -0.11221632273E+03 -0.67685296078E+02  0.26213603524E+03  0.29309823569E+03  0.41800000000E+01 0.  1.
         -5    1    3    3    0  502 -0.15261713722E+02  0.39478829773E+02  0.36680932765E+02  0.56164589685E+02  0.41800000000E+01 0.  1.
        -11    1    1    2    0    0  0.94575293248E+02  0.45127844124E+02 -0.89451579949E+01  0.10517140419E+03  0.00000000000E+00 0.  1.
         11    1    1    2    0    0  0.32902743202E+02 -0.16921377819E+02  0.45237900382E+02  0.58441348106E+02  0.00000000000E+00 0. -1.
</event>
<event>
 7    1  0.2873461E-009  0.1184130E+03  0.7561462E-02  0.1245738E+00
         -4   -1    0    0    0  501 -0.00000000000E+00  0.00000000000E+00  0.44303024791E+03  0.44303024791E+03  0.00000000000E+00 0.  1.
          4   -1    0    0  501    0  0.00000000000E+00 -0.00000000000E+00 -0.34547450808E+02  0.34547450808E+02  0.00000000000E+00 0. -1.
         25    2    1    2    0    0  0.58428555856E+02 -0.26613800441E+02  0.18852219979E+03  0.23517489999E+03  0.12507766890E+03 0.  0.
          5    1    3    3  502    0  0.21626738207E+01 -0.66211054161E+02  0.60679318883E+02  0.89933492044E+02  0.41800000000E+01 0. -1.
         -5    1    3    3    0  502  0.56265882036E+02  0.39597253719E+02  0.12784288090E+03  0.14524140794E+03  0.41800000000E+01 0. -1.
        -11    1    1    2    0    0 -0.73591191459E+01 -0.26697486876E+02  0.69245611427E+02  0.74577926641E+02  0.00000000000E+00 0.  1.
         11    1    1    2    0    0 -0.51069436710E+02  0.53311287317E+02  0.15071498589E+03  0.16782487210E+03  0.00000000000E+00 0. -1.
</event>
<event>
 7    1  0.2873461E-009  0.1103503E+03  0.7561462E-02  0.1259923E+00
         -1   -1    0    0    0  501 -0.00000000000E+00  0.00000000000E+00  0.25779897425E+02  0.25779897425E+02  0.00000000000E+00 0.  1.
          1   -1    0    0  501    0  0.00000000000E+00 -0.00000000000E+00 -0.77628471831E+03  0.77628471831E+03  0.00000000000E+00 0. -1.
         25    2    1    2    0    0  0.37799319696E+02 -0.26798988556E+02 -0.63123882613E+03  0.64517945240E+03  0.12508835209E+03 0.  0.
          5    1    3    3  502    0  0.10148054473E+02 -0.71200497637E+02 -0.47330615632E+03  0.47875743742E+03  0.41800000000E+01 0. -1.
         -5    1    3    3    0  502  0.27651265223E+02  0.44401509082E+02 -0.15793266981E+03  0.16642201498E+03  0.41800000000E+01 0. -1.
        -11    1    1    2    0    0 -0.50732659107E+02 -0.14617018984E+02 -0.90668177196E+02  0.10491986609E+03  0.00000000000E+00 0. -1.
         11    1    1    2    0    0  0.12933339410E+02  0.41416007539E+02 -0.28597817560E+02  0.51965297247E+02  0.00000000000E+00 0.  1.
</event>
<event>
 7    1  0.2873461E-009  0.1212535E+03  0.7561462E-02  0.1241043E+00
          3   -1    0    0  501    0  0.00000000000E+00  0.00000000000E+00  0.71087796950E+02  0.71087796950E+02  0.00000000000E+00 0. -1.
         -3   -1    0    0    0  501 -0.00000000000E+00 -0.00000000000E+00 -0.30073236970E+03  0.30073236970E+03  0.00000000000E+00 0.  1.
         25    2    1    2    0    0  0.24844073355E+02 -0.63645723322E+02 -0.34777038263E+02  0.14671204075E+03  0.12508786685E+03 0.  0.
          5    1    3    3  502    0  0.20102484554E+02 -0.96067458666E+02  0.69760474238E+00  0.98239633306E+02  0.41800000000E+01 0. -1.
         -5    1    3    3    0  502  0.47415888016E+01  0.32421735344E+02 -0.35474643005E+02  0.48472407444E+02  0.41800000000E+01 0. -1.
        -11    1    1    2    0    0 -0.35748977016E+02  0.82244327584E+02 -0.16994165265E+03  0.19215172152E+03  0.00000000000E+00 0.  1.
         11    1    1    2    0    0  0.10904903661E+02 -0.18598604262E+02 -0.24925881839E+02  0.32956404382E+02  0.00000000000E+00 0. -1.
</event>
<event>
 7    1  0.2873461E-009  0.7212571E+02  0.7561462E-02  0.1353010E+00
          2   -1    0    0  501    0  0.00000000000E+00  0.00000000000E+00  0.17522750494E+03  0.17522750494E+03  0.00000000000E+00 0. -1.
         -2   -1    0    0    0  501 -0.00000000000E+00 -0.00000000000E+00 -0.90386673339E+02  0.90386673339E+02  0.00000000000E+00 0.  1.
         25    2    1    2    0    0  0.48806988878E+01  0.47104929357E+02  0.91583608323E+02  0.16210385749E+03  0.12508959872E+03 0.  0.
          5    1    3    3  502    0  0.95287207208E+01  0.12000315502E+02  0.11715421655E+03  0.11822599945E+03  0.41800000000E+01 0.  1.
         -5    1    3    3    0  502 -0.46480218330E+01  0.35104613855E+02 -0.25570608227E+02  0.43877858037E+02  0.41800000000E+01 0.  1.
        -11    1    1    2    0    0 -0.23000546752E+02 -0.63956487912E+02  0.16085158059E+02  0.69844039164E+02  0.00000000000E+00 0. -1.
         11    1    1    2    0    0  0.18119847865E+02  0.16851558554E+02 -0.22827934781E+02  0.33666281629E+02  0.00000000000E+00 0.  1.
</event>
<event>
 7    1  0.2873461E-009  0.2149212E+03  0.7561462E-02  0.1137727E+00
         -2   -1    0    0    0  501 -0.00000000000E+00  0.00000000000E+00  0.61210366253E+02  0.61210366253E+02  0.00000000000E+00 0.  1.
          2   -1    0    0  501    0  0.00000000000E+00 -0.00000000000E+00 -0.77199593773E+03  0.77199593773E+03  0.00000000000E+00 0. -1.
         25    2    1    2    0    0  0.10165463511E+03 -0.15628601376E+03 -0.31819015298E+03  0.38942734507E+03  0.12509876377E+03 0.  0.
          5    1    3    3  502    0 -0.35963905698E+01 -0.10747503359E+03 -0.16960852503E+03  0.20086896484E+03  0.41800000000E+01 0.  1.
         -5    1    3    3    0  502  0.10525102568E+03 -0.48810980170E+02 -0.14858162795E+03  0.18855838023E+03  0.41800000000E+01 0.  1.
        -11    1    1    2    0    0 -0.11697036010E+03  0.12438096404E+03 -0.33869934836E+03  0.37930190869E+03  0.00000000000E+00 0.  1.
         11    1    1    2    0    0  0.15315724987E+02  0.31905049724E+02 -0.53896070133E+02  0.64477050223E+02  0.00000000000E+00 0. -1.
</event>
<event>
 7    1  0.2873461E-009  0.8617429E+02  0.7561462E-02  0.1312390E+00
          2   -1    0    0  501    0  0.00000000000E+00  0.00000000000E+00  0.63613989017E+03  0.63613989017E+03  0.00000000000E+00 0. -1.
         -2   -1    0    0    0  501 -0.00000000000E+00 -0.00000000000E+00 -0.21441628257E+02  0.21441628257E+02  0.00000000000E+00 0.  1.
         25    2    1    2    0    0 -0.42214391461E+02 -0.23701475883E+02  0.36207670840E+03  0.38612302062E+03  0.12509048518E+03 0.  0.
          5    1    3    3  502    0 -0.23065713152E+02 -0.48776701085E+02  0.34647946332E+03  0.35068031680E+03  0.41800000000E+01 0.  1.
         -5    1    3    3    0  502 -0.19148678309E+02  0.25075225202E+02  0.15597245083E+02  0.35442703820E+02  0.41800000000E+01 0.  1.
        -11    1    1    2    0    0  0.54790041369E+02 -0.50514476783E+01  0.21753047593E+03  0.22438131320E+03  0.00000000000E+00 0. -1.
         11    1    1    2    0    0 -0.12575649908E+02  0.28752923561E+02  0.35091077579E+02  0.47077184597E+02  0.00000000000E+00 0.  1.
</event>
<event>
 7    1  0.2873461E-009  0.1053050E+03  0.7561462E-02  0.1269520E+00
          1   -1    0    0  501    0  0.00000000000E+00  0.00000000000E+00  0.96207809557E+03  0.96207809557E+03  0.00000000000E+00 0. -1.
         -1   -1    0    0    0  501 -0.00000000000E+00 -0.00000000000E+00 -0.17031952702E+02  0.17031952702E+02  0.00000000000E+00 0.  1.
         25    2    1    2    0    0  0.26261774359E+02 -0.63777800572E+02  0.51684904594E+03  0.53622412752E+03  0.12508433157E+03 0.  0.
          5    1    3    3  502    0 -0.17858715314E+02 -0.50362371078E+02  0.45903253980E+03  0.46215110855E+03  0.41800000000E+01 0.  1.
         -5    1    3    3    0  502  0.44120489674E+02 -0.13415429495E+02  0.57816506136E+02  0.74073018970E+02  0.41800000000E+01 0.  1.
        -11    1    1    2    0    0  0.11466164906E+02  0.71317889780E+02  0.23325909383E+03  0.24418746732E+03  0.00000000000E+00 0.  1.
         11    1    1    2    0    0 -0.37727939266E+02 -0.75400892084E+01  0.19493800309E+03  0.19869845343E+03  0.00000000000E+00 0. -1.
</event>
<event>
 7    1  0.2873461E-009  0.1371661E+03  0.7561462E-02  0.1217194E+00
         -1   -1    0    0    0  501 -0.00000000000E+00  0.00000000000E+00  0.48707044259E+03  0.48707044259E+03  0.00000000000E+00 0.  1.
          1   -1    0    0  501    0  0.00000000000E+00 -0.00000000000E+00 -0.41720421497E+02  0.41720421497E+02  0.00000000000E+00 0. -1.
         25    2    1    2    0    0  0.83526556121E+02  0.33620449286E+02  0.21098094794E+03  0.26127890976E+03  0.12508672235E+03 0.  0.
          5    1    3    3  502    0  0.11014902300E+03  0.11762356304E+02  0.11737282453E+03  0.16144662471E+03  0.41800000000E+01 0. -1.
         -5    1    3    3    0  502 -0.26622466875E+02  0.21858092981E+02  0.93608123403E+02  0.99832285051E+02  0.41800000000E+01 0. -1.
        -11    1    1    2    0    0 -0.27476581719E+02  0.32198579488E+02  0.84020947345E+02  0.94080979251E+02  0.00000000000E+00 0.  1.
         11    1    1    2    0    0 -0.56049974402E+02 -0.65819028773E+02  0.15034812581E+03  0.17343097507E+03  0.00000000000E+00 0. -1.
</event>
<event>
 7    1  0.2873461E-009  0.1727616E+03  0.7561462E-02  0.1174998E+00
          2   -1    0    0  501    0  0.00000000000E+00  0.00000000000E+00  0.42945901636E+02  0.42945901636E+02  0.00000000000E+00 0.  1.
         -2   -1    0    0    0  501 -0.00000000000E+00 -0.00000000000E+00 -0.11225465307E+04  0.11225465307E+04  0.00000000000E+00 0. -1.
         25    2    1    2    0    0  0.11758482322E+03  0.11770968504E+03 -0.33021682546E+03  0.39034981148E+03  0.12509221761E+03 0.  0.
          5    1    3    3  502    0  0.41939846247E+02  0.55550062997E+02 -0.26156025456E+03  0.27069539961E+03  0.41800000000E+01 0. -1.
         -5    1    3    3    0  502  0.75644976977E+02  0.62159622047E+02 -0.68656570896E+02  0.11965441188E+03  0.41800000000E+01 0. -1.
        -11    1    1    2    0    0 -0.14288789315E+02 -0.55287742112E+02 -0.10471465656E+03  0.11927306161E+03  0.00000000000E+00 0.  1.
         11    1    1    2    0    0 -0.10329603391E+03 -0.62421942932E+02 -0.64466914708E+03  0.65586955927E+03  0.00000000000E+00 0. -1.
</event>
<event>
 7    1  0.2873461E-009  0.1157153E+03  0.7561462E-02  0.1250338E+00
         -1   -1    0    0    0  501 -0.00000000000E+00  0.00000000000E+00  0.15223763109E+02  0.15223763109E+02  0.00000000000E+00 0.  1.
          1   -1    0    0  501    0  0.00000000000E+00 -0.00000000000E+00 -0.91121526543E+03  0.91121526543E+03  0.00000000000E+00 0. -1.
         25    2    1    2    0    0 -0.40872727866E+02  0.24419678318E+02 -0.47224181182E+03  0.49084350163E+03  0.12509242059E+03 0.  0.
          5    1    3    3  502    0 -0.80291217279E+02 -0.88114991503E+01 -0.25455625542E+03  0.26709676461E+03  0.41800000000E+01 0. -1.
         -5    1    3    3    0  502  0.39418489413E+02  0.33231177468E+02 -0.21768555640E+03  0.22374673702E+03  0.41800000000E+01 0. -1.
        -11    1    1    2    0    0  0.32290360502E+02  0.29793128984E+02 -0.14570157725E+03  0.15218162678E+03  0.00000000000E+00 0.  1.
         11    1    1    2    0    0  0.85823673640E+01 -0.54212807302E+02 -0.27804811325E+03  0.28341390013E+03  0.00000000000E+00 0. -1.
</event>
<event>
 7    1  0.2873461E-009  0.9482523E+02  0.7561462E-02  0.1291570E+00
          2   -1    0    0  501    0  0.00000000000E+00  0.00000000000E+00  0.61670694772E+03  0.61670694772E+03  0.00000000000E+00 0. -1.
         -2   -1    0    0    0  501 -0.00000000000E+00 -0.00000000000E+00 -0.36879216554E+02  0.36879216554E+02  0.00000000000E+00 0.  1.
         25    2    1    2    0    0  0.38457122306E+02  0.12211229703E+01  0.52143991757E+03  0.53761217643E+03  0.12508726237E+03 0.  0.
          5    1    3    3  502    0 -0.14312283523E+02  0.50241574566E+02  0.30485952701E+03  0.30933131248E+03  0.41800000000E+01 0.  1.
         -5    1    3    3    0  502  0.52769405829E+02 -0.49020451596E+02  0.21658039056E+03  0.22828086394E+03  0.41800000000E+01 0.  1.
        -11    1    1    2    0    0  0.74020943404E+01  0.14776947434E+02 -0.18640097601E+02  0.24911893037E+02  0.00000000000E+00 0.  1.
         11    1    1    2    0    0 -0.45859216646E+02 -0.15998070405E+02  0.77027911194E+02  0.91062094809E+02  0.00000000000E+00 0. -1.
</event>
<event>
 7    1  0.2873461E-009  0.1273571E+03  0.7561462E-02  0.1231431E+00
         -2   -1    0    0    0  501 -0.00000000000E+00  0.00000000000E+00  0.56071812163E+02  0.56071812163E+02  0.00000000000E+00 0.  1.
          2   -1    0    0  501    0  0.00000000000E+00 -0.00000000000E+00 -0.37934421048E+03  0.37934421048E+03  0.00000000000E+00 0. -1.
         25    2    1    2    0    0 -0.39292708046E+02  0.82588917693E+02 -0.22124057352E+03  0.27010859682E+03  0.12508563656E+03 0.  0.
          5    1    3    3  502    0  0.26250430904E+02  0.39697815112E+02 -0.15990761297E+02  0.50380338369E+02  0.41800000000E+01 0.  1.
         -5    1    3    3    0  502 -0.65543138950E+02  0.42891102581E+02 -0.20524981223E+03  0.21972825845E+03  0.41800000000E+01 0.  1.
        -11    1    1    2    0    0  0.68738615623E+02 -0.53480460229E+02 -0.80686379192E+02  0.11872425486E+03  0.00000000000E+00 0.  1.
         11    1    1    2    0    0 -0.29445907577E+02 -0.29108457464E+02 -0.21345445598E+02  0.46583170961E+02  0.00000000000E+00 0. -1.
</event>
<event>
 7    1  0.2873461E-009  0.1139418E+03  0.7561462E-02  0.1253440E+00
         -2   -1    0    0    0  501 -0.00000000000E+00  0.00000000000E+00  0.67422829564E+02  0.67422829564E+02  0.00000000000E+00 0. -1.
          2   -1    0    0  501    0  0.00000000000E+00 -0.00000000000E+00 -0.20080217654E+03  0.20080217654E+03  0.00000000000E+00 0.  1.
         25    2    1    2    0    0  0.15727018110E+02 -0.43487575796E+02 -0.84810383745E+02  0.15805104508E+03  0.12509525695E+03 0.  0.
          5    1    3    3  502    0  0.43199563394E+02 -0.75421161308E+02 -0.38041459812E+02  0.94969357769E+02  0.41800000000E+01 0.  1.
         -5    1    3    3    0  502 -0.27472545284E+02  0.31933585513E+02 -0.46768923933E+02  0.63081687310E+02  0.41800000000E+01 0.  1.
        -11    1    1    2    0    0 -0.52072244280E+02  0.25341330980E+02 -0.23915971005E+02  0.62655210073E+02  0.00000000000E+00 0. -1.
         11    1    1    2    0    0  0.36345226170E+02  0.18146244816E+02 -0.24652992226E+02  0.47518750951E+02  0.00000000000E+00 0.  1.
</event>
<event>
 7    1  0.2873461E-009  0.1403868E+03  0.7561462E-02  0.1212809E+00
          2   -1    0    0  501    0  0.00000000000E+00  0.00000000000E+00  0.10923034487E+03  0.10923034487E+03  0.00000000000E+00 0. -1.
         -2   -1    0    0    0  501 -0.00000000000E+00 -0.00000000000E+00 -0.24888350670E+03  0.24888350670E+03  0.00000000000E+00 0.  1.
         25    2    1    2    0    0  0.90950661167E+02  0.51573824682E+02 -0.48894142768E+01  0.16310631957E+03  0.12509149832E+03 0.  0.
          5    1    3    3  502    0  0.12162785705E+03  0.30141874153E+02 -0.34827235120E+01  0.12542515677E+03  0.41800000000E+01 0.  1.
         -5    1    3    3    0  502 -0.30677195883E+02  0.21431950530E+02 -0.14066907649E+01  0.37681162796E+02  0.41800000000E+01 0.  1.
        -11    1    1    2    0    0 -0.49606354157E+02 -0.57537758093E+02 -0.29040313044E+02  0.81330952047E+02  0.00000000000E+00 0. -1.
         11    1    1    2    0    0 -0.41344307010E+02  0.59639334110E+01 -0.10572343451E+03  0.11367657995E+03  0.00000000000E+00 0.  1.
</event>
<event>
 7    1  0.2873461E-009  0.1274453E+03  0.7561462E-02  0.1231296E+00
          1   -1    0    0  501    0  0.00000000000E+00  0.00000000000E+00  0.65987691496E+02  0.65987691496E+02  0.00000000000E+00 0. -1.
         -1   -1    0    0    0  501 -0.00000000000E+00 -0.00000000000E+00 -0.26041078659E+03  0.26041078659E+03  0.00000000000E+00 0.  1.
         25    2    1    2    0    0 -0.47643281172E+02  0.55202161085E+02 -0.10306581070E+03  0.17772936782E+03  0.12509199024E+03 0.  0.
          5    1    3    3  502    0  0.15869745167E+02  0.75797827812E+02 -0.61384542169E+02  0.98907501889E+02  0.41800000000E+01 0.  1.
         -5    1    3    3    0  502 -0.63513026339E+02 -0.20595666727E+02 -0.41681268529E+02  0.78821865931E+02  0.41800000000E+01 0.  1.
        -11    1    1    2    0    0  0.51555237914E+02 -0.74581787252E+02 -0.51734985819E+02  0.10438819044E+03  0.00000000000E+00 0.  1.
         11    1    1    2    0    0 -0.39119567419E+01  0.19379626168E+02 -0.39622298578E+02  0.44280919825E+02  0.00000000000E+00 0. -1.
</event>
<event>
 7    1  0.2873461E-009  0.1161440E+03  0.7561462E-02  0.1249597E+00
          1   -1    0    0  501    0  0.00000000000E+00  0.00000000000E+00  0.31754993088E+03  0.31754993088E+03  0.00000000000E+00 0. -1.
         -1   -1    0    0    0  501 -0.00000000000E+00 -0.00000000000E+00 -0.55779157843E+02  0.55779157843E+02  0.00000000000E+00 0.  1.
         25    2    1    2    0    0  0.56044419355E+02 -0.44776050845E+02  0.18302514492E+03  0.23300516560E+03  0.12508929552E+03 0.  0.
          5    1    3    3  502    0  0.58684982014E+02 -0.72650978267E+02  0.70814914712E+02  0.11727879733E+03  0.41800000000E+01 0.  1.
         -5    1    3    3    0  502 -0.26405626583E+01  0.27874927422E+02  0.11221023021E+03  0.11572636827E+03  0.41800000000E+01 0.  1.
        -11    1    1    2    0    0 -0.28939578276E+02 -0.23341848247E+02  0.48271251246E+02  0.60929916849E+02  0.00000000000E+00 0. -1.
         11    1    1    2    0    0 -0.27104841079E+02  0.68117899091E+02  0.30474376870E+02  0.79394006274E+02  0.00000000000E+00 0.  1.
</event>
<event>
 7    1  0.2873461E-009  0.1514187E+03  0.7561462E-02  0.1198740E+00
         -3   -1    0    0    0  501 -0.00000000000E+00  0.00000000000E+00  0.36659613225E+03  0.36659613225E+03  0.00000000000E+00 0.  1.
          3   -1    0    0  501    0  0.00000000000E+00 -0.00000000000E+00 -0.20557945947E+03  0.20557945947E+03  0.00000000000E+00 0. -1.
         25    2    1    2    0    0  0.13202719783E+03  0.16493977831E+02  0.30535607284E+03  0.35579801781E+03  0.12508663392E+03 0.  0.
          5    1    3    3  502    0  0.91033675912E+02  0.43226054100E+02  0.28554594247E+03  0.30283589544E+03  0.41800000000E+01 0. -1.
         -5    1    3    3    0  502  0.40993521920E+02 -0.26732076269E+02  0.19810130367E+02  0.52962122373E+02  0.41800000000E+01 0. -1.
        -11    1    1    2    0    0 -0.36412385156E+01  0.19248283354E+02  0.44669257037E+00  0.19594758591E+02  0.00000000000E+00 0.  1.
         11    1    1    2    0    0 -0.12838595932E+03 -0.35742261185E+02 -0.14478609263E+03  0.19678281532E+03  0.00000000000E+00 0. -1.
</event>
<event>
 7    1  0.2873461E-009  0.1187180E+03  0.7561462E-02  0.1245227E+00
          2   -1    0    0  501    0  0.00000000000E+00  0.00000000000E+00  0.15555617578E+03  0.15555617578E+03  0.00000000000E+00 0. -1.
         -2   -1    0    0    0  501 -0.00000000000E+00 -0.00000000000E+00 -0.13970020571E+03  0.13970020571E+03  0.00000000000E+00 0.  1.
         25    2    1    2    0    0 -0.29907125929E+02  0.45450502381E+02  0.92274339354E+02  0.16468829726E+03  0.12508995644E+03 0.  0.
          5    1    3    3  502    0  0.46199732077E+02  0.35005482922E+02  0.28340208812E+02  0.64656313799E+02  0.41800000000E+01 0. -1.
         -5    1    3    3    0  502 -0.76106858006E+02  0.10445019459E+02  0.63934130542E+02  0.10003198346E+03  0.41800000000E+01 0. -1.
        -11    1    1    2    0    0 -0.28254704940E+02 -0.32004059733E+02 -0.15885671692E+02  0.45551539554E+02  0.00000000000E+00 0. -1.
         11    1    1    2    0    0  0.58161830869E+02 -0.13446442649E+02 -0.60532697593E+02  0.85016544671E+02  0.00000000000E+00 0.  1.
</event>
<event>
 7    1  0.2873461E-009  0.1571562E+03  0.7561462E-02  0.1191945E+00
         -4   -1    0    0    0  501 -0.00000000000E+00  0.00000000000E+00  0.26615896853E+03  0.26615896853E+03  0.00000000000E+00 0.  1.
          4   -1    0    0  501    0  0.00000000000E+00 -0.00000000000E+00 -0.10406970270E+03  0.10406970270E+03  0.00000000000E+00 0. -1.
         25    2    1    2    0    0 -0.10673779391E+03 -0.37144255796E+02  0.25748027230E+02  0.17053793973E+03  0.12509026977E+03 0.  0.
          5    1    3    3  502    0 -0.38676247359E+02 -0.79356464940E+02  0.14242872398E+02  0.89518894384E+02  0.41800000000E+01 0.  1.
         -5    1    3    3    0  502 -0.68061546555E+02  0.42212209144E+02  0.11505154832E+02  0.81019045341E+02  0.41800000000E+01 0.  1.
        -11    1    1    2    0    0  0.63907464704E+02 -0.26366335495E+02  0.59924688973E+02  0.91489431307E+02  0.00000000000E+00 0. -1.
         11    1    1    2    0    0  0.42830329210E+02  0.63510591290E+02  0.76416549628E+02  0.10820130019E+03  0.00000000000E+00 0.  1.
</event>
<event>
 7    1  0.2873461E-009  0.1318748E+03  0.7561462E-02  0.1224700E+00
         -1   -1    0    0    0  501 -0.00000000000E+00  0.00000000000E+00  0.36615096340E+02  0.36615096340E+02  0.00000000000E+00 0.  1.
          1   -1    0    0  501    0  0.00000000000E+00 -0.00000000000E+00 -0.74082203947E+03  0.74082203947E+03  0.00000000000E+00 0. -1.
         25    2    1    2    0    0  0.15483179822E+02 -0.12227526779E+03 -0.38644862704E+03  0.42447631708E+03  0.12508649988E+03 0.  0.
          5    1    3    3  502    0  0.26754096830E+02 -0.30751055248E+02 -0.28250211573E+03  0.28545810006E+03  0.41800000000E+01 0. -1.
         -5    1    3    3    0  502 -0.11270917008E+02 -0.91524212541E+02 -0.10394651131E+03  0.13901821703E+03  0.41800000000E+01 0. -1.
        -11    1    1    2    0    0 -0.30405935759E+02  0.76602960800E+02 -0.27992370395E+03  0.29180441149E+03  0.00000000000E+00 0. -1.
         11    1    1    2    0    0  0.14922755937E+02  0.45672306989E+02 -0.37834612141E+02  0.61156407238E+02  0.00000000000E+00 0.  1.
</event>
<event>
 7    1  0.2873461E-009  0.6727155E+02  0.7561462E-02  0.1369625E+00
          2   -1    0    0  501    0  0.00000000000E+00  0.00000000000E+00  0.33720650793E+03  0.33720650793E+03  0.00000000000E+00 0. -1.
         -2   -1    0    0    0  501 -0.00000000000E+00 -0.00000000000E+00 -0.38377732545E+02  0.38377732545E+02  0.00000000000E+00 0.  1.
         25    2    1    2    0    0  0.33413073391E+02 -0.54759526274E+01  0.16911511423E+03  0.21304663405E+03  0.12507008791E+03 0.  0.
          5    1    3    3  502    0  0.19401890716E+02 -0.21043146608E+02 -0.11532964394E+02  0.31140472865E+02  0.41800000000E+01 0. -1.
         -5    1    3    3    0  502  0.14011182676E+02  0.15567193981E+02  0.18064807862E+03  0.18190616119E+03  0.41800000000E+01 0. -1.
        -11    1    1    2    0    0 -0.55302802209E+02 -0.11589402215E+02  0.41628488663E+02  0.70182941263E+02  0.00000000000E+00 0.  1.
         11    1    1    2    0    0  0.21889728818E+02  0.17065354842E+02  0.88085172498E+02  0.92354665165E+02  0.00000000000E+00 0. -1.
</event>
<event>
 7    1  0.2873461E-009  0.1955373E+03  0.7561462E-02  0.1153560E+00
          2   -1    0    0  501    0  0.00000000000E+00  0.00000000000E+00  0.51934386219E+03  0.51934386219E+03  0.00000000000E+00 0. -1.
         -2   -1    0    0    0  501 -0.00000000000E+00 -0.00000000000E+00 -0.85224370287E+02  0.85224370287E+02  0.00000000000E+00 0.  1.
         25    2    1    2    0    0  0.17081916991E+03 -0.80497621301E+01  0.14698863059E+03  0.25787049456E+03  0.12509015533E+03 0.  0.
          5    1    3    3  502    0 -0.11471269111E+02 -0.14156996170E+02  0.45296109116E+02  0.49002249506E+02  0.41800000000E+01 0. -1.
         -5    1    3    3    0  502  0.18229043902E+03  0.61072340403E+01  0.10169252147E+03  0.20886824505E+03  0.41800000000E+01 0. -1.
        -11    1    1    2    0    0 -0.17700577869E+03 -0.32739540574E+01  0.28167128340E+03  0.33268675411E+03  0.00000000000E+00 0. -1.
         11    1    1    2    0    0  0.61866087759E+01  0.11323716187E+02  0.54595779105E+01  0.14010983813E+02  0.00000000000E+00 0.  1.
</event>
<event>
 7    1  0.2873461E-009  0.1167557E+03  0.7561462E-02  0.1248547E+00
          4   -1    0    0  501    0  0.00000000000E+00  0.00000000000E+00  0.17699193923E+03  0.17699193923E+03  0.00000000000E+00 0. -1.
         -4   -1    0    0    0  501 -0.00000000000E+00 -0.00000000000E+00 -0.10477355622E+03  0.10477355622E+03  0.00000000000E+00 0.  1.
         25    2    1    2    0    0  0.96850752030E+01  0.68806626437E+02  0.86978449812E+02  0.16745326018E+03  0.12508873286E+03 0.  0.
          5    1    3    3  502    0  0.32399248813E+02 -0.14689505636E+02 -0.10223235880E+02  0.37248890605E+02  0.41800000000E+01 0. -1.
         -5    1    3    3    0  502 -0.22714173610E+02  0.83496132072E+02  0.97201685692E+02  0.13020436957E+03  0.41800000000E+01 0. -1.
        -11    1    1    2    0    0 -0.48190465861E+02 -0.44010301317E+02  0.26485844631E+01  0.65316480475E+02  0.00000000000E+00 0. -1.
         11    1    1    2    0    0  0.38505390658E+02 -0.24796325119E+02 -0.17408651262E+02  0.48995754795E+02  0.00000000000E+00 0.  1.
</event>
<event>
 7    1  0.2873461E-009  0.1109931E+03  0.7561462E-02  0.1258742E+00
          2   -1    0    0  501    0  0.00000000000E+00  0.00000000000E+00  0.46097272402E+02  0.46097272402E+02  0.00000000000E+00 0. -1.
         -2   -1    0    0    0  501 -0.00000000000E+00 -0.00000000000E+00 -0.27524110624E+03  0.27524110624E+03  0.00000000000E+00 0.  1.
         25    2    1    2    0    0 -0.15138425389E+02  0.25746315743E+02 -0.14066843967E+03  0.19059475176E+03  0.12508678900E+03 0.  0.
          5    1    3    3  502    0 -0.42538988581E+02 -0.38896811985E+02 -0.55352309147E+02  0.80024234204E+02  0.41800000000E+01 0. -1.
         -5    1    3    3    0  502  0.27400563192E+02  0.64643127729E+02 -0.85316130520E+02  0.11057051756E+03  0.41800000000E+01 0. -1.
        -11    1    1    2    0    0  0.46042164423E+02 -0.38896863382E+02 -0.42254021930E+02  0.73608758005E+02  0.00000000000E+00 0. -1.
         11    1    1    2    0    0 -0.30903739035E+02  0.13150547639E+02 -0.46221372241E+02  0.57134868875E+02  0.00000000000E+00 0.  1.
</event>
<event>
 7    1  0.2873461E-009  0.1171038E+03  0.7561462E-02  0.1247953E+00
          1   -1    0    0  501    0  0.00000000000E+00  0.00000000000E+00  0.79442321284E+03  0.79442321284E+03  0.00000000000E+00 0. -1.
         -1   -1    0    0    0  501 -0.00000000000E+00 -0.00000000000E+00 -0.18660479222E+02  0.18660479222E+02  0.00000000000E+00 0.  1.
         25    2    1    2    0    0  0.16030536527E+02 -0.14095199452E+02  0.38032221066E+03  0.40094306411E+03  0.12511875953E+03 0.  0.
          5    1    3    3  502    0  0.35991337970E+02  0.44141135525E+02  0.25419987605E+03  0.26053572814E+03  0.41800000000E+01 0. -1.
         -5    1    3    3    0  502 -0.19960801443E+02 -0.58236334977E+02  0.12612233461E+03  0.14040733596E+03  0.41800000000E+01 0. -1.
        -11    1    1    2    0    0  0.48507397490E+02  0.15248780892E+02  0.19754762877E+03  0.20398666271E+03  0.00000000000E+00 0. -1.
         11    1    1    2    0    0 -0.64537934017E+02 -0.11535814400E+01  0.19789289419E+03  0.20815396524E+03  0.00000000000E+00 0.  1.
</event>
<event>
 7    1  0.2873461E-009  0.1502956E+03  0.7561462E-02  0.1200110E+00
          1   -1    0    0  501    0  0.00000000000E+00  0.00000000000E+00  0.42282189293E+03  0.42282189293E+03  0.00000000000E+00 0. -1.
         -1   -1    0    0    0  501 -0.00000000000E+00 -0.00000000000E+00 -0.64423423907E+02  0.64423423907E+02  0.00000000000E+00 0.  1.
         25    2    1    2    0    0 -0.49099028536E+02 -0.10458359994E+03  0.12837481997E+03  0.21325009118E+03  0.12508822089E+03 0.  0.
          5    1    3    3  502    0 -0.65379340462E+02 -0.36128873590E+01  0.33439127701E+02  0.73642099208E+02  0.41800000000E+01 0.  1.
         -5    1    3    3    0  502  0.16280311927E+02 -0.10097071259E+03  0.94935692273E+02  0.13960799198E+03  0.41800000000E+01 0.  1.
        -11    1    1    2    0    0 -0.83779864328E+01  0.58090507999E+02  0.42610327033E+02  0.72528185874E+02  0.00000000000E+00 0. -1.
         11    1    1    2    0    0  0.57477014969E+02  0.46493091945E+02  0.18741332202E+03  0.20146703978E+03  0.00000000000E+00 0.  1.
</event>
<event>
 7    1  0.2873461E-009  0.1059241E+03  0.7561462E-02  0.1268309E+00
         -2   -1    0    0    0  501 -0.00000000000E+00  0.00000000000E+00  0.13988315527E+03  0.13988315527E+03  0.00000000000E+00 0. -1.
          2   -1    0    0  501    0  0.00000000000E+00 -0.00000000000E+00 -0.15594216738E+03  0.15594216738E+03  0.00000000000E+00 0.  1.
         25    2    1    2    0    0  0.20390800397E+02 -0.91692153239E+02  0.26955071998E+02  0.15873587413E+03  0.12508903278E+03 0.  0.
          5    1    3    3  502    0 -0.19419919824E+02 -0.11046768587E+02  0.58954808341E+02  0.63184699166E+02  0.41800000000E+01 0. -1.
         -5    1    3    3    0  502  0.39810720221E+02 -0.80645384652E+02 -0.31999736343E+02  0.95551174959E+02  0.41800000000E+01 0. -1.
        -11    1    1    2    0    0 -0.20368546755E+02  0.24362747120E+02  0.25725959615E+02  0.40868644977E+02  0.00000000000E+00 0. -1.
         11    1    1    2    0    0 -0.22253641936E-01  0.67329406119E+02 -0.68740043729E+02  0.96220803548E+02  0.00000000000E+00 0.  1.
</event>
<event>
 7    1  0.2873461E-009  0.1297071E+03  0.7561462E-02  0.1227891E+00
         -2   -1    0    0    0  501 -0.00000000000E+00  0.00000000000E+00  0.16630757166E+02  0.16630757166E+02  0.00000000000E+00 0.  1.
          2   -1    0    0  501    0  0.00000000000E+00 -0.00000000000E+00 -0.20992843065E+04  0.20992843065E+04  0.00000000000E+00 0. -1.
         25    2    1    2    0    0 -0.10322698884E+02  0.87420758341E+02 -0.18058727899E+04  0.18123391896E+04  0.12509139826E+03 0.  0.
          5    1    3    3  502    0 -0.57447198318E+02  0.77990945141E+02 -0.90569335588E+03  0.91086809989E+03  0.41800000000E+01 0.  1.
         -5    1    3    3    0  502  0.47124499434E+02  0.94298132004E+01 -0.90017943402E+03  0.90147108975E+03  0.41800000000E+01 0.  1.
        -11    1    1    2    0    0  0.28457080568E+02 -0.38651872106E+01 -0.26437217344E+02  0.39034235839E+02  0.00000000000E+00 0.  1.
         11    1    1    2    0    0 -0.18134381684E+02 -0.83555571130E+02 -0.25034354207E+03  0.26454163816E+03  0.00000000000E+00 0. -1.
</event>
<event>
 7    1  0.3102374E-009  0.1319720E+03  0.7561462E-02  0.1224559E+00
          4   -1    0    0  501    0  0.00000000000E+00  0.00000000000E+00  0.23244295998E+03  0.23244295998E+03  0.00000000000E+00 0. -1.
         -4   -1    0    0    0  501 -0.00000000000E+00 -0.00000000000E+00 -0.89244152460E+02  0.89244152460E+02  0.00000000000E+00 0.  1.
         25    2    1    2    0    0 -0.49079702110E+02  0.78215102057E+02  0.99503019894E+02  0.18459238545E+03  0.12508828263E+03 0.  0.
          5    1    3    3  502    0  0.29800422192E+02 -0.14493114751E+02  0.26083663763E+02  0.42378596642E+02  0.41800000000E+01 0.  1.
         -5    1    3    3    0  502 -0.78880124302E+02  0.92708216809E+02  0.73419356131E+02  0.14221378881E+03  0.41800000000E+01 0.  1.
        -11    1    1    2    0    0  0.51260401407E+02 -0.27854598595E+02  0.60416599004E+02  0.83986146777E+02  0.00000000000E+00 0. -1.
         11    1    1    2    0    0 -0.21806992972E+01 -0.50360503462E+02 -0.16720811380E+02  0.53108580207E+02  0.00000000000E+00 0.  1.
</event>
<event>
 7    1  0.2873461E-009  0.1183583E+03  0.7561462E-02  0.1245830E+00
          2   -1    0    0  501    0  0.00000000000E+00  0.00000000000E+00  0.35078384806E+03  0.35078384806E+03  0.00000000000E+00 0. -1.
         -2   -1    0    0    0  501 -0.00000000000E+00 -0.00000000000E+00 -0.40238477147E+02  0.40238477147E+02  0.00000000000E+00 0.  1.
         25    2    1    2    0    0 -0.47630982020E+02  0.14337927710E+02  0.17314979102E+03  0.21932227944E+03  0.12508847073E+03 0.  0.
          5    1    3    3  502    0 -0.60770089011E+02  0.60749166188E+02  0.10542725231E+03  0.13607293207E+03  0.41800000000E+01 0.  1.
         -5    1    3    3    0  502  0.13139106991E+02 -0.46411238478E+02  0.67722538705E+02  0.83249347374E+02  0.41800000000E+01 0.  1.
        -11    1    1    2    0    0  0.13562404141E+02 -0.50676907791E+02  0.60457795097E+02  0.80045192093E+02  0.00000000000E+00 0. -1.
         11    1    1    2    0    0  0.34068577879E+02  0.36338980081E+02  0.76937784800E+02  0.91654853674E+02  0.00000000000E+00 0.  1.
</event>
<event>
 7    1  0.2873461E-009  0.7019032E+02  0.7561462E-02  0.1359447E+00
          3   -1    0    0  501    0  0.00000000000E+00  0.00000000000E+00  0.30910757902E+03  0.30910757902E+03  0.00000000000E+00 0. -1.
         -3   -1    0    0    0  501 -0.00000000000E+00 -0.00000000000E+00 -0.49267333021E+02  0.49267333021E+02  0.00000000000E+00 0.  1.
         25    2    1    2    0    0  0.26651746511E+02 -0.32045134205E+02  0.14543005358E+03  0.19631190961E+03  0.12510499252E+03 0.  0.
          5    1    3    3  502    0 -0.49649246005E+01 -0.56246641696E+02  0.14565873966E+03  0.15627628105E+03  0.41800000000E+01 0. -1.
         -5    1    3    3    0  502  0.31616671112E+02  0.24201507491E+02 -0.22868608312E+00  0.40035628562E+02  0.41800000000E+01 0. -1.
        -11    1    1    2    0    0 -0.12497588999E+02  0.24922704297E+02  0.13399852866E+03  0.13686831847E+03  0.00000000000E+00 0. -1.
         11    1    1    2    0    0 -0.14154157512E+02  0.71224299080E+01 -0.19588336241E+02  0.25194683951E+02  0.00000000000E+00 0.  1.
</event>
<event>
 7    1  0.2873461E-009  0.1404729E+03  0.7561462E-02  0.1212694E+00
          2   -1    0    0  501    0  0.00000000000E+00  0.00000000000E+00  0.18906030971E+03  0.18906030971E+03  0.00000000000E+00 0. -1.
         -2   -1    0    0    0  501 -0.00000000000E+00 -0.00000000000E+00 -0.13401899823E+03  0.13401899823E+03  0.00000000000E+00 0.  1.
         25    2    1    2    0    0 -0.10880614087E+03  0.28053110785E+00 -0.12516598735E+02  0.16626170641E+03  0.12508970695E+03 0.  0.
          5    1    3    3  502    0 -0.30534732875E+02 -0.42329406500E+02 -0.47245254624E+02  0.70524712342E+02  0.41800000000E+01 0.  1.
         -5    1    3    3    0  502 -0.78271407999E+02  0.42609937608E+02  0.34728655888E+02  0.95736994067E+02  0.41800000000E+01 0.  1.
        -11    1    1    2    0    0  0.45357182870E+02 -0.43303481239E+02  0.44048693403E+02  0.76633888821E+02  0.00000000000E+00 0.  1.
         11    1    1    2    0    0  0.63448958004E+02  0.43022950132E+02  0.23509216815E+02  0.80183712717E+02  0.00000000000E+00 0. -1.
</event>
<event>
 7    1  0.2873461E-009  0.1804301E+03  0.7561462E-02  0.1167387E+00
          1   -1    0    0  501    0  0.00000000000E+00  0.00000000000E+00  0.98429347756E+03  0.98429347756E+03  0.00000000000E+00 0. -1.
         -1   -1    0    0    0  501 -0.00000000000E+00 -0.00000000000E+00 -0.33804808131E+02  0.33804808131E+02  0.00000000000E+00 0.  1.
         25    2    1    2    0    0  0.45971661051E+02  0.13663034213E+03  0.53085337971E+03  0.56412800690E+03  0.12511536039E+03 0.  0.
          5    1    3    3  502    0 -0.42638598281E+02  0.30684618595E+02  0.14547264025E+03  0.15472348672E+03  0.41800000000E+01 0. -1.
         -5    1    3    3    0  502  0.88610259331E+02  0.10594572354E+03  0.38538073946E+03  0.40940452017E+03  0.41800000000E+01 0. -1.
        -11    1    1    2    0    0  0.23265372053E+02 -0.93204710249E+01  0.35908550694E+02  0.43790098536E+02  0.00000000000E+00 0.  1.
         11    1    1    2    0    0 -0.69237033103E+02 -0.12730987111E+03  0.38372673903E+03  0.41018018026E+03  0.00000000000E+00 0. -1.
</event>
<event>
 7    1  0.2873461E-009  0.1077008E+03  0.7561462E-02  0.1264888E+00
          1   -1    0    0  501    0  0.00000000000E+00  0.00000000000E+00  0.14598443736E+03  0.14598443736E+03  0.00000000000E+00 0. -1.
         -1   -1    0    0    0  501 -0.00000000000E+00 -0.00000000000E+00 -0.89988791838E+02  0.89988791838E+02  0.00000000000E+00 0.  1.
         25    2    1    2    0    0 -0.46821776456E+01  0.34117361694E+02  0.43074022626E+02  0.13670663891E+03  0.12508963402E+03 0.  0.
          5    1    3    3  502    0  0.43980805175E+02  0.56017220347E+02  0.42766316468E+02  0.83178545452E+02  0.41800000000E+01 0.  1.
         -5    1    3    3    0  502 -0.48662982821E+02 -0.21899858653E+02  0.30770615803E+00  0.53528093456E+02  0.41800000000E+01 0.  1.
        -11    1    1    2    0    0 -0.24490258830E+02 -0.51179027011E+02 -0.11088718490E+02  0.57810252214E+02  0.00000000000E+00 0.  1.
         11    1    1    2    0    0  0.29172436476E+02  0.17061665316E+02  0.24010341388E+02  0.41456338078E+02  0.00000000000E+00 0. -1.
</event>
<event>
 7    1  0.2873461E-009  0.1002023E+03  0.7561462E-02  0.1279871E+00
         -2   -1    0    0    0  501 -0.00000000000E+00  0.00000000000E+00  0.36234385870E+03  0.36234385870E+03  0.00000000000E+00 0.  1.
          2   -1    0    0  501    0  0.00000000000E+00 -0.00000000000E+00 -0.86115559142E+02  0.86115559142E+02  0.00000000000E+00 0. -1.
         25    2    1    2    0    0  0.68198434536E+02  0.63980746188E+02  0.27537469300E+03  0.31658130963E+03  0.12509173315E+03 0.  0.
          5    1    3    3  502    0  0.50406425577E+02  0.67266880536E+02  0.67518973862E+02  0.10789775340E+03  0.41800000000E+01 0.  1.
         -5    1    3    3    0  502  0.17792008959E+02 -0.32861343477E+01  0.20785571914E+03  0.20868355623E+03  0.41800000000E+01 0.  1.
        -11    1    1    2    0    0 -0.38439192348E+02 -0.16931238115E+02  0.44459053783E+02  0.61162454134E+02  0.00000000000E+00 0.  1.
         11    1    1    2    0    0 -0.29759242188E+02 -0.47049508073E+02 -0.43605447221E+02  0.70715654086E+02  0.00000000000E+00 0. -1.
</event>
<event>
 7    1  0.3327281E-009  0.1161144E+03  0.7561462E-02  0.1249648E+00
         -1   -1    0    0    0  501 -0.00000000000E+00  0.00000000000E+00  0.19903157840E+03  0.19903157840E+03  0.00000000000E+00 0.  1.
          1   -1    0    0  501    0  0.00000000000E+00 -0.00000000000E+00 -0.10983373719E+03  0.10983373719E+03  0.00000000000E+00 0. -1.
         25    2    1    2    0    0  0.81216727893E+02  0.53003306392E+02  0.75095930253E+02  0.17518974954E+03  0.12508613923E+03 0.  0.
          5    1    3    3  502    0  0.41718810476E+02  0.68978983833E+02 -0.86014759890E+01  0.81178920586E+02  0.41800000000E+01 0. -1.
         -5    1    3    3    0  502  0.39497917417E+02 -0.15975677442E+02  0.83697406242E+02  0.94010828959E+02  0.41800000000E+01 0. -1.
        -11    1    1    2    0    0 -0.27861353138E+02  0.66691678780E+01  0.40304338452E+02  0.49448685492E+02  0.00000000000E+00 0.  1.
         11    1    1    2    0    0 -0.53355374756E+02 -0.59672474270E+02 -0.26202427498E+02  0.84226880552E+02  0.00000000000E+00 0. -1.
</event>
<event>
 7    1  0.2873461E-009  0.8640411E+02  0.7561462E-02  0.1311801E+00
          2   -1    0    0  501    0  0.00000000000E+00  0.00000000000E+00  0.41561010232E+02  0.41561010232E+02  0.00000000000E+00 0. -1.
         -2   -1    0    0    0  501 -0.00000000000E+00 -0.00000000000E+00 -0.32275201660E+03  0.32275201660E+03  0.00000000000E+00 0.  1.
         25    2    1    2    0    0 -0.32948625158E+02 -0.30540809613E+02 -0.14005418387E+03  0.19308282447E+03  0.12508976670E+03 0.  0.
          5    1    3    3  502    0  0.91734267597E+01 -0.31975005877E+02  0.11715378533E+02  0.35514437255E+02  0.41800000000E+01 0. -1.
         -5    1    3    3    0  502 -0.42122051918E+02  0.14341962641E+01 -0.15176956241E+03  0.15756838722E+03  0.41800000000E+01 0. -1.
        -11    1    1    2    0    0  0.61775725653E+02  0.12825345759E+02 -0.93748851497E+02  0.11300255276E+03  0.00000000000E+00 0. -1.
         11    1    1    2    0    0 -0.28827100494E+02  0.17715463854E+02 -0.47387970997E+02  0.58227649598E+02  0.00000000000E+00 0.  1.
</event>
<event>
 7    1  0.2873461E-009  0.1613677E+03  0.7561462E-02  0.1187161E+00
         -2   -1    0    0    0  501 -0.00000000000E+00  0.00000000000E+00  0.30409098463E+03  0.30409098463E+03  0.00000000000E+00 0.  1.
          2   -1    0    0  501    0  0.00000000000E+00 -0.00000000000E+00 -0.22771140281E+03  0.22771140281E+03  0.00000000000E+00 0. -1.
         25    2    1    2    0    0 -0.13950387850E+03 -0.12687713934E+02  0.23561282126E+03  0.30130223047E+03  0.12508925751E+03 0.  0.
          5    1    3    3  502    0 -0.73693466882E+02 -0.44423083151E+02  0.20426548352E+03  0.22168896575E+03  0.41800000000E+01 0. -1.
         -5    1    3    3    0  502 -0.65810411619E+02  0.31735369217E+02  0.31347337741E+02  0.79613264725E+02  0.41800000000E+01 0. -1.
        -11    1    1    2    0    0  0.97858568829E+02 -0.31385098829E+02 -0.77423550125E+02  0.12866907179E+03  0.00000000000E+00 0.  1.
         11    1    1    2    0    0  0.41645309672E+02  0.44072812762E+02 -0.81809689309E+02  0.10183108517E+03  0.00000000000E+00 0. -1.
</event>
<event>
 7    1  0.2873461E-009  0.7807120E+02  0.7561462E-02  0.1334616E+00
         -3   -1    0    0    0  501 -0.00000000000E+00  0.00000000000E+00  0.13279666605E+03  0.13279666605E+03  0.00000000000E+00 0.  1.
          3   -1    0    0  501    0  0.00000000000E+00 -0.00000000000E+00 -0.15003789392E+03  0.15003789392E+03  0.00000000000E+00 0. -1.
         25    2    1    2    0    0  0.37462845128E+02  0.29428905652E+02 -0.83664060222E+02  0.15785083651E+03  0.12509071253E+03 0.  0.
          5    1    3    3  502    0  0.27040911308E+02  0.12420620175E+02  0.29948433533E+02  0.42424801249E+02  0.41800000000E+01 0. -1.
         -5    1    3    3    0  502  0.10421933819E+02  0.17008285478E+02 -0.11361249375E+03  0.11542603526E+03  0.41800000000E+01 0. -1.
        -11    1    1    2    0    0 -0.68143798672E+02 -0.31270960532E+02  0.50185918589E+02  0.90222373582E+02  0.00000000000E+00 0.  1.
         11    1    1    2    0    0  0.30680953544E+02  0.18420548796E+01  0.16236913766E+02  0.34761349876E+02  0.00000000000E+00 0. -1.
</event>
<event>
 7    1  0.2873461E-009  0.1187634E+03  0.7561462E-02  0.1245151E+00
         -2   -1    0    0    0  501 -0.00000000000E+00  0.00000000000E+00  0.22628863839E+02  0.22628863839E+02  0.00000000000E+00 0. -1.
          2   -1    0    0  501    0  0.00000000000E+00 -0.00000000000E+00 -0.97883286916E+03  0.97883286916E+03  0.00000000000E+00 0.  1.
         25    2    1    2    0    0  0.73016372767E+02 -0.35564616708E+02 -0.72322534359E+03  0.73844390663E+03  0.12509305725E+03 0.  0.
          5    1    3    3  502    0 -0.25415947941E+02 -0.42222424373E+02 -0.28195893377E+03  0.28626389270E+03  0.41800000000E+01 0. -1.
         -5    1    3    3    0  502  0.98432320708E+02  0.66578076650E+01 -0.44126640982E+03  0.45218001393E+03  0.41800000000E+01 0. -1.
        -11    1    1    2    0    0 -0.28143490432E+02  0.34384806152E+02 -0.20580095252E+03  0.21054311437E+03  0.00000000000E+00 0.  1.
         11    1    1    2    0    0 -0.44872882335E+02  0.11798105558E+01 -0.27177709207E+02  0.52474712002E+02  0.00000000000E+00 0. -1.
</event>
<event>
 7    1  0.2873461E-009  0.6352961E+02  0.7561462E-02  0.1383589E+00
          1   -1    0    0  501    0  0.00000000000E+00  0.00000000000E+00  0.38016177900E+02  0.38016177900E+02  0.00000000000E+00 0. -1.
         -1   -1    0    0    0  501 -0.00000000000E+00 -0.00000000000E+00 -0.33217381332E+03  0.33217381332E+03  0.00000000000E+00 0.  1.
         25    2    1    2    0    0 -0.26560469873E+02  0.37824185173E+01 -0.18220171527E+03  0.22263086320E+03  0.12508905210E+03 0.  0.
          5    1    3    3  502    0  0.11286432745E+02  0.57985493994E+01  0.15971712341E+02  0.20822457453E+02  0.41800000000E+01 0.  1.
         -5    1    3    3    0  502 -0.37846902618E+02 -0.20161308821E+01 -0.19817342761E+03  0.20180840575E+03  0.41800000000E+01 0.  1.
        -11    1    1    2    0    0  0.49835564864E+02 -0.11318124155E+02 -0.11198470398E+03  0.12309450591E+03  0.00000000000E+00 0.  1.
         11    1    1    2    0    0 -0.23275094992E+02  0.75357056375E+01  0.28783826397E-01  0.24464622107E+02  0.00000000000E+00 0. -1.
</event>
<event>
 7    1  0.2873461E-009  0.2371915E+03  0.7561462E-02  0.1121678E+00
          3   -1    0    0  501    0  0.00000000000E+00  0.00000000000E+00  0.14584956946E+03  0.14584956946E+03  0.00000000000E+00 0. -1.
         -3   -1    0    0    0  501 -0.00000000000E+00 -0.00000000000E+00 -0.45615667664E+03  0.45615667664E+03  0.00000000000E+00 0.  1.
         25    2    1    2    0    0  0.62679477308E+02 -0.21613338441E+03 -0.86953147060E+02  0.27175465109E+03  0.12508950345E+03 0.  0.
          5    1    3    3  502    0  0.63561328916E+02 -0.22661111272E+03 -0.98876593322E+02  0.25531684638E+03  0.41800000000E+01 0. -1.
         -5    1    3    3    0  502 -0.88185160825E+00  0.10477728310E+02  0.11923446262E+02  0.16437804706E+02  0.41800000000E+01 0. -1.
        -11    1    1    2    0    0 -0.66344072606E+02  0.18924374504E+03 -0.22697425360E+03  0.30287298130E+03  0.00000000000E+00 0.  1.
         11    1    1    2    0    0  0.36645952980E+01  0.26889639367E+02  0.36202934725E+01  0.27378613712E+02  0.00000000000E+00 0. -1.
</event>
<event>
 7    1  0.3018935E-009  0.1278893E+03  0.7561462E-02  0.1230622E+00
         -2   -1    0    0    0  501 -0.00000000000E+00  0.00000000000E+00  0.31784634455E+02  0.31784634455E+02  0.00000000000E+00 0.  1.
          2   -1    0    0  501    0  0.00000000000E+00 -0.00000000000E+00 -0.60187159128E+03  0.60187159128E+03  0.00000000000E+00 0. -1.
         25    2    1    2    0    0 -0.56510139561E+02  0.59269111902E+02 -0.25286712852E+03  0.29376267506E+03  0.12509396898E+03 0.  0.
          5    1    3    3  502    0 -0.14098228488E+02  0.83909544631E+02 -0.91337948573E+02  0.12489861879E+03  0.41800000000E+01 0. -1.
         -5    1    3    3    0  502 -0.42411911074E+02 -0.24640432729E+02 -0.16152917995E+03  0.16886405627E+03  0.41800000000E+01 0. -1.
        -11    1    1    2    0    0 -0.63887547108E+01 -0.58102374560E+02 -0.17101417108E+03  0.18072783080E+03  0.00000000000E+00 0.  1.
         11    1    1    2    0    0  0.62898894272E+02 -0.11667373415E+01 -0.14620565722E+03  0.15916571987E+03  0.00000000000E+00 0. -1.
</event>
<event>
 7    1  0.2873461E-009  0.1034152E+03  0.7561462E-02  0.1273274E+00
         -1   -1    0    0    0  501 -0.00000000000E+00  0.00000000000E+00  0.16913894000E+02  0.16913894000E+02  0.00000000000E+00 0.  1.
          1   -1    0    0  501    0  0.00000000000E+00 -0.00000000000E+00 -0.13317608228E+04  0.13317608228E+04  0.00000000000E+00 0. -1.
         25    2    1    2    0    0 -0.20446299283E+02 -0.49943879904E+02 -0.11071709370E+04  0.11155210429E+04  0.12508905287E+03 0.  0.
          5    1    3    3  502    0 -0.38858060831E+02  0.19611161316E+02 -0.74307248907E+03  0.74435794007E+03  0.41800000000E+01 0.  1.
         -5    1    3    3    0  502  0.18411761548E+02 -0.69555041220E+02 -0.36409844791E+03  0.37116310282E+03  0.41800000000E+01 0.  1.
        -11    1    1    2    0    0 -0.26976791978E+02  0.27649967342E+02 -0.15143119926E+03  0.15628076052E+03  0.00000000000E+00 0. -1.
         11    1    1    2    0    0  0.47423091262E+02  0.22293912562E+02 -0.56244792545E+02  0.76872913374E+02  0.00000000000E+00 0.  1.
</event>
<event>
 7    1  0.2873461E-009  0.1201767E+03  0.7561462E-02  0.1242806E+00
         -2   -1    0    0    0  501 -0.00000000000E+00  0.00000000000E+00  0.12116974989E+03  0.12116974989E+03  0.00000000000E+00 0.  1.
          2   -1    0    0  501    0  0.00000000000E+00 -0.00000000000E+00 -0.20040692391E+03  0.20040692391E+03  0.00000000000E+00 0. -1.
         25    2    1    2    0    0 -0.71554209886E+02  0.22965735859E+00 -0.13057491303E+03  0.19446842973E+03  0.12509238408E+03 0.  0.
          5    1    3    3  502    0  0.26889720731E+02  0.21786084175E+02 -0.80650865511E+01  0.35780002316E+02  0.41800000000E+01 0.  1.
         -5    1    3    3    0  502 -0.98443930617E+02 -0.21556426816E+02 -0.12250982648E+03  0.15868842742E+03  0.41800000000E+01 0.  1.
        -11    1    1    2    0    0 -0.13068037268E+02  0.13628642960E+02 -0.10296332941E+02  0.21506463656E+02  0.00000000000E+00 0. -1.
         11    1    1    2    0    0  0.84622247154E+02 -0.13858300319E+02  0.61634071950E+02  0.10560178041E+03  0.00000000000E+00 0.  1.
</event>
<event>
 7    1  0.2873461E-009  0.1040063E+03  0.7561462E-02  0.1272090E+00
         -1   -1    0    0    0  501 -0.00000000000E+00  0.00000000000E+00  0.14541362428E+03  0.14541362428E+03  0.00000000000E+00 0.  1.
          1   -1    0    0  501    0  0.00000000000E+00 -0.00000000000E+00 -0.12600894315E+03  0.12600894315E+03  0.00000000000E+00 0. -1.
         25    2    1    2    0    0  0.31399592863E+02  0.56348395152E+02  0.59677800677E+02  0.15286891691E+03  0.12508552993E+03 0.  0.
          5    1    3    3  502    0  0.38707338699E+02  0.72858514021E+02 -0.77214385226E+01  0.82968151404E+02  0.41800000000E+01 0. -1.
         -5    1    3    3    0  502 -0.73077458362E+01 -0.16510118869E+02  0.67399239199E+02  0.69900765510E+02  0.41800000000E+01 0. -1.
        -11    1    1    2    0    0 -0.48978647300E+02 -0.12041846849E+01 -0.35452030644E+02  0.60474824752E+02  0.00000000000E+00 0. -1.
         11    1    1    2    0    0  0.17579054437E+02 -0.55144210467E+02 -0.48210889036E+01  0.58078825755E+02  0.00000000000E+00 0.  1.
</event>
<event>
 7    1  0.2873461E-009  0.1974819E+03  0.7561462E-02  0.1151881E+00
         -2   -1    0    0    0  501 -0.00000000000E+00  0.00000000000E+00  0.13126302809E+03  0.13126302809E+03  0.00000000000E+00 0.  1.
          2   -1    0    0  501    0  0.00000000000E+00 -0.00000000000E+00 -0.37460841571E+03  0.37460841571E+03  0.00000000000E+00 0. -1.
         25    2    1    2    0    0  0.17557245257E+03  0.92091543500E+01 -0.34881088977E+02  0.21857477481E+03  0.12509095568E+03 0.  0.
          5    1    3    3  502    0  0.17879044627E+03 -0.20990134460E+02 -0.12275320443E+02  0.18048480633E+03  0.41800000000E+01 0.  1.
         -5    1    3    3    0  502 -0.32179937079E+01  0.30199288810E+02 -0.22605768534E+02  0.38089968485E+02  0.41800000000E+01 0.  1.
        -11    1    1    2    0    0 -0.58046523835E+02 -0.29279511522E+02 -0.12767814558E+03  0.14327734498E+03  0.00000000000E+00 0. -1.
         11    1    1    2    0    0 -0.11752592873E+03  0.20070357172E+02 -0.80786153059E+02  0.14401932401E+03  0.00000000000E+00 0.  1.
</event>
<event>
 7    1  0.2873461E-009  0.2161643E+03  0.7561462E-02  0.1136775E+00
         -1   -1    0    0    0  501 -0.00000000000E+00  0.00000000000E+00  0.56961565873E+02  0.56961565873E+02  0.00000000000E+00 0.  1.
          1   -1    0    0  501    0  0.00000000000E+00 -0.00000000000E+00 -0.90512730327E+03  0.90512730327E+03  0.00000000000E+00 0. -1.
         25    2    1    2    0    0  0.19790465834E+03 -0.92435794467E+01 -0.52019440851E+03  0.57052747986E+03  0.12509070742E+03 0.  0.
          5    1    3    3  502    0  0.16824947046E+03 -0.57124987582E+02 -0.40171555326E+03  0.43927668576E+03  0.41800000000E+01 0. -1.
         -5    1    3    3    0  502  0.29655187876E+02  0.47881408136E+02 -0.11847885524E+03  0.13125079410E+03  0.41800000000E+01 0. -1.
        -11    1    1    2    0    0 -0.68696183244E+02  0.30063425280E+01 -0.19174436280E+03  0.20370101706E+03  0.00000000000E+00 0. -1.
         11    1    1    2    0    0 -0.12920847509E+03  0.62372369187E+01 -0.13622696609E+03  0.18786037222E+03  0.00000000000E+00 0.  1.
</event>
<event>
 7    1  0.2873461E-009  0.1208182E+03  0.7561462E-02  0.1241753E+00
          3   -1    0    0  501    0  0.00000000000E+00  0.00000000000E+00  0.23688714731E+03  0.23688714731E+03  0.00000000000E+00 0. -1.
         -3   -1    0    0    0  501 -0.00000000000E+00 -0.00000000000E+00 -0.69303619316E+02  0.69303619316E+02  0.00000000000E+00 0.  1.
         25    2    1    2    0    0 -0.42174969532E+02 -0.50583631554E+02  0.77181281621E+02  0.16106388861E+03  0.12508874507E+03 0.  0.
          5    1    3    3  502    0  0.31577896781E+02 -0.58669277083E+02  0.41733306998E+02  0.78729847907E+02  0.41800000000E+01 0.  1.
         -5    1    3    3    0  502 -0.73752866312E+02  0.80856455289E+01  0.35447974623E+02  0.82334040699E+02  0.41800000000E+01 0.  1.
        -11    1    1    2    0    0  0.57712191366E+02  0.11966643253E+02  0.84588235355E+02  0.10309736730E+03  0.00000000000E+00 0.  1.
         11    1    1    2    0    0 -0.15537221834E+02  0.38616988301E+02  0.58140110198E+01  0.42029510726E+02  0.00000000000E+00 0. -1.
</event>
<event>
 7    1  0.3390087E-009  0.1319619E+03  0.7561462E-02  0.1224573E+00
         -1   -1    0    0    0  501 -0.00000000000E+00  0.00000000000E+00  0.70866401334E+02  0.70866401334E+02  0.00000000000E+00 0.  1.
          1   -1    0    0  501    0  0.00000000000E+00 -0.00000000000E+00 -0.35920232452E+03  0.35920232452E+03  0.00000000000E+00 0. -1.
         25    2    1    2    0    0  0.93914630715E+02 -0.64210537633E+02 -0.11962269762E+03  0.20712147069E+03  0.12508702104E+03 0.  0.
          5    1    3    3  502    0  0.14984051080E+02  0.24986350438E+02  0.99543437311E+01  0.31070900439E+02  0.41800000000E+01 0.  1.
         -5    1    3    3    0  502  0.78930579635E+02 -0.89196888071E+02 -0.12957704135E+03  0.17605057026E+03  0.41800000000E+01 0.  1.
        -11    1    1    2    0    0 -0.62078495974E+02  0.31300660015E+02 -0.27962336192E+02  0.74935727294E+02  0.00000000000E+00 0.  1.
         11    1    1    2    0    0 -0.31836134741E+02  0.32909877618E+02 -0.14075088938E+03  0.14801152786E+03  0.00000000000E+00 0. -1.
</event>
<event>
 7    1  0.2873461E-009  0.9910374E+02  0.7561462E-02  0.1282192E+00
          2   -1    0    0  501    0  0.00000000000E+00  0.00000000000E+00  0.24120339061E+03  0.24120339061E+03  0.00000000000E+00 0. -1.
         -2   -1    0    0    0  501 -0.00000000000E+00 -0.00000000000E+00 -0.54454595346E+02  0.54454595346E+02  0.00000000000E+00 0.  1.
         25    2    1    2    0    0  0.20951780519E+02 -0.29601746340E+02  0.90081979321E+02  0.15835869909E+03  0.12508986404E+03 0.  0.
          5    1    3    3  502    0  0.69837161594E+02 -0.53334652305E+01  0.27878972495E+02  0.75500890712E+02  0.41800000000E+01 0.  1.
         -5    1    3    3    0  502 -0.48885381075E+02 -0.24268281110E+02  0.62203006826E+02  0.82857808377E+02  0.41800000000E+01 0.  1.
        -11    1    1    2    0    0  0.22890270871E+02  0.67508448640E+01 -0.48779899624E+01  0.24358431661E+02  0.00000000000E+00 0.  1.
         11    1    1    2    0    0 -0.43842051390E+02  0.22850901476E+02  0.10154480591E+03  0.11294085521E+03  0.00000000000E+00 0. -1.
</event>
<event>
 7    1  0.2873461E-009  0.9264609E+02  0.7561462E-02  0.1296567E+00
          2   -1    0    0  501    0  0.00000000000E+00  0.00000000000E+00  0.24741067661E+03  0.24741067661E+03  0.00000000000E+00 0. -1.
         -2   -1    0    0    0  501 -0.00000000000E+00 -0.00000000000E+00 -0.50595438694E+02  0.50595438694E+02  0.00000000000E+00 0.  1.
         25    2    1    2    0    0  0.17360732175E+02 -0.37000228941E+02  0.10606481680E+03  0.16902129734E+03  0.12509213255E+03 0.  0.
          5    1    3    3  502    0 -0.33377026048E+02 -0.32914857840E+02  0.10810741149E+03  0.11790716074E+03  0.41800000000E+01 0.  1.
         -5    1    3    3    0  502  0.50737758223E+02 -0.40853711007E+01 -0.20425946940E+01  0.51114136593E+02  0.41800000000E+01 0.  1.
        -11    1    1    2    0    0 -0.43056290251E+02  0.11795026183E+01  0.64863856592E+02  0.77862412296E+02  0.00000000000E+00 0.  1.
         11    1    1    2    0    0  0.25695558076E+02  0.35820726323E+02  0.25886564527E+02  0.51122405676E+02  0.00000000000E+00 0. -1.
</event>
<event>
 7    1  0.2873461E-009  0.1125209E+03  0.7561462E-02  0.1255972E+00
          1   -1    0    0  501    0  0.00000000000E+00  0.00000000000E+00  0.13633990979E+04  0.13633990979E+04  0.00000000000E+00 0. -1.
         -1   -1    0    0    0  501 -0.00000000000E+00 -0.00000000000E+00 -0.16724574147E+02  0.16724574147E+02  0.00000000000E+00 0.  1.
         25    2    1    2    0    0  0.49951263090E+01 -0.95889213317E+02  0.99960721109E+03  0.10119703693E+04  0.12509899790E+03 0.  0.
          5    1    3    3  502    0  0.23509044773E+02 -0.11197195626E+02  0.68789813416E+03  0.68840349197E+03  0.41800000000E+01 0. -1.
         -5    1    3    3    0  502 -0.18513918464E+02 -0.84692017691E+02  0.31170907693E+03  0.32356687729E+03  0.41800000000E+01 0. -1.
        -11    1    1    2    0    0  0.26306873552E+02  0.42181652415E+02  0.81984079234E+02  0.95878739272E+02  0.00000000000E+00 0.  1.
         11    1    1    2    0    0 -0.31301999861E+02  0.53707560902E+02  0.26508323346E+03  0.27227456355E+03  0.00000000000E+00 0. -1.
</event>
<event>
 7    1  0.2873461E-009  0.1094709E+03  0.7561462E-02  0.1261553E+00
         -2   -1    0    0    0  501 -0.00000000000E+00  0.00000000000E+00  0.16830054091E+02  0.16830054091E+02  0.00000000000E+00 0. -1.
          2   -1    0    0  501    0  0.00000000000E+00 -0.00000000000E+00 -0.73517311034E+03  0.73517311034E+03  0.00000000000E+00 0.  1.
         25    2    1    2    0    0  0.15868825462E+02 -0.75248519654E+01 -0.40518335408E+03  0.42441630467E+03  0.12508879340E+03 0.  0.
          5    1    3    3  502    0 -0.19378772453E+02 -0.59395135931E+02 -0.17767787317E+03  0.18838847631E+03  0.41800000000E+01 0.  1.
         -5    1    3    3    0  502  0.35247597915E+02  0.51870283966E+02 -0.22750548091E+03  0.23602782836E+03  0.41800000000E+01 0.  1.
        -11    1    1    2    0    0 -0.90232962997E+01  0.49818630405E+02 -0.13067731185E+03  0.14014234065E+03  0.00000000000E+00 0. -1.
         11    1    1    2    0    0 -0.68455291620E+01 -0.42293778439E+02 -0.18248239032E+03  0.18744451910E+03  0.00000000000E+00 0.  1.
</event>
<event>
 7    1  0.2873461E-009  0.7501207E+02  0.7561462E-02  0.1343834E+00
         -1   -1    0    0    0  501 -0.00000000000E+00  0.00000000000E+00  0.49618967243E+03  0.49618967243E+03  0.00000000000E+00 0.  1.
          1   -1    0    0  501    0  0.00000000000E+00 -0.00000000000E+00 -0.28710308440E+02  0.28710308440E+02  0.00000000000E+00 0. -1.
         25    2    1    2    0    0 -0.32102339284E+02  0.22991465778E+02  0.19869888130E+03  0.23809159399E+03  0.12508874456E+03 0.  0.
          5    1    3    3  502    0 -0.13232449236E+02  0.35130155723E+02  0.20947444092E+03  0.21285262355E+03  0.41800000000E+01 0.  1.
         -5    1    3    3    0  502 -0.18869890048E+02 -0.12138689944E+02 -0.10775559622E+02  0.25238970446E+02  0.41800000000E+01 0.  1.
        -11    1    1    2    0    0  0.56721652291E+02 -0.29541775381E+02  0.23998827459E+03  0.24836351236E+03  0.00000000000E+00 0.  1.
         11    1    1    2    0    0 -0.24619313007E+02  0.65503096026E+01  0.28792208104E+02  0.38444874513E+02  0.00000000000E+00 0. -1.
</event>
<event>
 7    1  0.2873461E-009  0.3161551E+03  0.7561462E-02  0.1077433E+00
         -2   -1    0    0    0  501 -0.00000000000E+00  0.00000000000E+00  0.28633313496E+03  0.28633313496E+03  0.00000000000E+00 0.  1.
          2   -1    0    0  501    0  0.00000000000E+00 -0.00000000000E+00 -0.37779814161E+03  0.37779814161E+03  0.00000000000E+00 0. -1.
         25    2    1    2    0    0  0.29450015021E+03  0.97340081493E+02 -0.56621412196E+02  0.33920380854E+03  0.12509120460E+03 0.  0.
          5    1    3    3  502    0  0.25814222745E+03  0.10865483810E+03 -0.83637811928E+02  0.29232864967E+03  0.41800000000E+01 0.  1.
         -5    1    3    3    0  502  0.36357922763E+02 -0.11314756602E+02  0.27016399733E+02  0.46875158870E+02  0.41800000000E+01 0.  1.
        -11    1    1    2    0    0 -0.17223529065E+03 -0.31713027371E+02  0.18839096740E+02  0.17614091807E+03  0.00000000000E+00 0.  1.
         11    1    1    2    0    0 -0.12226485956E+03 -0.65627054122E+02 -0.53682691188E+02  0.14878654996E+03  0.00000000000E+00 0. -1.
</event>
<event>
 7    1  0.2873461E-009  0.8825337E+02  0.7561462E-02  0.1307137E+00
          2   -1    0    0  501    0  0.00000000000E+00  0.00000000000E+00  0.45874345857E+03  0.45874345857E+03  0.00000000000E+00 0. -1.
         -2   -1    0    0    0  501 -0.00000000000E+00 -0.00000000000E+00 -0.41797376661E+02  0.41797376661E+02  0.00000000000E+00 0.  1.
         25    2    1    2    0    0  0.68574769974E+02  0.48678742793E+02  0.18335774243E+03  0.23736337140E+03  0.12509671977E+03 0.  0.
          5    1    3    3  502    0  0.55184040046E+02  0.27279282445E+02  0.10457582490E+02  0.62580116316E+02  0.41800000000E+01 0. -1.
         -5    1    3    3    0  502  0.13390729927E+02  0.21399460348E+02  0.17290015994E+03  0.17478325509E+03  0.41800000000E+01 0. -1.
        -11    1    1    2    0    0 -0.24229520015E+02 -0.35456562098E+02  0.25368982854E+02  0.49878078622E+02  0.00000000000E+00 0.  1.
         11    1    1    2    0    0 -0.44345249958E+02 -0.13222180695E+02  0.20821935663E+03  0.21329938521E+03  0.00000000000E+00 0. -1.
</event>
<event>
 7    1  0.2873461E-009  0.1040862E+03  0.7561462E-02  0.1271931E+00
          2   -1    0    0  501    0  0.00000000000E+00  0.00000000000E+00  0.20421828394E+03  0.20421828394E+03  0.00000000000E+00 0. -1.
         -2   -1    0    0    0  501 -0.00000000000E+00 -0.00000000000E+00 -0.10128260373E+03  0.10128260373E+03  0.00000000000E+00 0.  1.
         25    2    1    2    0    0  0.73579423008E+02  0.28964012126E+02  0.28360100293E+01  0.14802070682E+03  0.12509692724E+03 0.  0.
          5    1    3    3  502    0  0.71958611646E+02  0.10959617988E+02 -0.52378121525E+02  0.89772462543E+02  0.41800000000E+01 0.  1.
         -5    1    3    3    0  502  0.16208113617E+01  0.18004394139E+02  0.55214131555E+02  0.58248244275E+02  0.41800000000E+01 0.  1.
        -11    1    1    2    0    0 -0.77829582911E+02  0.91446213866E+01  0.86685824287E+02  0.11685675081E+03  0.00000000000E+00 0. -1.
         11    1    1    2    0    0  0.42501599033E+01 -0.38108633513E+02  0.13413845894E+02  0.40623430051E+02  0.00000000000E+00 0.  1.
</event>
<event>
 7    1  0.2873461E-009  0.9316630E+02  0.7561462E-02  0.1295360E+00
         -1   -1    0    0    0  501 -0.00000000000E+00  0.00000000000E+00  0.84196147746E+02  0.84196147746E+02  0.00000000000E+00 0.  1.
          1   -1    0    0  501    0  0.00000000000E+00 -0.00000000000E+00 -0.17695924583E+03  0.17695924583E+03  0.00000000000E+00 0. -1.
         25    2    1    2    0    0  0.15369612106E+02 -0.19574778103E+02 -0.10543758306E+03  0.16548077415E+03  0.12508959101E+03 0.  0.
          5    1    3    3  502    0 -0.51539656782E+02 -0.89806619697E-01 -0.70450803302E+02  0.87390688133E+02  0.41800000000E+01 0.  1.
         -5    1    3    3    0  502  0.66909268887E+02 -0.19484971484E+02 -0.34986779754E+02  0.78090086018E+02  0.41800000000E+01 0.  1.
        -11    1    1    2    0    0 -0.38204431606E+02  0.73378957713E+01 -0.27662187773E+02  0.47734892281E+02  0.00000000000E+00 0. -1.
         11    1    1    2    0    0  0.22834819500E+02  0.12236882332E+02  0.40336672744E+02  0.47939727146E+02  0.00000000000E+00 0.  1.
</event>
<event>
 7    1  0.2873461E-009  0.2251775E+03  0.7561462E-02  0.1130081E+00
         -2   -1    0    0    0  501 -0.00000000000E+00  0.00000000000E+00  0.32385878730E+02  0.32385878730E+02  0.00000000000E+00 0. -1.
          2   -1    0    0  501    0  0.00000000000E+00 -0.00000000000E+00 -0.40094543856E+04  0.40094543856E+04  0.00000000000E+00 0.  1.
         25    2    1    2    0    0 -0.16816933818E+03 -0.14152960135E+03 -0.34978548269E+04  0.35069855540E+04  0.12509089090E+03 0.  0.
          5    1    3    3  502    0 -0.15598845449E+03 -0.13226282861E+03 -0.34586258286E+04  0.34646696738E+04  0.41800000000E+01 0. -1.
         -5    1    3    3    0  502 -0.12180883692E+02 -0.92667727408E+01 -0.39228998325E+02  0.42315880165E+02  0.41800000000E+01 0. -1.
        -11    1    1    2    0    0  0.71621800244E+02  0.10415469149E+03 -0.19513048864E+03  0.23249470882E+03  0.00000000000E+00 0. -1.
         11    1    1    2    0    0  0.96547537933E+02  0.37374909855E+02 -0.28408319132E+03  0.30236000159E+03  0.00000000000E+00 0.  1.
</event>
<event>
 7    1  0.2873461E-009  0.8787454E+02  0.7561462E-02  0.1308082E+00
          1   -1    0    0  501    0  0.00000000000E+00  0.00000000000E+00  0.87259547193E+02  0.87259547193E+02  0.00000000000E+00 0. -1.
         -1   -1    0    0    0  501 -0.00000000000E+00 -0.00000000000E+00 -0.14029246883E+03  0.14029246883E+03  0.00000000000E+00 0.  1.
         25    2    1    2    0    0 -0.66777423531E+01  0.36495734550E+02 -0.45231644622E+02  0.13809343385E+03  0.12508942367E+03 0.  0.
          5    1    3    3  502    0  0.36139574240E+02  0.64109741946E+02 -0.46143657477E+02  0.86964575340E+02  0.41800000000E+01 0. -1.
         -5    1    3    3    0  502 -0.42817316593E+02 -0.27614007396E+02  0.91201285579E+00  0.51128858506E+02  0.41800000000E+01 0. -1.
        -11    1    1    2    0    0 -0.10579766832E+02 -0.38424643384E-01  0.31447031574E+02  0.33179040635E+02  0.00000000000E+00 0. -1.
         11    1    1    2    0    0  0.17257509185E+02 -0.36457309907E+02 -0.39248308585E+02  0.56279541537E+02  0.00000000000E+00 0.  1.
</event>
<event>
 7    1  0.2873461E-009  0.8979251E+02  0.7561462E-02  0.1303355E+00
          2   -1    0    0  501    0  0.00000000000E+00  0.00000000000E+00  0.33043957349E+02  0.33043957349E+02  0.00000000000E+00 0. -1.
         -2   -1    0    0    0  501 -0.00000000000E+00 -0.00000000000E+00 -0.36153082776E+03  0.36153082776E+03  0.00000000000E+00 0.  1.
         25    2    1    2    0    0 -0.21504322628E+01 -0.47336323777E+02 -0.21124180197E+03  0.25003158644E+03  0.12508934171E+03 0.  0.
          5    1    3    3  502    0 -0.16749107495E+02 -0.84138685736E+02 -0.99688738255E+02  0.13158711173E+03  0.41800000000E+01 0.  1.
         -5    1    3    3    0  502  0.14598675232E+02  0.36802361959E+02 -0.11155306371E+03  0.11844447470E+03  0.41800000000E+01 0.  1.
        -11    1    1    2    0    0 -0.11620130213E+02  0.26118495334E+02 -0.11572422320E+03  0.11920276448E+03  0.00000000000E+00 0.  1.
         11    1    1    2    0    0  0.13770562476E+02  0.21217828443E+02 -0.15208452435E+01  0.25340434191E+02  0.00000000000E+00 0. -1.
</event>
<event>
 7    1  0.2873461E-009  0.1226585E+03  0.7561462E-02  0.1238775E+00
          2   -1    0    0  501    0  0.00000000000E+00  0.00000000000E+00  0.21995240490E+03  0.21995240490E+03  0.00000000000E+00 0. -1.
         -2   -1    0    0    0  501 -0.00000000000E+00 -0.00000000000E+00 -0.93469867480E+02  0.93469867480E+02  0.00000000000E+00 0.  1.
         25    2    1    2    0    0 -0.28347238231E+02  0.88816290527E+02  0.75648343103E+02  0.17338654550E+03  0.12509325709E+03 0.  0.
          5    1    3    3  502    0 -0.50248670842E+01  0.10918259478E+03  0.22399443912E+02  0.11164808901E+03  0.41800000000E+01 0.  1.
         -5    1    3    3    0  502 -0.23322371147E+02 -0.20366304255E+02  0.53248899191E+02  0.61738456492E+02  0.41800000000E+01 0.  1.
        -11    1    1    2    0    0  0.12748713328E+02  0.16846523190E+01 -0.20191857867E+02  0.23939065752E+02  0.00000000000E+00 0.  1.
         11    1    1    2    0    0  0.15598524903E+02 -0.90500942846E+02  0.71026052184E+02  0.11609666112E+03  0.00000000000E+00 0. -1.
</event>
<event>
 7    1  0.2873461E-009  0.5915838E+02  0.7561462E-02  0.1401398E+00
         -1   -1    0    0    0  501 -0.00000000000E+00  0.00000000000E+00  0.61058567024E+02  0.61058567024E+02  0.00000000000E+00 0.  1.
          1   -1    0    0  501    0  0.00000000000E+00 -0.00000000000E+00 -0.20498645985E+03  0.20498645985E+03  0.00000000000E+00 0. -1.
         25    2    1    2    0    0 -0.80511456071E+01 -0.65897783491E+01 -0.52432014409E+02  0.13603344907E+03  0.12509091496E+03 0.  0.
          5    1    3    3  502    0  0.28597448168E+00 -0.14381843981E+02  0.40048243697E+02  0.42758080416E+02  0.41800000000E+01 0.  1.
         -5    1    3    3    0  502 -0.83371200888E+01  0.77920656317E+01 -0.92480258106E+02  0.93275368654E+02  0.41800000000E+01 0.  1.
        -11    1    1    2    0    0  0.76459265775E+01 -0.41950736931E+02 -0.53208872208E+02  0.68187305300E+02  0.00000000000E+00 0. -1.
         11    1    1    2    0    0  0.40521902955E+00  0.48540515280E+02 -0.38287006208E+02  0.61824272503E+02  0.00000000000E+00 0.  1.
</event>
<event>
 7    1  0.2873461E-009  0.1242750E+03  0.7561462E-02  0.1236207E+00
         -1   -1    0    0    0  501 -0.00000000000E+00  0.00000000000E+00  0.16786048043E+02  0.16786048043E+02  0.00000000000E+00 0.  1.
          1   -1    0    0  501    0  0.00000000000E+00 -0.00000000000E+00 -0.94213108636E+03  0.94213108636E+03  0.00000000000E+00 0. -1.
         25    2    1    2    0    0 -0.20315210492E+02  0.58744664754E+02 -0.54543792698E+03  0.56303960711E+03  0.12508966216E+03 0.  0.
          5    1    3    3  502    0  0.52764226825E+02  0.27537218320E+02 -0.25616847561E+03  0.26302494620E+03  0.41800000000E+01 0. -1.
         -5    1    3    3    0  502 -0.73079437317E+02  0.31207446433E+02 -0.28926945136E+03  0.30001466091E+03  0.41800000000E+01 0. -1.
        -11    1    1    2    0    0 -0.27765794735E+02  0.62552394025E+01 -0.69223227249E+02  0.74845992331E+02  0.00000000000E+00 0. -1.
         11    1    1    2    0    0  0.48081005227E+02 -0.64999904156E+02 -0.31068388409E+03  0.32103153496E+03  0.00000000000E+00 0.  1.
</event>
<event>
 7    1  0.2873461E-009  0.8705477E+02  0.7561462E-02  0.1310145E+00
         -2   -1    0    0    0  501 -0.00000000000E+00  0.00000000000E+00  0.10825160613E+03  0.10825160613E+03  0.00000000000E+00 0.  1.
          2   -1    0    0  501    0  0.00000000000E+00 -0.00000000000E+00 -0.14263312849E+03  0.14263312849E+03  0.00000000000E+00 0. -1.
         25    2    1    2    0    0  0.67675153513E+00  0.31442609304E+02  0.55653408059E+00  0.12898441859E+03  0.12509026676E+03 0.  0.
          5    1    3    3  502    0 -0.24067045332E+02  0.61947841768E+02  0.36187788098E+02  0.75787770637E+02  0.41800000000E+01 0. -1.
         -5    1    3    3    0  502  0.24743796867E+02 -0.30505232463E+02 -0.35631254018E+02  0.53196647957E+02  0.41800000000E+01 0. -1.
        -11    1    1    2    0    0  0.15963381507E+02 -0.44236687091E+02 -0.68035864017E+02  0.82707876447E+02  0.00000000000E+00 0. -1.
         11    1    1    2    0    0 -0.16640133042E+02  0.12794077786E+02  0.33097807579E+02  0.39192439584E+02  0.00000000000E+00 0.  1.
</event>
<event>
 7    1  0.2873461E-009  0.1337415E+03  0.7561462E-02  0.1222007E+00
          2   -1    0    0  501    0  0.00000000000E+00  0.00000000000E+00  0.43663817623E+03  0.43663817623E+03  0.00000000000E+00 0. -1.
         -2   -1    0    0    0  501 -0.00000000000E+00 -0.00000000000E+00 -0.43216919905E+02  0.43216919905E+02  0.00000000000E+00 0.  1.
         25    2    1    2    0    0  0.80282068882E+02  0.13559274381E+02  0.25002677049E+03  0.29118689770E+03  0.12508940373E+03 0.  0.
          5    1    3    3  502    0  0.62910716308E+02  0.64916024115E+02  0.18835751367E+03  0.20896859517E+03  0.41800000000E+01 0. -1.
         -5    1    3    3    0  502  0.17371352574E+02 -0.51356749734E+02  0.61669256826E+02  0.82218302530E+02  0.41800000000E+01 0. -1.
        -11    1    1    2    0    0 -0.10049579951E+03 -0.17526508893E+02  0.11930682721E+03  0.15697357501E+03  0.00000000000E+00 0.  1.
         11    1    1    2    0    0  0.20213730633E+02  0.39672345119E+01  0.24087658627E+02  0.31694623423E+02  0.00000000000E+00 0. -1.
</event>
<event>
 7    1  0.2873461E-009  0.1050777E+03  0.7561462E-02  0.1269967E+00
          2   -1    0    0  501    0  0.00000000000E+00  0.00000000000E+00  0.98124123926E+02  0.98124123926E+02  0.00000000000E+00 0. -1.
         -2   -1    0    0    0  501 -0.00000000000E+00 -0.00000000000E+00 -0.17525244588E+03  0.17525244588E+03  0.00000000000E+00 0.  1.
         25    2    1    2    0    0 -0.49364072264E+02  0.46601996680E+02 -0.69768719947E+02  0.15850477827E+03  0.12509009843E+03 0.  0.
          5    1    3    3  502    0  0.41731734355E+02  0.23462002147E+02 -0.19794288966E+02  0.51973930703E+02  0.41800000000E+01 0. -1.
         -5    1    3    3    0  502 -0.91095806620E+02  0.23139994533E+02 -0.49974430981E+02  0.10653084756E+03  0.41800000000E+01 0. -1.
        -11    1    1    2    0    0  0.26218450275E+02 -0.21859019907E+02 -0.49918196617E+02  0.60473549917E+02  0.00000000000E+00 0.  1.
         11    1    1    2    0    0  0.23145621989E+02 -0.24742976773E+02  0.42558594608E+02  0.54398241625E+02  0.00000000000E+00 0. -1.
</event>
<event>
 7    1  0.2873461E-009  0.1133162E+03  0.7561462E-02  0.1254549E+00
          1   -1    0    0  501    0  0.00000000000E+00  0.00000000000E+00  0.21209879319E+03  0.21209879319E+03  0.00000000000E+00 0. -1.
         -1   -1    0    0    0  501 -0.00000000000E+00 -0.00000000000E+00 -0.92669586505E+02  0.92669586505E+02  0.00000000000E+00 0.  1.
         25    2    1    2    0    0 -0.51282604319E+01  0.79098744912E+02  0.36285143987E+02  0.15247052918E+03  0.12509092730E+03 0.  0.
          5    1    3    3  502    0  0.13364417061E+02  0.80025787723E+02  0.74227364861E+02  0.11004502914E+03  0.41800000000E+01 0. -1.
         -5    1    3    3    0  502 -0.18492677493E+02 -0.92704281135E+00 -0.37942220874E+02  0.42425500045E+02  0.41800000000E+01 0. -1.
        -11    1    1    2    0    0 -0.45183129339E+02 -0.53281498958E+02  0.56191116399E+02  0.89654196055E+02  0.00000000000E+00 0. -1.
         11    1    1    2    0    0  0.50311389771E+02 -0.25817245953E+02  0.26952946298E+02  0.62643654454E+02  0.00000000000E+00 0.  1.
</event>
<event>
 7    1  0.2873461E-009  0.1101698E+03  0.7561462E-02  0.1260256E+00
          2   -1    0    0  501    0  0.00000000000E+00  0.00000000000E+00  0.74730379921E+03  0.74730379921E+03  0.00000000000E+00 0.  1.
         -2   -1    0    0    0  501 -0.00000000000E+00 -0.00000000000E+00 -0.17999945653E+02  0.17999945653E+02  0.00000000000E+00 0. -1.
         25    2    1    2    0    0  0.72529184658E+00 -0.28705459545E+02  0.31395223329E+03  0.33917324868E+03  0.12509179980E+03 0.  0.
          5    1    3    3  502    0  0.31197325960E+02  0.40379862747E+02  0.10187747965E+03  0.11401885687E+03  0.41800000000E+01 0.  1.
         -5    1    3    3    0  502 -0.30472034113E+02 -0.69085322291E+02  0.21207475363E+03  0.22515439180E+03  0.41800000000E+01 0.  1.
        -11    1    1    2    0    0  0.97689446847E+01 -0.31203683305E+02  0.10895022385E+03  0.11375083916E+03  0.00000000000E+00 0.  1.
         11    1    1    2    0    0 -0.10494236531E+02  0.59909142850E+02  0.30640139642E+03  0.31237965702E+03  0.00000000000E+00 0. -1.
</event>
<event>
 7    1  0.2873461E-009  0.1227538E+03  0.7561462E-02  0.1238622E+00
          1   -1    0    0  501    0  0.00000000000E+00  0.00000000000E+00  0.45451335854E+03  0.45451335854E+03  0.00000000000E+00 0. -1.
         -1   -1    0    0    0  501 -0.00000000000E+00 -0.00000000000E+00 -0.10844583398E+03  0.10844583398E+03  0.00000000000E+00 0.  1.
         25    2    1    2    0    0 -0.87800013157E+02 -0.33393840682E+02  0.40315764643E+03  0.43244231129E+03  0.12508506631E+03 0.  0.
          5    1    3    3  502    0 -0.53988048548E+02 -0.78293531283E+02  0.19819072342E+03  0.21986728196E+03  0.41800000000E+01 0.  1.
         -5    1    3    3    0  502 -0.33811964610E+02  0.44899690602E+02  0.20496692301E+03  0.21257502933E+03  0.41800000000E+01 0.  1.
        -11    1    1    2    0    0  0.68650739209E+02  0.25378622595E+02 -0.73746489730E+02  0.10390160358E+03  0.00000000000E+00 0.  1.
         11    1    1    2    0    0  0.19149273948E+02  0.80152180870E+01  0.16656367866E+02  0.26615277647E+02  0.00000000000E+00 0. -1.
</event>
<event>
 7    1  0.2873461E-009  0.8937892E+02  0.7561462E-02  0.1304363E+00
         -2   -1    0    0    0  501 -0.00000000000E+00  0.00000000000E+00  0.59639093593E+02  0.59639093593E+02  0.00000000000E+00 0. -1.
          2   -1    0    0  501    0  0.00000000000E+00 -0.00000000000E+00 -0.25775959019E+03  0.25775959019E+03  0.00000000000E+00 0.  1.
         25    2    1    2    0    0  0.43725843487E+02  0.32762737692E+02 -0.10966490379E+03  0.17509794008E+03  0.12509017199E+03 0.  0.
          5    1    3    3  502    0  0.49417353712E+02 -0.31880488918E+02 -0.16029606624E+02  0.61097144860E+02  0.41800000000E+01 0.  1.
         -5    1    3    3    0  502 -0.56915102247E+01  0.64643226611E+02 -0.93635297168E+02  0.11400079522E+03  0.41800000000E+01 0.  1.
        -11    1    1    2    0    0 -0.29378289958E+02 -0.19717563851E+02  0.13981764671E+02  0.38044132115E+02  0.00000000000E+00 0. -1.
         11    1    1    2    0    0 -0.14347553530E+02 -0.13045173841E+02 -0.10243735747E+03  0.10425661158E+03  0.00000000000E+00 0.  1.
</event>
<event>
 7    1  0.2873461E-009  0.9767149E+02  0.7561462E-02  0.1285270E+00
         -2   -1    0    0    0  501 -0.00000000000E+00  0.00000000000E+00  0.15766669919E+03  0.15766669919E+03  0.00000000000E+00 0. -1.
          2   -1    0    0  501    0  0.00000000000E+00 -0.00000000000E+00 -0.81135605641E+02  0.81135605641E+02  0.00000000000E+00 0.  1.
         25    2    1    2    0    0 -0.25903604836E+02 -0.15722806053E+02  0.55087943195E+02  0.13999994769E+03  0.12508837073E+03 0.  0.
          5    1    3    3  502    0  0.41205077047E+02 -0.13356162310E+02  0.58173359007E+02  0.72648864714E+02  0.41800000000E+01 0.  1.
         -5    1    3    3    0  502 -0.67108681883E+02 -0.23666437426E+01 -0.30854158114E+01  0.67351082971E+02  0.41800000000E+01 0.  1.
        -11    1    1    2    0    0  0.43365150451E+02 -0.17698541472E+02  0.35277356640E+02  0.58636733669E+02  0.00000000000E+00 0. -1.
         11    1    1    2    0    0 -0.17461545615E+02  0.33421347525E+02 -0.13834206286E+02  0.40165623476E+02  0.00000000000E+00 0.  1.
</event>
<event>
 7    1  0.2873461E-009  0.1007194E+03  0.7561462E-02  0.1278790E+00
          2   -1    0    0  501    0  0.00000000000E+00  0.00000000000E+00  0.51571645199E+02  0.51571645199E+02  0.00000000000E+00 0. -1.
         -2   -1    0    0    0  501 -0.00000000000E+00 -0.00000000000E+00 -0.34188212343E+03  0.34188212343E+03  0.00000000000E+00 0.  1.
         25    2    1    2    0    0 -0.62240589291E+02  0.45605030180E+02 -0.16650105073E+03  0.22209723311E+03  0.12510344251E+03 0.  0.
          5    1    3    3  502    0  0.19619904169E+01 -0.19861567581E+02  0.10332847136E+02  0.22859820714E+02  0.41800000000E+01 0. -1.
         -5    1    3    3    0  502 -0.64202579708E+02  0.65466597760E+02 -0.17683389787E+03  0.19923741240E+03  0.41800000000E+01 0. -1.
        -11    1    1    2    0    0  0.84985436512E+01 -0.32974025849E+02 -0.10900459666E+03  0.11419944710E+03  0.00000000000E+00 0.  1.
         11    1    1    2    0    0  0.53742045640E+02 -0.12631004331E+02 -0.14804830837E+02  0.57157088415E+02  0.00000000000E+00 0. -1.
</event>
<event>
 7    1  0.2873461E-009  0.9427178E+02  0.7561462E-02  0.1292825E+00
          2   -1    0    0  501    0  0.00000000000E+00  0.00000000000E+00  0.20099940975E+02  0.20099940975E+02  0.00000000000E+00 0. -1.
         -2   -1    0    0    0  501 -0.00000000000E+00 -0.00000000000E+00 -0.84707884906E+03  0.84707884906E+03  0.00000000000E+00 0.  1.
         25    2    1    2    0    0  0.60639220487E+02 -0.26692568012E+02 -0.36084234977E+03  0.38762331534E+03  0.12512004218E+03 0.  0.
          5    1    3    3  502    0  0.80905917944E+01 -0.21269267324E+02 -0.31969527299E+03  0.32053140155E+03  0.41800000000E+01 0.  1.
         -5    1    3    3    0  502  0.52548628693E+02 -0.54233006882E+01 -0.41147076781E+02  0.67091913786E+02  0.41800000000E+01 0.  1.
        -11    1    1    2    0    0 -0.33906623779E+02 -0.32809968709E+02 -0.18046731429E+03  0.18653311960E+03  0.00000000000E+00 0. -1.
         11    1    1    2    0    0 -0.26732596709E+02  0.59502536722E+02 -0.28566924403E+03  0.29302235510E+03  0.00000000000E+00 0.  1.
</event>
<event>
 7    1  0.2873461E-009  0.1250867E+03  0.7561462E-02  0.1234934E+00
         -2   -1    0    0    0  501 -0.00000000000E+00  0.00000000000E+00  0.19598362165E+03  0.19598362165E+03  0.00000000000E+00 0. -1.
          2   -1    0    0  501    0  0.00000000000E+00 -0.00000000000E+00 -0.12877508736E+03  0.12877508736E+03  0.00000000000E+00 0.  1.
         25    2    1    2    0    0 -0.11179134212E+03  0.72915233328E+01  0.55884929779E+02  0.17697769659E+03  0.12509000452E+03 0.  0.
          5    1    3    3  502    0 -0.15749205956E+02 -0.11873588030E+02  0.74518299714E+02  0.77197596939E+02  0.41800000000E+01 0.  1.
         -5    1    3    3    0  502 -0.96042136161E+02  0.19165111363E+02 -0.18633369935E+02  0.99780099654E+02  0.41800000000E+01 0.  1.
        -11    1    1    2    0    0  0.11230770263E+03  0.11766131956E+02 -0.16428785203E+02  0.11411120415E+03  0.00000000000E+00 0.  1.
         11    1    1    2    0    0 -0.51636050916E+00 -0.19057655289E+02  0.27752389721E+02  0.33669808264E+02  0.00000000000E+00 0. -1.
</event>
<event>
 7    1  0.2873461E-009  0.7520457E+02  0.7561462E-02  0.1343239E+00
         -2   -1    0    0    0  501 -0.00000000000E+00  0.00000000000E+00  0.28564675880E+03  0.28564675880E+03  0.00000000000E+00 0.  1.
          2   -1    0    0  501    0  0.00000000000E+00 -0.00000000000E+00 -0.45531256254E+02  0.45531256254E+02  0.00000000000E+00 0. -1.
         25    2    1    2    0    0  0.12924709966E+02  0.14617803101E+02  0.92597667204E+02  0.15685246171E+03  0.12509052113E+03 0.  0.
          5    1    3    3  502    0  0.39675464829E+02 -0.11341131046E+02  0.10846551533E+03  0.11612495071E+03  0.41800000000E+01 0.  1.
         -5    1    3    3    0  502 -0.26750754863E+02  0.25958934147E+02 -0.15867848122E+02  0.40727510995E+02  0.41800000000E+01 0.  1.
        -11    1    1    2    0    0 -0.48401846203E+01 -0.42304906770E+02  0.27035012602E+02  0.50438323033E+02  0.00000000000E+00 0. -1.
         11    1    1    2    0    0 -0.80845253452E+01  0.27687103670E+02  0.12048282274E+03  0.12388723032E+03  0.00000000000E+00 0.  1.
</event>
<event>
 7    1  0.2873461E-009  0.4953313E+03  0.7561462E-02  0.1015005E+00
         -2   -1    0    0    0  501 -0.00000000000E+00  0.00000000000E+00  0.23389006329E+03  0.23389006329E+03  0.00000000000E+00 0.  1.
          2   -1    0    0  501    0  0.00000000000E+00 -0.00000000000E+00 -0.11114900847E+04  0.11114900847E+04  0.00000000000E+00 0. -1.
         25    2    1    2    0    0 -0.42437688682E+03  0.24613643581E+03 -0.55394118042E+03  0.75045134480E+03  0.12508997740E+03 0.  0.
          5    1    3    3  502    0 -0.26834384253E+03  0.12009156863E+03 -0.40551212719E+03  0.50088717330E+03  0.41800000000E+01 0.  1.
         -5    1    3    3    0  502 -0.15603304429E+03  0.12604486718E+03 -0.14842905323E+03  0.24956417150E+03  0.41800000000E+01 0.  1.
        -11    1    1    2    0    0  0.34661354193E+03 -0.16586931769E+03 -0.27764800744E+03  0.47406960885E+03  0.00000000000E+00 0.  1.
         11    1    1    2    0    0  0.77763344889E+02 -0.80267118120E+02 -0.46010833581E+02  0.12085919438E+03  0.00000000000E+00 0. -1.
</event>
<event>
 7    1  0.2873461E-009  0.1123623E+03  0.7561462E-02  0.1256257E+00
         -2   -1    0    0    0  501 -0.00000000000E+00  0.00000000000E+00  0.36972984691E+03  0.36972984691E+03  0.00000000000E+00 0.  1.
          2   -1    0    0  501    0  0.00000000000E+00 -0.00000000000E+00 -0.63822101660E+02  0.63822101660E+02  0.00000000000E+00 0. -1.
         25    2    1    2    0    0  0.69720861566E+02 -0.41327699769E+02  0.26335333974E+03  0.30260840443E+03  0.12509151679E+03 0.  0.
          5    1    3    3  502    0  0.26387355419E+02 -0.77560576577E+02  0.20721199499E+03  0.22285919060E+03  0.41800000000E+01 0. -1.
         -5    1    3    3    0  502  0.43333506148E+02  0.36232876808E+02  0.56141344750E+02  0.79749213834E+02  0.41800000000E+01 0. -1.
        -11    1    1    2    0    0 -0.23828211271E+02  0.30845054804E+02 -0.26671039596E+02  0.47228650323E+02  0.00000000000E+00 0. -1.
         11    1    1    2    0    0 -0.45892650296E+02  0.10482644965E+02  0.69225445106E+02  0.83714893817E+02  0.00000000000E+00 0.  1.
</event>
<event>
 7    1  0.2873461E-009  0.1035605E+03  0.7561462E-02  0.1272982E+00
          1   -1    0    0  501    0  0.00000000000E+00  0.00000000000E+00  0.38869377517E+03  0.38869377517E+03  0.00000000000E+00 0. -1.
         -1   -1    0    0    0  501 -0.00000000000E+00 -0.00000000000E+00 -0.29479268295E+02  0.29479268295E+02  0.00000000000E+00 0.  1.
         25    2    1    2    0    0  0.86989351862E+01  0.10493364676E+02  0.21732978078E+03  0.25113171953E+03  0.12509646183E+03 0.  0.
          5    1    3    3  502    0  0.54863880853E+02  0.42163154041E+02  0.11034887028E+03  0.13031547319E+03  0.41800000000E+01 0.  1.
         -5    1    3    3    0  502 -0.46164945666E+02 -0.31669789365E+02  0.10698091051E+03  0.12081624634E+03  0.41800000000E+01 0.  1.
        -11    1    1    2    0    0  0.20397141885E+02  0.27229136739E+02  0.29704453244E+02  0.45164408854E+02  0.00000000000E+00 0.  1.
         11    1    1    2    0    0 -0.29096077071E+02 -0.37722501416E+02  0.11218027285E+03  0.12187691508E+03  0.00000000000E+00 0. -1.
</event>
<event>
 7    1  0.2873461E-009  0.8318779E+02  0.7561462E-02  0.1320241E+00
         -2   -1    0    0    0  501 -0.00000000000E+00  0.00000000000E+00  0.30186364863E+02  0.30186364863E+02  0.00000000000E+00 0. -1.
          2   -1    0    0  501    0  0.00000000000E+00 -0.00000000000E+00 -0.60950820735E+03  0.60950820735E+03  0.00000000000E+00 0.  1.
         25    2    1    2    0    0 -0.61080270526E+02 -0.50381893242E+01 -0.45175030978E+03  0.47273702788E+03  0.12508306179E+03 0.  0.
          5    1    3    3  502    0 -0.61133073659E+02 -0.20250461155E+02 -0.90558995806E+02  0.11120133989E+03  0.41800000000E+01 0.  1.
         -5    1    3    3    0  502  0.52803133104E-01  0.15212271830E+02 -0.36119131397E+03  0.36153568799E+03  0.41800000000E+01 0.  1.
        -11    1    1    2    0    0  0.30551917935E+02 -0.27743404477E+02 -0.11228025770E+03  0.11962429708E+03  0.00000000000E+00 0.  1.
         11    1    1    2    0    0  0.30528352590E+02  0.32781593801E+02 -0.15291275002E+02  0.47333247250E+02  0.00000000000E+00 0. -1.
</event>
<event>
 7    1  0.2873461E-009  0.7235508E+02  0.7561462E-02  0.1352263E+00
         -2   -1    0    0    0  501 -0.00000000000E+00  0.00000000000E+00  0.17598401385E+03  0.17598401385E+03  0.00000000000E+00 0.  1.
          2   -1    0    0  501    0  0.00000000000E+00 -0.00000000000E+00 -0.80418336539E+02  0.80418336539E+02  0.00000000000E+00 0. -1.
         25    2    1    2    0    0 -0.48802702574E+02  0.15449751892E+01  0.43439017871E+02  0.14112791581E+03  0.12508417015E+03 0.  0.
          5    1    3    3  502    0 -0.47131188331E+02  0.26416415098E+02  0.80032899866E+02  0.96653573969E+02  0.41800000000E+01 0. -1.
         -5    1    3    3    0  502 -0.16715142436E+01 -0.24871439909E+02 -0.36593881994E+02  0.44474341844E+02  0.41800000000E+01 0. -1.
        -11    1    1    2    0    0  0.24546119475E+01 -0.16392708557E+02 -0.21419225057E+02  0.27083744492E+02  0.00000000000E+00 0. -1.
         11    1    1    2    0    0  0.46348090627E+02  0.14847733368E+02  0.73545884494E+02  0.88190690081E+02  0.00000000000E+00 0.  1.
</event>
<event>
 7    1  0.2873461E-009  0.1421524E+03  0.7561462E-02  0.1210462E+00
          2   -1    0    0  501    0  0.00000000000E+00  0.00000000000E+00  0.60724399954E+03  0.60724399954E+03  0.00000000000E+00 0. -1.
         -2   -1    0    0    0  501 -0.00000000000E+00 -0.00000000000E+00 -0.38830572386E+02  0.38830572386E+02  0.00000000000E+00 0.  1.
         25    2    1    2    0    0  0.97298629872E+02  0.44374565328E+02  0.33066654800E+03  0.36935597305E+03  0.12508934182E+03 0.  0.
          5    1    3    3  502    0 -0.14604164310E+02 -0.10736913138E+02  0.14155671065E+03  0.14277372885E+03  0.41800000000E+01 0.  1.
         -5    1    3    3    0  502  0.11190279418E+03  0.55111478467E+02  0.18910983735E+03  0.22658224420E+03  0.41800000000E+01 0.  1.
        -11    1    1    2    0    0 -0.10137279428E+03 -0.51967385200E+01  0.18312562215E+03  0.20937631910E+03  0.00000000000E+00 0. -1.
         11    1    1    2    0    0  0.40741644081E+01 -0.39177826808E+02  0.54621257004E+02  0.67342279778E+02  0.00000000000E+00 0.  1.
</event>
<event>
 7    1  0.2873461E-009  0.1124417E+03  0.7561462E-02  0.1256114E+00
         -1   -1    0    0    0  501 -0.00000000000E+00  0.00000000000E+00  0.27800320328E+03  0.27800320328E+03  0.00000000000E+00 0.  1.
          1   -1    0    0  501    0  0.00000000000E+00 -0.00000000000E+00 -0.98823595151E+02  0.98823595151E+02  0.00000000000E+00 0. -1.
         25    2    1    2    0    0 -0.53390793827E+02 -0.90638909746E+02  0.17228578646E+03  0.23747824555E+03  0.12509011179E+03 0.  0.
          5    1    3    3  502    0 -0.10662141832E+02 -0.12768019429E+02  0.14275418865E+03  0.14378085535E+03  0.41800000000E+01 0.  1.
         -5    1    3    3    0  502 -0.42728651994E+02 -0.77870890317E+02  0.29531597805E+02  0.93697390193E+02  0.41800000000E+01 0.  1.
        -11    1    1    2    0    0  0.39701697452E+02  0.15800948692E+02  0.37973585132E+02  0.57165443477E+02  0.00000000000E+00 0.  1.
         11    1    1    2    0    0  0.13689096374E+02  0.74837961054E+02 -0.31079763463E+02  0.82183109403E+02  0.00000000000E+00 0. -1.
</event>
<event>
 7    1  0.2873461E-009  0.1258216E+03  0.7561462E-02  0.1233791E+00
         -2   -1    0    0    0  501 -0.00000000000E+00  0.00000000000E+00  0.73546311935E+02  0.73546311935E+02  0.00000000000E+00 0. -1.
          2   -1    0    0  501    0  0.00000000000E+00 -0.00000000000E+00 -0.29217158531E+03  0.29217158531E+03  0.00000000000E+00 0.  1.
         25    2    1    2    0    0 -0.90852978336E+02 -0.23565239887E+02 -0.15480000688E+03  0.22004560386E+03  0.12508973358E+03 0.  0.
          5    1    3    3  502    0 -0.38786049572E+02  0.45405524062E+02 -0.10320933705E+03  0.11931328053E+03  0.41800000000E+01 0. -1.
         -5    1    3    3    0  502 -0.52066928764E+02 -0.68970763949E+02 -0.51590669830E+02  0.10073232333E+03  0.41800000000E+01 0. -1.
        -11    1    1    2    0    0  0.34600519240E+01  0.17303050503E+02  0.18415288422E+02  0.25504712578E+02  0.00000000000E+00 0. -1.
         11    1    1    2    0    0  0.87392926412E+02  0.62621893843E+01 -0.82240554917E+02  0.12016758080E+03  0.00000000000E+00 0.  1.
</event>
<event>
 7    1  0.2873461E-009  0.1972395E+03  0.7561462E-02  0.1152089E+00
         -2   -1    0    0    0  501 -0.00000000000E+00  0.00000000000E+00  0.33824474463E+02  0.33824474463E+02  0.00000000000E+00 0.  1.
          2   -1    0    0  501    0  0.00000000000E+00 -0.00000000000E+00 -0.16629694827E+04  0.16629694827E+04  0.00000000000E+00 0. -1.
         25    2    1    2    0    0 -0.16612236937E+03 -0.13282157324E+02 -0.13013204157E+04  0.13178978874E+04  0.12508780945E+03 0.  0.
          5    1    3    3  502    0 -0.27448299929E+01 -0.41340453103E+02 -0.31401764602E+03  0.31676666738E+03  0.41800000000E+01 0. -1.
         -5    1    3    3    0  502 -0.16337753938E+03  0.28058295779E+02 -0.98730276970E+03  0.10011312201E+04  0.41800000000E+01 0. -1.
        -11    1    1    2    0    0  0.61963619832E+00  0.21308937712E+02 -0.62967759449E+02  0.66478519128E+02  0.00000000000E+00 0. -1.
         11    1    1    2    0    0  0.16550273317E+03 -0.80267803877E+01 -0.26485683309E+03  0.31241755060E+03  0.00000000000E+00 0.  1.
</event>
<event>
 7    1  0.2873461E-009  0.2697387E+03  0.7561462E-02  0.1101429E+00
          2   -1    0    0  501    0  0.00000000000E+00  0.00000000000E+00  0.27933274520E+03  0.27933274520E+03  0.00000000000E+00 0.  1.
         -2   -1    0    0    0  501 -0.00000000000E+00 -0.00000000000E+00 -0.30877419832E+03  0.30877419832E+03  0.00000000000E+00 0. -1.
         25    2    1    2    0    0  0.25397854304E+03 -0.57691192808E+02  0.65198697314E+02  0.29619287556E+03  0.12508387326E+03 0.  0.
          5    1    3    3  502    0  0.55717942052E+02 -0.30057635079E+02 -0.34827780353E+02  0.72376772361E+02  0.41800000000E+01 0.  1.
         -5    1    3    3    0  502  0.19826060099E+03 -0.27633557729E+02  0.10002647767E+03  0.22381610320E+03  0.41800000000E+01 0.  1.
        -11    1    1    2    0    0 -0.16257092574E+03  0.80776328020E+02 -0.55419861754E+02  0.18980379907E+03  0.00000000000E+00 0.  1.
         11    1    1    2    0    0 -0.91407617305E+02 -0.23085135212E+02 -0.39220288674E+02  0.10211026889E+03  0.00000000000E+00 0. -1.
</event>
<event>
 7    1  0.2873461E-009  0.1025893E+03  0.7561462E-02  0.1274943E+00
          3   -1    0    0  501    0  0.00000000000E+00  0.00000000000E+00  0.36341999940E+03  0.36341999940E+03  0.00000000000E+00 0. -1.
         -3   -1    0    0    0  501 -0.00000000000E+00 -0.00000000000E+00 -0.43052327071E+02  0.43052327071E+02  0.00000000000E+00 0.  1.
         25    2    1    2    0    0 -0.25718063003E+02  0.49664962898E+02  0.11431812270E+03  0.17845347019E+03  0.12509588539E+03 0.  0.
          5    1    3    3  502    0  0.24832551812E+02  0.53223258796E+02  0.11319541356E+03  0.12759327943E+03  0.41800000000E+01 0.  1.
         -5    1    3    3    0  502 -0.50550614814E+02 -0.35582958973E+01  0.11227091428E+01  0.50860190755E+02  0.41800000000E+01 0.  1.
        -11    1    1    2    0    0 -0.25974244222E+02 -0.31113840915E+02  0.64371853996E+02  0.76068837551E+02  0.00000000000E+00 0.  1.
         11    1    1    2    0    0  0.51692307225E+02 -0.18551121983E+02  0.14167769563E+03  0.15195001873E+03  0.00000000000E+00 0. -1.
</event>
<event>
 7    1  0.2873461E-009  0.9309907E+02  0.7561462E-02  0.1295516E+00
         -1   -1    0    0    0  501 -0.00000000000E+00  0.00000000000E+00  0.12686327219E+03  0.12686327219E+03  0.00000000000E+00 0.  1.
          1   -1    0    0  501    0  0.00000000000E+00 -0.00000000000E+00 -0.12983615457E+03  0.12983615457E+03  0.00000000000E+00 0. -1.
         25    2    1    2    0    0  0.51285996199E+02  0.46521496906E+02 -0.24999817627E+02  0.14514464144E+03  0.12508985960E+03 0.  0.
          5    1    3    3  502    0  0.77800505921E+02  0.33724122469E+02 -0.56379366267E+02  0.10191339705E+03  0.41800000000E+01 0.  1.
         -5    1    3    3    0  502 -0.26514509722E+02  0.12797374436E+02  0.31379548640E+02  0.43231244385E+02  0.41800000000E+01 0.  1.
        -11    1    1    2    0    0 -0.26425998646E+02 -0.12002111007E+02  0.51975768607E+02  0.59530367001E+02  0.00000000000E+00 0.  1.
         11    1    1    2    0    0 -0.24859997553E+02 -0.34519385898E+02 -0.29948833361E+02  0.52024418313E+02  0.00000000000E+00 0. -1.
</event>
<event>
 7    1  0.2873461E-009  0.9841087E+02  0.7561462E-02  0.1283674E+00
          1   -1    0    0  501    0  0.00000000000E+00  0.00000000000E+00  0.80980125665E+02  0.80980125665E+02  0.00000000000E+00 0. -1.
         -1   -1    0    0    0  501 -0.00000000000E+00 -0.00000000000E+00 -0.17116548157E+03  0.17116548157E+03  0.00000000000E+00 0.  1.
         25    2    1    2    0    0  0.46779576262E+02 -0.13236123640E+02 -0.54488694349E+02  0.14487649671E+03  0.12512656697E+03 0.  0.
          5    1    3    3  502    0  0.43428502133E+02 -0.62405687120E+02 -0.57361336621E+02  0.95332575342E+02  0.41800000000E+01 0. -1.
         -5    1    3    3    0  502  0.33510741286E+01  0.49169563480E+02  0.28726422714E+01  0.49543921365E+02  0.41800000000E+01 0. -1.
        -11    1    1    2    0    0 -0.24416638433E+02 -0.19722742495E+02 -0.54756232001E+02  0.63114211924E+02  0.00000000000E+00 0.  1.
         11    1    1    2    0    0 -0.22362937829E+02  0.32958866135E+02  0.19059570444E+02  0.44154898604E+02  0.00000000000E+00 0. -1.
</event>
<event>
 7    1  0.2873461E-009  0.7371178E+02  0.7561462E-02  0.1347907E+00
          1   -1    0    0  501    0  0.00000000000E+00  0.00000000000E+00  0.55108981768E+03  0.55108981768E+03  0.00000000000E+00 0. -1.
         -1   -1    0    0    0  501 -0.00000000000E+00 -0.00000000000E+00 -0.25460958647E+02  0.25460958647E+02  0.00000000000E+00 0.  1.
         25    2    1    2    0    0 -0.40626589487E+02  0.14458113522E+02  0.24233329566E+03  0.27610304556E+03  0.12509160148E+03 0.  0.
          5    1    3    3  502    0 -0.28054478475E+02  0.78696246607E+00 -0.43322767090E+01  0.28703903809E+02  0.41800000000E+01 0. -1.
         -5    1    3    3    0  502 -0.12572111012E+02  0.13671151056E+02  0.24666557237E+03  0.24739914175E+03  0.41800000000E+01 0. -1.
        -11    1    1    2    0    0  0.56453184799E+02 -0.40540887563E+02  0.19238303915E+03  0.20455258344E+03  0.00000000000E+00 0. -1.
         11    1    1    2    0    0 -0.15826595312E+02  0.26082774041E+02  0.90912524223E+02  0.95895147330E+02  0.00000000000E+00 0.  1.
</event>
<event>
 7    1  0.2873461E-009  0.9522190E+02  0.7561462E-02  0.1290677E+00
         -1   -1    0    0    0  501 -0.00000000000E+00  0.00000000000E+00  0.64853643759E+02  0.64853643759E+02  0.00000000000E+00 0.  1.
          1   -1    0    0  501    0  0.00000000000E+00 -0.00000000000E+00 -0.21550331385E+03  0.21550331385E+03  0.00000000000E+00 0. -1.
         25    2    1    2    0    0  0.22813121640E+02  0.20572861744E+02 -0.70633887103E+02  0.14690006201E+03  0.12508717381E+03 0.  0.
          5    1    3    3  502    0  0.36052545796E+02  0.46637651802E+02 -0.92769512753E+02  0.10999323398E+03  0.41800000000E+01 0. -1.
         -5    1    3    3    0  502 -0.13239424156E+02 -0.26064790058E+02  0.22135625650E+02  0.36906828036E+02  0.41800000000E+01 0. -1.
        -11    1    1    2    0    0 -0.12406300726E+02  0.39214259491E+02 -0.52848189350E+02  0.66967197662E+02  0.00000000000E+00 0. -1.
         11    1    1    2    0    0 -0.10406820914E+02 -0.59787121235E+02 -0.27167593636E+02  0.66489697932E+02  0.00000000000E+00 0.  1.
</event>
<event>
 7    1  0.2873461E-009  0.1042366E+03  0.7561462E-02  0.1271631E+00
          1   -1    0    0  501    0  0.00000000000E+00  0.00000000000E+00  0.28915530903E+03  0.28915530903E+03  0.00000000000E+00 0. -1.
         -1   -1    0    0    0  501 -0.00000000000E+00 -0.00000000000E+00 -0.51004650144E+02  0.51004650144E+02  0.00000000000E+00 0.  1.
         25    2    1    2    0    0 -0.29963400724E+02 -0.10202797671E+02  0.77491300827E+02  0.15051470041E+03  0.12509145004E+03 0.  0.
          5    1    3    3  502    0  0.27304748472E+02  0.41913830758E+02  0.20237025528E+02  0.54123267641E+02  0.41800000000E+01 0. -1.
         -5    1    3    3    0  502 -0.57268149196E+02 -0.52116628429E+02  0.57254275299E+02  0.96391432768E+02  0.41800000000E+01 0. -1.
        -11    1    1    2    0    0 -0.13277396254E+02 -0.22765924456E+02  0.79253538906E+01  0.27520679532E+02  0.00000000000E+00 0.  1.
         11    1    1    2    0    0  0.43240796978E+02  0.32968722127E+02  0.15273400416E+03  0.16212457923E+03  0.00000000000E+00 0. -1.
</event>
<event>
 7    1  0.2873461E-009  0.1033881E+03  0.7561462E-02  0.1273328E+00
         -3   -1    0    0    0  501 -0.00000000000E+00  0.00000000000E+00  0.15760979750E+03  0.15760979750E+03  0.00000000000E+00 0.  1.
          3   -1    0    0  501    0  0.00000000000E+00 -0.00000000000E+00 -0.83669520575E+02  0.83669520575E+02  0.00000000000E+00 0. -1.
         25    2    1    2    0    0  0.22858715790E+02 -0.87053466578E+01  0.23641198988E+02  0.12963592606E+03  0.12509301774E+03 0.  0.
          5    1    3    3  502    0 -0.44125423499E+02  0.26529530277E+02  0.10127246462E+02  0.52639362616E+02  0.41800000000E+01 0.  1.
         -5    1    3    3    0  502  0.66984139289E+02 -0.35234876935E+02  0.13513952526E+02  0.76996563441E+02  0.41800000000E+01 0.  1.
        -11    1    1    2    0    0 -0.45289590657E+02  0.24871440398E+02  0.62779283966E+02  0.81307896693E+02  0.00000000000E+00 0.  1.
         11    1    1    2    0    0  0.22430874866E+02 -0.16166093741E+02 -0.12480206029E+02  0.30335495325E+02  0.00000000000E+00 0. -1.
</event>
<event>
 7    1  0.2873461E-009  0.2102133E+03  0.7561462E-02  0.1141397E+00
         -2   -1    0    0    0  501 -0.00000000000E+00  0.00000000000E+00  0.10642009190E+03  0.10642009190E+03  0.00000000000E+00 0.  1.
          2   -1    0    0  501    0  0.00000000000E+00 -0.00000000000E+00 -0.72846646662E+03  0.72846646662E+03  0.00000000000E+00 0. -1.
         25    2    1    2    0    0  0.15819546893E+03  0.12202155221E+03 -0.78480179324E+02  0.24843806139E+03  0.12508903311E+03 0.  0.
          5    1    3    3  502    0  0.49355821154E+02  0.25183194522E+02 -0.86124199545E+02  0.10249409991E+03  0.41800000000E+01 0. -1.
         -5    1    3    3    0  502  0.10883964778E+03  0.96838357690E+02  0.76440202212E+01  0.14594396148E+03  0.41800000000E+01 0. -1.
        -11    1    1    2    0    0 -0.69412716723E+00 -0.42813749881E+02 -0.13010926728E+03  0.13697415970E+03  0.00000000000E+00 0.  1.
         11    1    1    2    0    0 -0.15750134176E+03 -0.79207802330E+02 -0.41345692811E+03  0.44947433743E+03  0.00000000000E+00 0. -1.
</event>
<event>
 7    1  0.2873461E-009  0.1949462E+03  0.7561462E-02  0.1154074E+00
         -2   -1    0    0    0  501 -0.00000000000E+00  0.00000000000E+00  0.65891864226E+02  0.65891864226E+02  0.00000000000E+00 0.  1.
          2   -1    0    0  501    0  0.00000000000E+00 -0.00000000000E+00 -0.69438518421E+03  0.69438518421E+03  0.00000000000E+00 0. -1.
         25    2    1    2    0    0  0.17492327497E+03  0.12641837945E+02 -0.22688902386E+03  0.31286339787E+03  0.12508760285E+03 0.  0.
          5    1    3    3  502    0 -0.14974509244E+02  0.80673133287E+01 -0.79099768368E+00  0.17533269769E+02  0.41800000000E+01 0.  1.
         -5    1    3    3    0  502  0.18989778421E+03  0.45745246166E+01 -0.22609802618E+03  0.29533012810E+03  0.41800000000E+01 0.  1.
        -11    1    1    2    0    0 -0.12738652804E+03  0.13546816763E+02 -0.19139036138E+03  0.23030656569E+03  0.00000000000E+00 0.  1.
         11    1    1    2    0    0 -0.47536746928E+02 -0.26188654709E+02 -0.21021393474E+03  0.21710708488E+03  0.00000000000E+00 0. -1.
</event>
<event>
 7    1  0.2873461E-009  0.9879550E+02  0.7561462E-02  0.1282849E+00
          2   -1    0    0  501    0  0.00000000000E+00  0.00000000000E+00  0.73543791855E+03  0.73543791855E+03  0.00000000000E+00 0. -1.
         -2   -1    0    0    0  501 -0.00000000000E+00 -0.00000000000E+00 -0.16598575723E+02  0.16598575723E+02  0.00000000000E+00 0.  1.
         25    2    1    2    0    0  0.90566826334E+01  0.68104884859E+00  0.47650373744E+03  0.49273207365E+03  0.12508635928E+03 0.  0.
          5    1    3    3  502    0 -0.55412184794E+02  0.31289769267E+01  0.29127556197E+03  0.29654548744E+03  0.41800000000E+01 0.  1.
         -5    1    3    3    0  502  0.64468867428E+02 -0.24479280781E+01  0.18522817547E+03  0.19618658621E+03  0.41800000000E+01 0.  1.
        -11    1    1    2    0    0  0.25105091940E+02 -0.24937178048E+02  0.18464522288E+03  0.18800528403E+03  0.00000000000E+00 0.  1.
         11    1    1    2    0    0 -0.34161774573E+02  0.24256129200E+02  0.57690382509E+02  0.71299136599E+02  0.00000000000E+00 0. -1.
</event>
<event>
 7    1  0.2873461E-009  0.1400677E+03  0.7561462E-02  0.1213238E+00
          2   -1    0    0  501    0  0.00000000000E+00  0.00000000000E+00  0.53681540994E+03  0.53681540994E+03  0.00000000000E+00 0. -1.
         -2   -1    0    0    0  501 -0.00000000000E+00 -0.00000000000E+00 -0.41117113556E+02  0.41117113556E+02  0.00000000000E+00 0.  1.
         25    2    1    2    0    0 -0.26208909364E+02  0.37158383411E+00  0.21930913183E+03  0.25383308962E+03  0.12509075537E+03 0.  0.
          5    1    3    3  502    0  0.22831605348E+02  0.51244125155E+02  0.11105804338E+03  0.12449338924E+03  0.41800000000E+01 0. -1.
         -5    1    3    3    0  502 -0.49040514712E+02 -0.50872541321E+02  0.10825108845E+03  0.12933970038E+03  0.41800000000E+01 0. -1.
        -11    1    1    2    0    0 -0.16587788849E+02 -0.69685987775E+02  0.19993381799E+03  0.21237896131E+03  0.00000000000E+00 0. -1.
         11    1    1    2    0    0  0.42796698213E+02  0.69314403941E+02  0.76455346563E+02  0.11172047256E+03  0.00000000000E+00 0.  1.
</event>
<event>
 7    1  0.2873461E-009  0.1326560E+03  0.7561462E-02  0.1223567E+00
         -2   -1    0    0    0  501 -0.00000000000E+00  0.00000000000E+00  0.82603352372E+02  0.82603352372E+02  0.00000000000E+00 0.  1.
          2   -1    0    0  501    0  0.00000000000E+00 -0.00000000000E+00 -0.24130397923E+03  0.24130397923E+03  0.00000000000E+00 0. -1.
         25    2    1    2    0    0 -0.83298314644E+02  0.14839018157E+02 -0.12181237464E+03  0.19402069070E+03  0.12508784161E+03 0.  0.
          5    1    3    3  502    0  0.14214521752E+02  0.45601013850E+02 -0.47982192314E+02  0.67832649013E+02  0.41800000000E+01 0.  1.
         -5    1    3    3    0  502 -0.97512836397E+02 -0.30761995694E+02 -0.73830182328E+02  0.12618804168E+03  0.41800000000E+01 0.  1.
        -11    1    1    2    0    0  0.36136527782E+02 -0.46004383236E+02 -0.43600509531E+02  0.72960649315E+02  0.00000000000E+00 0.  1.
         11    1    1    2    0    0  0.47161786862E+02  0.31165365079E+02  0.67122573138E+01  0.56925991593E+02  0.00000000000E+00 0. -1.
</event>
<event>
 7    1  0.2873461E-009  0.1048579E+03  0.7561462E-02  0.1270400E+00
         -1   -1    0    0    0  501 -0.00000000000E+00  0.00000000000E+00  0.17932968312E+02  0.17932968312E+02  0.00000000000E+00 0.  1.
          1   -1    0    0  501    0  0.00000000000E+00 -0.00000000000E+00 -0.14962609267E+04  0.14962609267E+04  0.00000000000E+00 0. -1.
         25    2    1    2    0    0  0.37687628163E+02 -0.40082222138E+02 -0.12890421702E+04  0.12962653207E+04  0.12508846078E+03 0.  0.
          5    1    3    3  502    0 -0.20134046104E+02 -0.68082297953E+02 -0.59213303925E+03  0.59638878903E+03  0.41800000000E+01 0. -1.
         -5    1    3    3    0  502  0.57821674267E+02  0.28000075815E+02 -0.69690913100E+03  0.69987653163E+03  0.41800000000E+01 0. -1.
        -11    1    1    2    0    0 -0.44121994260E+02  0.12451223360E+02 -0.27049156652E+02  0.53230068722E+02  0.00000000000E+00 0.  1.
         11    1    1    2    0    0  0.64343660964E+01  0.27630998779E+02 -0.16223663153E+03  0.16469850567E+03  0.00000000000E+00 0. -1.
</event>
<event>
 7    1  0.2873461E-009  0.6584376E+02  0.7561462E-02  0.1374825E+00
          3   -1    0    0  501    0  0.00000000000E+00  0.00000000000E+00  0.56421015965E+02  0.56421015965E+02  0.00000000000E+00 0. -1.
         -3   -1    0    0    0  501 -0.00000000000E+00 -0.00000000000E+00 -0.26787335704E+03  0.26787335704E+03  0.00000000000E+00 0.  1.
         25    2    1    2    0    0  0.32556033764E+01  0.45969167571E+02 -0.76044020415E+02  0.15347225776E+03  0.12508907842E+03 0.  0.
          5    1    3    3  502    0 -0.91419064831E+01  0.54104708376E+02 -0.10619866947E+03  0.11960988137E+03  0.41800000000E+01 0.  1.
         -5    1    3    3    0  502  0.12397509859E+02 -0.81355408049E+01  0.30154649060E+02  0.33862376391E+02  0.41800000000E+01 0.  1.
        -11    1    1    2    0    0  0.18451538362E+02 -0.17324444700E+02 -0.13235375271E+03  0.13475203712E+03  0.00000000000E+00 0.  1.
         11    1    1    2    0    0 -0.21707141739E+02 -0.28644722872E+02 -0.30545679557E+01  0.36070078129E+02  0.00000000000E+00 0. -1.
</event>
<event>
 7    1  0.2873461E-009  0.1151605E+03  0.7561462E-02  0.1251301E+00
         -2   -1    0    0    0  501 -0.00000000000E+00  0.00000000000E+00  0.32838771447E+03  0.32838771447E+03  0.00000000000E+00 0.  1.
          2   -1    0    0  501    0  0.00000000000E+00 -0.00000000000E+00 -0.70298260849E+02  0.70298260849E+02  0.00000000000E+00 0. -1.
         25    2    1    2    0    0 -0.11672157872E+02  0.10464002274E+03  0.12359941581E+03  0.20495948840E+03  0.12508318299E+03 0.  0.
          5    1    3    3  502    0 -0.41088008183E+01  0.36218663394E+01  0.10080679203E+03  0.10104198077E+03  0.41800000000E+01 0.  1.
         -5    1    3    3    0  502 -0.75633570540E+01  0.10101815640E+03  0.22792623785E+02  0.10391750762E+03  0.41800000000E+01 0.  1.
        -11    1    1    2    0    0  0.37102434365E+02 -0.56365258807E+02  0.11934277929E+03  0.13709971555E+03  0.00000000000E+00 0.  1.
         11    1    1    2    0    0 -0.25430276493E+02 -0.48274763929E+02  0.15147258519E+02  0.56626771368E+02  0.00000000000E+00 0. -1.
</event>
<event>
 7    1  0.2873461E-009  0.7146353E+02  0.7561462E-02  0.1355186E+00
          2   -1    0    0  501    0  0.00000000000E+00  0.00000000000E+00  0.20924559156E+02  0.20924559156E+02  0.00000000000E+00 0. -1.
         -2   -1    0    0    0  501 -0.00000000000E+00 -0.00000000000E+00 -0.80502935288E+03  0.80502935288E+03  0.00000000000E+00 0.  1.
         25    2    1    2    0    0 -0.43081434634E+01 -0.55821124661E+01 -0.64442341229E+03  0.65648756058E+03  0.12507862652E+03 0.  0.
          5    1    3    3  502    0  0.21750252190E+02 -0.30425838059E+02 -0.59241798215E+02  0.70184529262E+02  0.41800000000E+01 0. -1.
         -5    1    3    3    0  502 -0.26058395654E+02  0.24843725593E+02 -0.58518161408E+03  0.58630303132E+03  0.41800000000E+01 0. -1.
        -11    1    1    2    0    0  0.23001349449E+02  0.30310254362E+02 -0.13221501401E+03  0.13758118885E+03  0.00000000000E+00 0.  1.
         11    1    1    2    0    0 -0.18693205986E+02 -0.24728141896E+02 -0.74663674238E+01  0.31885162602E+02  0.00000000000E+00 0. -1.
</event>
<event>
 7    1  0.2873461E-009  0.1279573E+03  0.7561462E-02  0.1230519E+00
          1   -1    0    0  501    0  0.00000000000E+00  0.00000000000E+00  0.28207885534E+03  0.28207885534E+03  0.00000000000E+00 0. -1.
         -1   -1    0    0    0  501 -0.00000000000E+00 -0.00000000000E+00 -0.10071198266E+03  0.10071198266E+03  0.00000000000E+00 0.  1.
         25    2    1    2    0    0 -0.88758812627E+01 -0.89775863411E+02  0.20474898594E+03  0.25633542341E+03  0.12508882896E+03 0.  0.
          5    1    3    3  502    0  0.49950658750E+02 -0.21952028930E+02  0.12389271163E+03  0.13543941922E+03  0.41800000000E+01 0. -1.
         -5    1    3    3    0  502 -0.58826540013E+02 -0.67823834481E+02  0.80856274315E+02  0.12089600419E+03  0.41800000000E+01 0. -1.
        -11    1    1    2    0    0 -0.74410073773E+01 -0.87276126578E+01 -0.24008940649E+02  0.26607687697E+02  0.00000000000E+00 0.  1.
         11    1    1    2    0    0  0.16316888640E+02  0.98503476069E+02  0.62682738406E+00  0.99847726890E+02  0.00000000000E+00 0. -1.
</event>
<event>
 7    1  0.3426131E-009  0.5902865E+02  0.7561462E-02  0.1401954E+00
          1   -1    0    0  501    0  0.00000000000E+00  0.00000000000E+00  0.66042827787E+02  0.66042827787E+02  0.00000000000E+00 0. -1.
         -1   -1    0    0    0  501 -0.00000000000E+00 -0.00000000000E+00 -0.22490868028E+03  0.22490868028E+03  0.00000000000E+00 0.  1.
         25    2    1    2    0    0  0.45289443065E+02 -0.17477370371E+02 -0.56085854924E+02  0.14542807061E+03  0.12508840262E+03 0.  0.
          5    1    3    3  502    0  0.13461032467E+02 -0.20468518771E+02  0.38317396731E+02  0.45671161010E+02  0.41800000000E+01 0.  1.
         -5    1    3    3    0  502  0.31828410597E+02  0.29911484000E+01 -0.94403251655E+02  0.99756909600E+02  0.41800000000E+01 0.  1.
        -11    1    1    2    0    0 -0.65548282514E+01  0.21067534914E+02 -0.10428522229E+03  0.10659368832E+03  0.00000000000E+00 0.  1.
         11    1    1    2    0    0 -0.38734614813E+02 -0.35901645432E+01  0.15052247271E+01  0.38929749134E+02  0.00000000000E+00 0. -1.
</event>
<event>
 7    1  0.2873461E-009  0.1138123E+03  0.7561462E-02  0.1253669E+00
          1   -1    0    0  501    0  0.00000000000E+00  0.00000000000E+00  0.25524321853E+03  0.25524321853E+03  0.00000000000E+00 0. -1.
         -1   -1    0    0    0  501 -0.00000000000E+00 -0.00000000000E+00 -0.52013969016E+02  0.52013969016E+02  0.00000000000E+00 0.  1.
         25    2    1    2    0    0  0.17811274489E+02  0.34389124533E+02  0.10941641205E+03  0.17063925668E+03  0.12508377716E+03 0.  0.
          5    1    3    3  502    0  0.45528621615E+02 -0.33352581848E+02  0.58408349682E+02  0.81328087489E+02  0.41800000000E+01 0. -1.
         -5    1    3    3    0  502 -0.27717347126E+02  0.67741706381E+02  0.51008062369E+02  0.89311169188E+02  0.41800000000E+01 0. -1.
        -11    1    1    2    0    0  0.36826657859E+02 -0.13379163423E+02  0.49873578622E+02  0.63423801427E+02  0.00000000000E+00 0.  1.
         11    1    1    2    0    0 -0.54637932348E+02 -0.21009961110E+02  0.43939258842E+02  0.73194129441E+02  0.00000000000E+00 0. -1.
</event>
<event>
 7    1  0.2873461E-009  0.1375280E+03  0.7561462E-02  0.1216695E+00
          1   -1    0    0  501    0  0.00000000000E+00  0.00000000000E+00  0.13723789242E+04  0.13723789242E+04  0.00000000000E+00 0. -1.
         -1   -1    0    0    0  501 -0.00000000000E+00 -0.00000000000E+00 -0.28171949204E+02  0.28171949204E+02  0.00000000000E+00 0.  1.
         25    2    1    2    0    0 -0.68300526349E+02  0.94267621614E+02  0.11127879008E+04  0.11258307097E+04  0.12508608457E+03 0.  0.
          5    1    3    3  502    0 -0.79224133352E+02  0.74430332475E+02  0.46195772476E+03  0.47459324644E+03  0.41800000000E+01 0.  1.
         -5    1    3    3    0  502  0.10923607003E+02  0.19837289139E+02  0.65083017599E+03  0.65123746330E+03  0.41800000000E+01 0.  1.
        -11    1    1    2    0    0  0.87791686136E+02 -0.82520702119E+02  0.21567340208E+03  0.24704668141E+03  0.00000000000E+00 0. -1.
         11    1    1    2    0    0 -0.19491159787E+02 -0.11746919495E+02  0.15745672150E+02  0.27673482233E+02  0.00000000000E+00 0.  1.
</event>
<event>
 7    1  0.3910526E-009  0.1051124E+03  0.7561462E-02  0.1269898E+00
         -2   -1    0    0    0  501 -0.00000000000E+00  0.00000000000E+00  0.19052622767E+02  0.19052622767E+02  0.00000000000E+00 0.  1.
          2   -1    0    0  501    0  0.00000000000E+00 -0.00000000000E+00 -0.12228614378E+04  0.12228614378E+04  0.00000000000E+00 0. -1.
         25    2    1    2    0    0  0.78552733067E+02  0.56499666759E+02 -0.83533229354E+03  0.85017021686E+03  0.12508642130E+03 0.  0.
          5    1    3    3  502    0  0.22896481035E+01 -0.10310782018E+02 -0.31002087840E+01  0.11774481252E+02  0.41800000000E+01 0. -1.
         -5    1    3    3    0  502  0.76263084963E+02  0.66810448776E+02 -0.83223208475E+03  0.83839573561E+03  0.41800000000E+01 0. -1.
        -11    1    1    2    0    0 -0.56401781703E+02 -0.46449457193E+02 -0.35779189818E+03  0.36517633474E+03  0.00000000000E+00 0. -1.
         11    1    1    2    0    0 -0.22150951363E+02 -0.10050209565E+02 -0.10684623363E+02  0.26567509010E+02  0.00000000000E+00 0.  1.
</event>
<event>
 7    1  0.2873461E-009  0.2532824E+03  0.7561462E-02  0.1111248E+00
          2   -1    0    0  501    0  0.00000000000E+00  0.00000000000E+00  0.33991041689E+03  0.33991041689E+03  0.00000000000E+00 0. -1.
         -2   -1    0    0    0  501 -0.00000000000E+00 -0.00000000000E+00 -0.20804799010E+03  0.20804799010E+03  0.00000000000E+00 0.  1.
         25    2    1    2    0    0  0.16851237274E+03 -0.17266987134E+03  0.91744288096E+02  0.28683893073E+03  0.12509297961E+03 0.  0.
          5    1    3    3  502    0  0.48098791555E+02  0.90047806060E+00 -0.14394210211E+02  0.50388196013E+02  0.41800000000E+01 0. -1.
         -5    1    3    3    0  502  0.12041358118E+03 -0.17357034940E+03  0.10613849831E+03  0.23645073472E+03  0.41800000000E+01 0. -1.
        -11    1    1    2    0    0 -0.12599547747E+03  0.15783088376E+03  0.61719252272E+02  0.21117460622E+03  0.00000000000E+00 0.  1.
         11    1    1    2    0    0 -0.42516895267E+02  0.14838987586E+02 -0.21601113579E+02  0.49944870043E+02  0.00000000000E+00 0. -1.
</event>
<event>
 7    1  0.2873461E-009  0.9349227E+02  0.7561462E-02  0.1294608E+00
         -2   -1    0    0    0  501 -0.00000000000E+00  0.00000000000E+00  0.27880248573E+03  0.27880248573E+03  0.00000000000E+00 0.  1.
          2   -1    0    0  501    0  0.00000000000E+00 -0.00000000000E+00 -0.54419472378E+02  0.54419472378E+02  0.00000000000E+00 0. -1.
         25    2    1    2    0    0  0.10155527309E+02  0.54332509393E+02  0.15054625882E+03  0.20338698187E+03  0.12508769740E+03 0.  0.
          5    1    3    3  502    0  0.19954871253E+02 -0.43237411745E+01 -0.16140170817E+02  0.26360370606E+02  0.41800000000E+01 0. -1.
         -5    1    3    3    0  502 -0.97993439436E+01  0.58656250568E+02  0.16668642964E+03  0.17702661127E+03  0.41800000000E+01 0. -1.
        -11    1    1    2    0    0 -0.14233106978E+02  0.24099829091E+02  0.15437952543E+02  0.31964253084E+02  0.00000000000E+00 0.  1.
         11    1    1    2    0    0  0.40775796690E+01 -0.78432338484E+02  0.58398801991E+02  0.97870723151E+02  0.00000000000E+00 0. -1.
</event>
<event>
 7    1  0.2873461E-009  0.4596350E+02  0.7561462E-02  0.1468415E+00
         -4   -1    0    0    0  501 -0.00000000000E+00  0.00000000000E+00  0.21844238754E+03  0.21844238754E+03  0.00000000000E+00 0.  1.
          4   -1    0    0  501    0  0.00000000000E+00 -0.00000000000E+00 -0.59402529276E+02  0.59402529276E+02  0.00000000000E+00 0. -1.
         25    2    1    2    0    0 -0.16764882694E+01 -0.84993059618E+01  0.54763221991E+02  0.13682584664E+03  0.12508898038E+03 0.  0.
          5    1    3    3  502    0  0.12773000359E+02  0.10112167996E+02  0.91472313043E+02  0.93005709143E+02  0.41800000000E+01 0. -1.
         -5    1    3    3    0  502 -0.14449488628E+02 -0.18611473958E+02 -0.36709091052E+02  0.43820137498E+02  0.41800000000E+01 0. -1.
        -11    1    1    2    0    0 -0.11865798585E+02  0.26275785768E+02 -0.51904070732E+01  0.29294272809E+02  0.00000000000E+00 0. -1.
         11    1    1    2    0    0  0.13542286855E+02 -0.17776479806E+02  0.10946704334E+03  0.11172479736E+03  0.00000000000E+00 0.  1.
</event>
<event>
 7    1  0.2873461E-009  0.1692234E+03  0.7561462E-02  0.1178660E+00
         -1   -1    0    0    0  501 -0.00000000000E+00  0.00000000000E+00  0.27645322354E+03  0.27645322354E+03  0.00000000000E+00 0.  1.
          1   -1    0    0  501    0  0.00000000000E+00 -0.00000000000E+00 -0.11338113433E+03  0.11338113433E+03  0.00000000000E+00 0. -1.
         25    2    1    2    0    0  0.25578847329E+02 -0.13667891972E+03  0.66018995169E+02  0.19834615794E+03  0.12508911271E+03 0.  0.
          5    1    3    3  502    0  0.52257023019E+00  0.23054693937E+02 -0.54732294734E+00  0.23442780436E+02  0.41800000000E+01 0.  1.
         -5    1    3    3    0  502  0.25056277099E+02 -0.15973361366E+03  0.66566318116E+02  0.17490337750E+03  0.41800000000E+01 0.  1.
        -11    1    1    2    0    0  0.19737865687E+02  0.69397587824E+02  0.81577054174E+02  0.10890557518E+03  0.00000000000E+00 0.  1.
         11    1    1    2    0    0 -0.45316713016E+02  0.67281331894E+02  0.15476039869E+02  0.82582624747E+02  0.00000000000E+00 0. -1.
</event>
<event>
 7    1  0.2873461E-009  0.1251285E+03  0.7561462E-02  0.1234869E+00
          3   -1    0    0  501    0  0.00000000000E+00  0.00000000000E+00  0.32034239215E+03  0.32034239215E+03  0.00000000000E+00 0. -1.
         -3   -1    0    0    0  501 -0.00000000000E+00 -0.00000000000E+00 -0.51030663002E+02  0.51030663002E+02  0.00000000000E+00 0.  1.
         25    2    1    2    0    0  0.59643899182E+02 -0.26164810715E+02  0.17987830085E+03  0.22857212504E+03  0.12508805378E+03 0.  0.
          5    1    3    3  502    0  0.57756174911E+02  0.41944633123E+02  0.10723867059E+03  0.12889039087E+03  0.41800000000E+01 0.  1.
         -5    1    3    3    0  502  0.18877242714E+01 -0.68109443838E+02  0.72639630256E+02  0.99681734167E+02  0.41800000000E+01 0.  1.
        -11    1    1    2    0    0  0.21425306895E+02  0.19798013344E+02  0.16209762141E+02  0.33373065436E+02  0.00000000000E+00 0.  1.
         11    1    1    2    0    0 -0.81069206077E+02  0.63667973706E+01  0.73223666159E+02  0.10942786468E+03  0.00000000000E+00 0. -1.
</event>
<event>
 7    1  0.2873461E-009  0.1332210E+03  0.7561462E-02  0.1222753E+00
         -2   -1    0    0    0  501 -0.00000000000E+00  0.00000000000E+00  0.18873164355E+02  0.18873164355E+02  0.00000000000E+00 0.  1.
          2   -1    0    0  501    0  0.00000000000E+00 -0.00000000000E+00 -0.11555534003E+04  0.11555534003E+04  0.00000000000E+00 0. -1.
         25    2    1    2    0    0  0.84923635014E+02 -0.74472526361E+01 -0.81715007186E+03  0.83105322644E+03  0.12509092640E+03 0.  0.
          5    1    3    3  502    0  0.53598066212E+00 -0.47254526056E+02 -0.14804283520E+03  0.15545877577E+03  0.41800000000E+01 0. -1.
         -5    1    3    3    0  502  0.84387654352E+02  0.39807273420E+02 -0.66910723666E+03  0.67559445067E+03  0.41800000000E+01 0. -1.
        -11    1    1    2    0    0 -0.51079880094E+02 -0.41692031791E+02 -0.17520849108E+03  0.18720415330E+03  0.00000000000E+00 0.  1.
         11    1    1    2    0    0 -0.33843754920E+02  0.49139284427E+02 -0.14432167300E+03  0.15616918492E+03  0.00000000000E+00 0. -1.
</event>
<event>
 7    1  0.2873461E-009  0.1442624E+03  0.7561462E-02  0.1207706E+00
         -2   -1    0    0    0  501 -0.00000000000E+00  0.00000000000E+00  0.21628899573E+02  0.21628899573E+02  0.00000000000E+00 0.  1.
          2   -1    0    0  501    0  0.00000000000E+00 -0.00000000000E+00 -0.12630755207E+04  0.12630755207E+04  0.00000000000E+00 0. -1.
         25    2    1    2    0    0 -0.11430877754E+03 -0.45729619491E+02 -0.74208636193E+03  0.76255980337E+03  0.12509032911E+03 0.  0.
          5    1    3    3  502    0 -0.88703970160E+01 -0.58249997652E+02 -0.40033729395E+03  0.40467167865E+03  0.41800000000E+01 0.  1.
         -5    1    3    3    0  502 -0.10543838053E+03  0.12520378161E+02 -0.34174906798E+03  0.35788812473E+03  0.41800000000E+01 0.  1.
        -11    1    1    2    0    0  0.33274957919E+02  0.15458629581E+02 -0.38295187525E+02  0.53035020889E+02  0.00000000000E+00 0.  1.
         11    1    1    2    0    0  0.81033819624E+02  0.30270989910E+02 -0.46106507164E+03  0.46910959598E+03  0.00000000000E+00 0. -1.
</event>
<event>
 7    1  0.2873461E-009  0.1470370E+03  0.7561462E-02  0.1204162E+00
          2   -1    0    0  501    0  0.00000000000E+00  0.00000000000E+00  0.10912288318E+04  0.10912288318E+04  0.00000000000E+00 0. -1.
         -2   -1    0    0    0  501 -0.00000000000E+00 -0.00000000000E+00 -0.29380659768E+02  0.29380659768E+02  0.00000000000E+00 0.  1.
         25    2    1    2    0    0  0.13029113266E+03 -0.56550371884E+01  0.74185231260E+03  0.76354403812E+03  0.12508751231E+03 0.  0.
          5    1    3    3  502    0  0.19398530327E+02  0.27474632066E+02  0.41030646251E+02  0.53217898472E+02  0.41800000000E+01 0. -1.
         -5    1    3    3    0  502  0.11089260234E+03 -0.33129669254E+02  0.70082166635E+03  0.71032613964E+03  0.41800000000E+01 0. -1.
        -11    1    1    2    0    0 -0.46579038739E+02  0.32114938987E+02  0.59196727288E+02  0.81885460721E+02  0.00000000000E+00 0. -1.
         11    1    1    2    0    0 -0.83712093924E+02 -0.26459901798E+02  0.26079913217E+03  0.27517999276E+03  0.00000000000E+00 0.  1.
</event>
<event>
 7    1  0.2873461E-009  0.2395644E+03  0.7561462E-02  0.1120083E+00
          2   -1    0    0  501    0  0.00000000000E+00  0.00000000000E+00  0.64055096374E+03  0.64055096374E+03  0.00000000000E+00 0. -1.
         -2   -1    0    0    0  501 -0.00000000000E+00 -0.00000000000E+00 -0.10184020225E+03  0.10184020225E+03  0.00000000000E+00 0.  1.
         25    2    1    2    0    0  0.80173717537E+02 -0.21516895655E+03  0.23740498853E+03  0.35317752681E+03  0.12509089503E+03 0.  0.
          5    1    3    3  502    0  0.52491358362E+00 -0.49488497097E+02  0.13244433847E+03  0.14145091753E+03  0.41800000000E+01 0.  1.
         -5    1    3    3    0  502  0.79648803953E+02 -0.16568045945E+03  0.10496065007E+03  0.21172660928E+03  0.41800000000E+01 0.  1.
        -11    1    1    2    0    0 -0.81610742150E+02  0.94324161989E+02  0.16863851949E+03  0.20975297620E+03  0.00000000000E+00 0. -1.
         11    1    1    2    0    0  0.14370246134E+01  0.12084479456E+03  0.13266725347E+03  0.17946066298E+03  0.00000000000E+00 0.  1.
</event>
<event>
 7    1  0.2873461E-009  0.1179754E+03  0.7561462E-02  0.1246475E+00
          2   -1    0    0  501    0  0.00000000000E+00  0.00000000000E+00  0.38056450328E+03  0.38056450328E+03  0.00000000000E+00 0. -1.
         -2   -1    0    0    0  501 -0.00000000000E+00 -0.00000000000E+00 -0.63005800433E+02  0.63005800433E+02  0.00000000000E+00 0.  1.
         25    2    1    2    0    0 -0.87651357536E+02  0.17693780766E+02  0.79276517446E+02  0.17299886358E+03  0.12509200704E+03 0.  0.
          5    1    3    3  502    0  0.69348386785E+01 -0.64547208044E+01  0.74453633779E+02  0.75170282633E+02  0.41800000000E+01 0.  1.
         -5    1    3    3    0  502 -0.94586196215E+02  0.24148501571E+02  0.48228836662E+01  0.97828580943E+02  0.41800000000E+01 0.  1.
        -11    1    1    2    0    0  0.83627505549E+02 -0.48596765950E+02  0.17204801587E+03  0.19737204744E+03  0.00000000000E+00 0. -1.
         11    1    1    2    0    0  0.40238519878E+01  0.30902985183E+02  0.66234169525E+02  0.73199392694E+02  0.00000000000E+00 0.  1.
</event>
<event>
 7    1  0.2873461E-009  0.1533630E+03  0.7561462E-02  0.1196400E+00
          2   -1    0    0  501    0  0.00000000000E+00  0.00000000000E+00  0.45101480926E+03  0.45101480926E+03  0.00000000000E+00 0. -1.
         -2   -1    0    0    0  501 -0.00000000000E+00 -0.00000000000E+00 -0.52816123402E+02  0.52816123402E+02  0.00000000000E+00 0.  1.
         25    2    1    2    0    0  0.60093962977E+02 -0.90791552574E+02  0.19680375633E+03  0.25735648519E+03  0.12508497736E+03 0.  0.
          5    1    3    3  502    0  0.41685307217E+02 -0.12164326659E+03  0.14118344974E+03  0.19101043957E+03  0.41800000000E+01 0. -1.
         -5    1    3    3    0  502  0.18408655760E+02  0.30851714016E+02  0.55620306592E+02  0.66346045624E+02  0.41800000000E+01 0. -1.
        -11    1    1    2    0    0 -0.39295528833E+02 -0.87104591292E+01  0.62966432510E+02  0.74731401082E+02  0.00000000000E+00 0.  1.
         11    1    1    2    0    0 -0.20798434144E+02  0.99502011703E+02  0.13842849702E+03  0.17174304639E+03  0.00000000000E+00 0. -1.
</event>
<event>
 7    1  0.2873461E-009  0.2185253E+03  0.7561462E-02  0.1134987E+00
         -2   -1    0    0    0  501 -0.00000000000E+00  0.00000000000E+00  0.23124152896E+03  0.23124152896E+03  0.00000000000E+00 0.  1.
          2   -1    0    0  501    0  0.00000000000E+00 -0.00000000000E+00 -0.21606517475E+03  0.21606517475E+03  0.00000000000E+00 0. -1.
         25    2    1    2    0    0 -0.14810624278E+03  0.12181369451E+03 -0.27538286770E+02  0.23060148121E+03  0.12507857762E+03 0.  0.
          5    1    3    3  502    0 -0.14466374722E+03  0.48877715358E+02 -0.87945073600E+00  0.15275757478E+03  0.41800000000E+01 0. -1.
         -5    1    3    3    0  502 -0.34424955569E+01  0.72935979151E+02 -0.26658836034E+02  0.77843906435E+02  0.41800000000E+01 0. -1.
        -11    1    1    2    0    0  0.82208842256E+02 -0.11985371688E+02  0.51871085577E+01  0.83239707921E+02  0.00000000000E+00 0. -1.
         11    1    1    2    0    0  0.65897400523E+02 -0.10982832282E+03  0.37527532423E+02  0.13346551457E+03  0.00000000000E+00 0.  1.
</event>
<event>
 7    1  0.2873461E-009  0.7824842E+02  0.7561462E-02  0.1334097E+00
          2   -1    0    0  501    0  0.00000000000E+00  0.00000000000E+00  0.58471238105E+03  0.58471238105E+03  0.00000000000E+00 0.  1.
         -2   -1    0    0    0  501 -0.00000000000E+00 -0.00000000000E+00 -0.29198450799E+02  0.29198450799E+02  0.00000000000E+00 0. -1.
         25    2    1    2    0    0 -0.41342146495E+02  0.42533755564E+02  0.41197243475E+03  0.43461159056E+03  0.12509058406E+03 0.  0.
          5    1    3    3  502    0 -0.36165994339E+02  0.26881583975E+02  0.41489407026E+03  0.41735495761E+03  0.41800000000E+01 0.  1.
         -5    1    3    3    0  502 -0.51761521565E+01  0.15652171589E+02 -0.29216355193E+01  0.17256632948E+02  0.41800000000E+01 0.  1.
        -11    1    1    2    0    0  0.89346504167E+00  0.19857747982E+02  0.76974304984E+02  0.79499509825E+02  0.00000000000E+00 0.  1.
         11    1    1    2    0    0  0.40448681453E+02 -0.62391503546E+02  0.66567190523E+02  0.99799731464E+02  0.00000000000E+00 0. -1.
</event>
<event>
 7    1  0.2873461E-009  0.1239921E+03  0.7561462E-02  0.1236653E+00
         -1   -1    0    0    0  501 -0.00000000000E+00  0.00000000000E+00  0.36040031945E+02  0.36040031945E+02  0.00000000000E+00 0.  1.
          1   -1    0    0  501    0  0.00000000000E+00 -0.00000000000E+00 -0.51675777748E+03  0.51675777748E+03  0.00000000000E+00 0. -1.
         25    2    1    2    0    0 -0.22370990056E+02  0.66407407122E+02 -0.17748295644E+03  0.22816287494E+03  0.12509073809E+03 0.  0.
          5    1    3    3  502    0  0.42634513666E+02 -0.40624307161E+01 -0.30961044457E+02  0.53011921044E+02  0.41800000000E+01 0. -1.
         -5    1    3    3    0  502 -0.65005503722E+02  0.70469837838E+02 -0.14652191199E+03  0.17515095390E+03  0.41800000000E+01 0. -1.
        -11    1    1    2    0    0 -0.18316127596E+02  0.11124160617E+02 -0.24894873290E+02  0.32847864401E+02  0.00000000000E+00 0.  1.
         11    1    1    2    0    0  0.40687117652E+02 -0.77531567739E+02 -0.27833991581E+03  0.29178707009E+03  0.00000000000E+00 0. -1.
</event>
<event>
 7    1  0.2873461E-009  0.1238254E+03  0.7561462E-02  0.1236916E+00
          1   -1    0    0  501    0  0.00000000000E+00  0.00000000000E+00  0.52776609566E+03  0.52776609566E+03  0.00000000000E+00 0. -1.
         -1   -1    0    0    0  501 -0.00000000000E+00 -0.00000000000E+00 -0.36745726120E+02  0.36745726120E+02  0.00000000000E+00 0.  1.
         25    2    1    2    0    0 -0.12458871643E+02 -0.75597485803E+02  0.29290205794E+03  0.32758132134E+03  0.12509077985E+03 0.  0.
          5    1    3    3  502    0 -0.47991766928E+02 -0.21145183750E+02  0.39097013094E+02  0.65546756759E+02  0.41800000000E+01 0. -1.
         -5    1    3    3    0  502  0.35532895285E+02 -0.54452302054E+02  0.25380504485E+03  0.26203456458E+03  0.41800000000E+01 0. -1.
        -11    1    1    2    0    0 -0.46195896684E+02  0.41139791837E+02  0.97853786386E+02  0.11576660509E+03  0.00000000000E+00 0. -1.
         11    1    1    2    0    0  0.58654768327E+02  0.34457693966E+02  0.10026452521E+03  0.12116389535E+03  0.00000000000E+00 0.  1.
</event>
<event>
 7    1  0.3739891E-009  0.1127540E+03  0.7561462E-02  0.1255553E+00
          2   -1    0    0  501    0  0.00000000000E+00  0.00000000000E+00  0.23078399259E+03  0.23078399259E+03  0.00000000000E+00 0. -1.
         -2   -1    0    0    0  501 -0.00000000000E+00 -0.00000000000E+00 -0.17394781597E+03  0.17394781597E+03  0.00000000000E+00 0.  1.
         25    2    1    2    0    0  0.97753902142E+02  0.35226857269E+02 -0.10346372263E+03  0.19274008820E+03  0.12508893972E+03 0.  0.
          5    1    3    3  502    0  0.16792876150E+02 -0.95119902073E+01  0.26571914871E+02  0.33106158143E+02  0.41800000000E+01 0.  1.
         -5    1    3    3    0  502  0.80961025993E+02  0.44738847476E+02 -0.13003563750E+03  0.15963393005E+03  0.41800000000E+01 0.  1.
        -11    1    1    2    0    0 -0.30831632967E+02  0.99791233133E+01  0.11482161733E+03  0.11930706727E+03  0.00000000000E+00 0. -1.
         11    1    1    2    0    0 -0.66922269175E+02 -0.45205980582E+02  0.45478281925E+02  0.92684653092E+02  0.00000000000E+00 0.  1.
</event>
<event>
 7    1  0.2873461E-009  0.1129762E+03  0.7561462E-02  0.1255156E+00
         -2   -1    0    0    0  501 -0.00000000000E+00  0.00000000000E+00  0.70575968854E+02  0.70575968854E+02  0.00000000000E+00 0. -1.
          2   -1    0    0  501    0  0.00000000000E+00 -0.00000000000E+00 -0.19719791979E+03  0.19719791979E+03  0.00000000000E+00 0.  1.
         25    2    1    2    0    0 -0.53286699809E+01 -0.41168022253E+02 -0.44593252987E+02  0.13913777466E+03  0.12509021283E+03 0.  0.
          5    1    3    3  502    0 -0.42582664875E+02  0.26673551133E+02 -0.34220626723E+02  0.60936732528E+02  0.41800000000E+01 0.  1.
         -5    1    3    3    0  502  0.37253994894E+02 -0.67841573386E+02 -0.10372626264E+02  0.78201042133E+02  0.41800000000E+01 0.  1.
        -11    1    1    2    0    0 -0.28656853013E+02  0.54451963760E+02 -0.60375209572E+02  0.86205553840E+02  0.00000000000E+00 0.  1.
         11    1    1    2    0    0  0.33985522994E+02 -0.13283941507E+02 -0.21653488377E+02  0.42430560142E+02  0.00000000000E+00 0. -1.
</event>
<event>
 7    1  0.2873461E-009  0.2107371E+03  0.7561462E-02  0.1140984E+00
         -1   -1    0    0    0  501 -0.00000000000E+00  0.00000000000E+00  0.91215430227E+02  0.91215430227E+02  0.00000000000E+00 0.  1.
          1   -1    0    0  501    0  0.00000000000E+00 -0.00000000000E+00 -0.66438285222E+03  0.66438285222E+03  0.00000000000E+00 0. -1.
         25    2    1    2    0    0  0.15459009487E+03  0.10638753839E+03 -0.11702346728E+03  0.25408307890E+03  0.12508922150E+03 0.  0.
          5    1    3    3  502    0  0.13445477939E+03  0.35001645194E+02 -0.11393967521E+03  0.17973014453E+03  0.41800000000E+01 0. -1.
         -5    1    3    3    0  502  0.20135315483E+02  0.71385893193E+02 -0.30837920711E+01  0.74352934375E+02  0.41800000000E+01 0. -1.
        -11    1    1    2    0    0 -0.70176534046E+02  0.27290340987E+01 -0.14220327238E+03  0.15860001334E+03  0.00000000000E+00 0. -1.
         11    1    1    2    0    0 -0.84413560824E+02 -0.10911657249E+03 -0.31394068234E+03  0.34291519020E+03  0.00000000000E+00 0.  1.
</event>
<event>
 7    1  0.2873461E-009  0.7441792E+02  0.7561462E-02  0.1345683E+00
         -3   -1    0    0    0  501 -0.00000000000E+00  0.00000000000E+00  0.50498389295E+02  0.50498389295E+02  0.00000000000E+00 0.  1.
          3   -1    0    0  501    0  0.00000000000E+00 -0.00000000000E+00 -0.28333277966E+03  0.28333277966E+03  0.00000000000E+00 0. -1.
         25    2    1    2    0    0 -0.19718577996E+02 -0.46590313565E+02 -0.14462932634E+03  0.19779996339E+03  0.12509078242E+03 0.  0.
          5    1    3    3  502    0 -0.85686266249E+01 -0.22968534196E+02  0.19469033872E+02  0.31583074664E+02  0.41800000000E+01 0.  1.
         -5    1    3    3    0  502 -0.11149951371E+02 -0.23621779369E+02 -0.16409836021E+03  0.16621688873E+03  0.41800000000E+01 0.  1.
        -11    1    1    2    0    0  0.28822770597E+02 -0.16874653208E+02 -0.99182989514E+01  0.34840761758E+02  0.00000000000E+00 0.  1.
         11    1    1    2    0    0 -0.91041926014E+01  0.63464966773E+02 -0.78286765077E+02  0.10119044380E+03  0.00000000000E+00 0. -1.
</event>
<event>
 7    1  0.2873461E-009  0.9206926E+02  0.7561462E-02  0.1297917E+00
         -3   -1    0    0    0  501 -0.00000000000E+00  0.00000000000E+00  0.57363666178E+02  0.57363666178E+02  0.00000000000E+00 0.  1.
          3   -1    0    0  501    0  0.00000000000E+00 -0.00000000000E+00 -0.25126248787E+03  0.25126248787E+03  0.00000000000E+00 0. -1.
         25    2    1    2    0    0 -0.54307452500E+00  0.45776512799E+02 -0.81966976696E+02  0.15639740384E+03  0.12508308681E+03 0.  0.
          5    1    3    3  502    0 -0.28118466039E+02 -0.77403542862E+01 -0.90750409855E+02  0.95413156880E+02  0.41800000000E+01 0.  1.
         -5    1    3    3    0  502  0.27575391514E+02  0.53516867085E+02  0.87834331589E+01  0.60984246964E+02  0.41800000000E+01 0.  1.
        -11    1    1    2    0    0  0.37289310945E+02 -0.43807103930E+02 -0.96453845785E+02  0.11230716554E+03  0.00000000000E+00 0. -1.
         11    1    1    2    0    0 -0.36746236420E+02 -0.19694088689E+01 -0.15477999209E+02  0.39921584661E+02  0.00000000000E+00 0.  1.
</event>
<event>
 7    1  0.2873461E-009  0.1046635E+03  0.7561462E-02  0.1270784E+00
         -2   -1    0    0    0  501 -0.00000000000E+00  0.00000000000E+00  0.13259267077E+04  0.13259267077E+04  0.00000000000E+00 0.  1.
          2   -1    0    0  501    0  0.00000000000E+00 -0.00000000000E+00 -0.16546255466E+02  0.16546255466E+02  0.00000000000E+00 0. -1.
         25    2    1    2    0    0  0.30903187423E+02  0.65535072470E+02  0.10089693246E+04  0.10192730608E+04  0.12509445109E+03 0.  0.
          5    1    3    3  502    0  0.22980338444E+02 -0.13491240947E+01  0.30307614298E+02  0.38287595579E+02  0.41800000000E+01 0.  1.
         -5    1    3    3    0  502  0.79228489785E+01  0.66884196564E+02  0.97866171034E+03  0.98098546522E+03  0.41800000000E+01 0.  1.
        -11    1    1    2    0    0  0.32140374048E+02 -0.80526089260E+01  0.10127971961E+03  0.10656185883E+03  0.00000000000E+00 0.  1.
         11    1    1    2    0    0 -0.63043561471E+02 -0.57482463544E+02  0.19913140799E+03  0.21663804354E+03  0.00000000000E+00 0. -1.
</event>
<event>
 7    1  0.2873461E-009  0.7148934E+02  0.7561462E-02  0.1355100E+00
         -2   -1    0    0    0  501 -0.00000000000E+00  0.00000000000E+00  0.54492787729E+03  0.54492787729E+03  0.00000000000E+00 0.  1.
          2   -1    0    0  501    0  0.00000000000E+00 -0.00000000000E+00 -0.22327034355E+02  0.22327034355E+02  0.00000000000E+00 0. -1.
         25    2    1    2    0    0 -0.26446371713E+02  0.31634543430E+01  0.29392096721E+03  0.32054171462E+03  0.12509211737E+03 0.  0.
          5    1    3    3  502    0  0.62224764986E+00  0.18566144675E+02  0.28792194690E+03  0.28855087737E+03  0.41800000000E+01 0.  1.
         -5    1    3    3    0  502 -0.27068619363E+02 -0.15402690332E+02  0.59990203024E+01  0.31990837255E+02  0.41800000000E+01 0.  1.
        -11    1    1    2    0    0 -0.20035044573E+02 -0.32043624922E+02  0.88544191255E+02  0.96271858371E+02  0.00000000000E+00 0. -1.
         11    1    1    2    0    0  0.46481416286E+02  0.28880170579E+02  0.14013568447E+03  0.15044133865E+03  0.00000000000E+00 0.  1.
</event>
<event>
 7    1  0.2873461E-009  0.1116778E+03  0.7561462E-02  0.1257494E+00
         -3   -1    0    0    0  501 -0.00000000000E+00  0.00000000000E+00  0.29180835874E+03  0.29180835874E+03  0.00000000000E+00 0.  1.
          3   -1    0    0  501    0  0.00000000000E+00 -0.00000000000E+00 -0.56038415391E+02  0.56038415391E+02  0.00000000000E+00 0. -1.
         25    2    1    2    0    0  0.46055579658E+01 -0.43853064713E+02  0.19985512445E+03  0.23986227924E+03  0.12509012663E+03 0.  0.
          5    1    3    3  502    0  0.52031025241E+02 -0.52365522538E+02  0.72158369574E+02  0.10331349495E+03  0.41800000000E+01 0.  1.
         -5    1    3    3    0  502 -0.47425467276E+02  0.85124578250E+01  0.12769675488E+03  0.13654878429E+03  0.41800000000E+01 0.  1.
        -11    1    1    2    0    0  0.13178904925E+02  0.69003065208E+02  0.31024314199E+02  0.76795928373E+02  0.00000000000E+00 0.  1.
         11    1    1    2    0    0 -0.17784462891E+02 -0.25150000495E+02  0.48905046923E+01  0.31188566517E+02  0.00000000000E+00 0. -1.
</event>
<event>
 7    1  0.2873461E-009  0.7993142E+02  0.7561462E-02  0.1329246E+00
         -1   -1    0    0    0  501 -0.00000000000E+00  0.00000000000E+00  0.85670709869E+01  0.85670709869E+01  0.00000000000E+00 0.  1.
          1   -1    0    0  501    0  0.00000000000E+00 -0.00000000000E+00 -0.18697832161E+04  0.18697832161E+04  0.00000000000E+00 0. -1.
         25    2    1    2    0    0 -0.82546126373E+00  0.15890600722E+02 -0.14691929388E+04  0.14745945384E+04  0.12509184097E+03 0.  0.
          5    1    3    3  502    0  0.14159712477E+02  0.36494836820E+02 -0.14028903881E+04  0.14034426543E+04  0.41800000000E+01 0.  1.
         -5    1    3    3    0  502 -0.14985173741E+02 -0.20604236098E+02 -0.66302550716E+02  0.71151884083E+02  0.41800000000E+01 0.  1.
        -11    1    1    2    0    0  0.33727401657E+02 -0.41143697483E+02 -0.17927563905E+03  0.18700293105E+03  0.00000000000E+00 0.  1.
         11    1    1    2    0    0 -0.32901940394E+02  0.25253096761E+02 -0.21274756734E+03  0.21675281771E+03  0.00000000000E+00 0. -1.
</event>
<event>
 7    1  0.2873461E-009  0.9337315E+02  0.7561462E-02  0.1294883E+00
          2   -1    0    0  501    0  0.00000000000E+00  0.00000000000E+00  0.31355232780E+03  0.31355232780E+03  0.00000000000E+00 0. -1.
         -2   -1    0    0    0  501 -0.00000000000E+00 -0.00000000000E+00 -0.39101723949E+02  0.39101723949E+02  0.00000000000E+00 0.  1.
         25    2    1    2    0    0  0.89016480186E+01 -0.16604089085E+02  0.13583099530E+03  0.18561363818E+03  0.12508968095E+03 0.  0.
          5    1    3    3  502    0 -0.14500762591E+02  0.34238040363E+02  0.12227863343E+03  0.12787514269E+03  0.41800000000E+01 0. -1.
         -5    1    3    3    0  502  0.23402410609E+02 -0.50842129448E+02  0.13552361868E+02  0.57738495489E+02  0.41800000000E+01 0. -1.
        -11    1    1    2    0    0  0.21978544498E+02  0.45741414068E+02  0.75299474255E+02  0.90803877683E+02  0.00000000000E+00 0.  1.
         11    1    1    2    0    0 -0.30880192517E+02 -0.29137324983E+02  0.63320134292E+02  0.76236535885E+02  0.00000000000E+00 0. -1.
</event>
<event>
 7    1  0.2873461E-009  0.1116467E+03  0.7561462E-02  0.1257551E+00
         -4   -1    0    0    0  501 -0.00000000000E+00  0.00000000000E+00  0.79884991625E+02  0.79884991625E+02  0.00000000000E+00 0.  1.
          4   -1    0    0  501    0  0.00000000000E+00 -0.00000000000E+00 -0.28220069691E+03  0.28220069691E+03  0.00000000000E+00 0. -1.
         25    2    1    2    0    0  0.87523698504E+01  0.75177150118E+02 -0.22806311410E+02  0.14796910332E+03  0.12508604966E+03 0.  0.
          5    1    3    3  502    0  0.53009063681E+02  0.35033729253E+02 -0.51176250223E+02  0.81693353491E+02  0.41800000000E+01 0.  1.
         -5    1    3    3    0  502 -0.44256693831E+02  0.40143420865E+02  0.28369938812E+02  0.66275749832E+02  0.41800000000E+01 0.  1.
        -11    1    1    2    0    0 -0.37048536266E+02 -0.39027301816E+02 -0.39444329583E+02  0.66720157844E+02  0.00000000000E+00 0.  1.
         11    1    1    2    0    0  0.28296166416E+02 -0.36149848302E+02 -0.14006506430E+03  0.14739642737E+03  0.00000000000E+00 0. -1.
</event>
<event>
 7    1  0.2873461E-009  0.1305137E+03  0.7561462E-02  0.1226696E+00
          1   -1    0    0  501    0  0.00000000000E+00  0.00000000000E+00  0.25966282041E+03  0.25966282041E+03  0.00000000000E+00 0. -1.
         -1   -1    0    0    0  501 -0.00000000000E+00 -0.00000000000E+00 -0.98954063385E+02  0.98954063385E+02  0.00000000000E+00 0.  1.
         25    2    1    2    0    0  0.95864247737E+02 -0.31557716446E+02  0.19228774989E+02  0.16187236861E+03  0.12508826672E+03 0.  0.
          5    1    3    3  502    0 -0.29632868331E+02  0.23282267524E+01 -0.20409300688E+01  0.30085965514E+02  0.41800000000E+01 0. -1.
         -5    1    3    3    0  502  0.12549711607E+03 -0.33885943199E+02  0.21269705058E+02  0.13178640310E+03  0.41800000000E+01 0. -1.
        -11    1    1    2    0    0 -0.69398962203E+02  0.21740352837E+02  0.15046754407E+03  0.16712073694E+03  0.00000000000E+00 0. -1.
         11    1    1    2    0    0 -0.26465285534E+02  0.98173636096E+01 -0.89875620294E+01  0.29623778251E+02  0.00000000000E+00 0.  1.
</event>
<event>
 7    1  0.2873461E-009  0.6914904E+02  0.7561462E-02  0.1363011E+00
          2   -1    0    0  501    0  0.00000000000E+00  0.00000000000E+00  0.43462001579E+03  0.43462001579E+03  0.00000000000E+00 0. -1.
         -2   -1    0    0    0  501 -0.00000000000E+00 -0.00000000000E+00 -0.28920280433E+02  0.28920280433E+02  0.00000000000E+00 0.  1.
         25    2    1    2    0    0  0.24895487883E+02  0.32229232946E+02  0.29844777533E+03  0.32615324047E+03  0.12508538244E+03 0.  0.
          5    1    3    3  502    0 -0.70908835908E+01  0.19192841731E+02 -0.43762101375E+01  0.21337043352E+02  0.41800000000E+01 0. -1.
         -5    1    3    3    0  502  0.31986371474E+02  0.13036391214E+02  0.30282398546E+03  0.30481619712E+03  0.41800000000E+01 0. -1.
        -11    1    1    2    0    0  0.17692943584E+02  0.11877175281E+02  0.13045153979E+02  0.24985667645E+02  0.00000000000E+00 0.  1.
         11    1    1    2    0    0 -0.42588431467E+02 -0.44106408227E+02  0.94206806055E+02  0.11240138811E+03  0.00000000000E+00 0. -1.
</event>
<event>
 7    1  0.2873461E-009  0.1630694E+03  0.7561462E-02  0.1185274E+00
          1   -1    0    0  501    0  0.00000000000E+00  0.00000000000E+00  0.13471552414E+04  0.13471552414E+04  0.00000000000E+00 0. -1.
         -1   -1    0    0    0  501 -0.00000000000E+00 -0.00000000000E+00 -0.21100317271E+02  0.21100317271E+02  0.00000000000E+00 0.  1.
         25    2    1    2    0    0  0.79119500035E+02 -0.10191539219E+03  0.69285726459E+03  0.71578290259E+03  0.12508929646E+03 0.  0.
          5    1    3    3  502    0  0.70541128728E+01  0.25737342131E+02  0.19222724040E+03  0.19411583047E+03  0.41800000000E+01 0. -1.
         -5    1    3    3    0  502  0.72065387163E+02 -0.12765273432E+03  0.50063002419E+03  0.52166707211E+03  0.41800000000E+01 0. -1.
        -11    1    1    2    0    0 -0.86842255895E+02  0.11075336359E+03  0.61438584589E+03  0.63029981167E+03  0.00000000000E+00 0. -1.
         11    1    1    2    0    0  0.77227558599E+01 -0.88379714024E+01  0.18811813599E+02  0.22172844370E+02  0.00000000000E+00 0.  1.
</event>
<event>
 7    1  0.2873461E-009  0.9245039E+02  0.7561462E-02  0.1297024E+00
          2   -1    0    0  501    0  0.00000000000E+00  0.00000000000E+00  0.14058302073E+03  0.14058302073E+03  0.00000000000E+00 0. -1.
         -2   -1    0    0    0  501 -0.00000000000E+00 -0.00000000000E+00 -0.12479644354E+03  0.12479644354E+03  0.00000000000E+00 0.  1.
         25    2    1    2    0    0 -0.50950623830E+02  0.47711416033E+02  0.39671151714E+02  0.14864028661E+03  0.12509112373E+03 0.  0.
          5    1    3    3  502    0 -0.28383035603E+02  0.17886484048E+02 -0.44823290517E+02  0.56143768973E+02  0.41800000000E+01 0. -1.
         -5    1    3    3    0  502 -0.22567588226E+02  0.29824931985E+02  0.84494442231E+02  0.92496517633E+02  0.41800000000E+01 0. -1.
        -11    1    1    2    0    0 -0.13336089857E+02 -0.47327964679E+02 -0.34935204961E+01  0.49294951251E+02  0.00000000000E+00 0.  1.
         11    1    1    2    0    0  0.64286713686E+02 -0.38345135341E+00 -0.20391054032E+02  0.67444226410E+02  0.00000000000E+00 0. -1.
</event>
<event>
 7    1  0.2873461E-009  0.9677075E+02  0.7561462E-02  0.1287237E+00
         -2   -1    0    0    0  501 -0.00000000000E+00  0.00000000000E+00  0.76281644257E+02  0.76281644257E+02  0.00000000000E+00 0.  1.
          2   -1    0    0  501    0  0.00000000000E+00 -0.00000000000E+00 -0.29777112476E+03  0.29777112476E+03  0.00000000000E+00 0. -1.
         25    2    1    2    0    0 -0.73992643449E+02  0.37963761296E+02 -0.41887283537E+02  0.15594563535E+03  0.12509331799E+03 0.  0.
          5    1    3    3  502    0 -0.66951656067E+02  0.56687622397E+02 -0.76023628019E+02  0.11615969697E+03  0.41800000000E+01 0. -1.
         -5    1    3    3    0  502 -0.70409873816E+01 -0.18723861101E+02  0.34136344482E+02  0.39785938376E+02  0.41800000000E+01 0. -1.
        -11    1    1    2    0    0  0.16442620469E+02 -0.17963910926E+02  0.39827992815E+01  0.24676396693E+02  0.00000000000E+00 0.  1.
         11    1    1    2    0    0  0.57550022980E+02 -0.19999850370E+02 -0.18358499624E+03  0.19343073697E+03  0.00000000000E+00 0. -1.
</event>
<event>
 7    1  0.2873461E-009  0.1032100E+03  0.7561462E-02  0.1273687E+00
         -1   -1    0    0    0  501 -0.00000000000E+00  0.00000000000E+00  0.18506486704E+03  0.18506486704E+03  0.00000000000E+00 0.  1.
          1   -1    0    0  501    0  0.00000000000E+00 -0.00000000000E+00 -0.10018684152E+03  0.10018684152E+03  0.00000000000E+00 0. -1.
         25    2    1    2    0    0  0.61310794223E+01 -0.33761897960E+02  0.12438540150E+03  0.17971380887E+03  0.12509144297E+03 0.  0.
          5    1    3    3  502    0 -0.16994541902E+02 -0.74522044986E+02  0.49123668055E+02  0.90955795893E+02  0.41800000000E+01 0.  1.
         -5    1    3    3    0  502  0.23125621325E+02  0.40760147026E+02  0.75261733444E+02  0.88758012981E+02  0.41800000000E+01 0.  1.
        -11    1    1    2    0    0 -0.18366461927E+02  0.55179013285E+02  0.93992625292E+00  0.58162994182E+02  0.00000000000E+00 0.  1.
         11    1    1    2    0    0  0.12235382505E+02 -0.21417115325E+02 -0.40447302230E+02  0.47374905505E+02  0.00000000000E+00 0. -1.
</event>
<event>
 7    1  0.2873461E-009  0.1643781E+03  0.7561462E-02  0.1183841E+00
         -1   -1    0    0    0  501 -0.00000000000E+00  0.00000000000E+00  0.17666268176E+03  0.17666268176E+03  0.00000000000E+00 0.  1.
          1   -1    0    0  501    0  0.00000000000E+00 -0.00000000000E+00 -0.16072490511E+03  0.16072490511E+03  0.00000000000E+00 0. -1.
         25    2    1    2    0    0  0.65600821403E+02  0.10714176783E+03 -0.17992466589E+02  0.17820665654E+03  0.12510418618E+03 0.  0.
          5    1    3    3  502    0 -0.93798916242E+00 -0.25088447034E+02 -0.16083509679E+02  0.30107502086E+02  0.41800000000E+01 0. -1.
         -5    1    3    3    0  502  0.66538810566E+02  0.13223021486E+03 -0.19089569098E+01  0.14809915446E+03  0.41800000000E+01 0. -1.
        -11    1    1    2    0    0 -0.67798697349E+02 -0.23811620307E+02  0.20681348026E+02  0.74775495853E+02  0.00000000000E+00 0. -1.
         11    1    1    2    0    0  0.21978759459E+01 -0.83330147523E+02  0.13248895210E+02  0.84405434477E+02  0.00000000000E+00 0.  1.
</event>
<event>
 7    1  0.2873461E-009  0.1382480E+03  0.7561462E-02  0.1215706E+00
         -1   -1    0    0    0  501 -0.00000000000E+00  0.00000000000E+00  0.16719126546E+03  0.16719126546E+03  0.00000000000E+00 0.  1.
          1   -1    0    0  501    0  0.00000000000E+00 -0.00000000000E+00 -0.19475526759E+03  0.19475526759E+03  0.00000000000E+00 0. -1.
         25    2    1    2    0    0 -0.49422419505E+02 -0.82010602992E+02 -0.12129790639E+03  0.19879595895E+03  0.12505333522E+03 0.  0.
          5    1    3    3  502    0 -0.89283461231E+02 -0.39001411444E+02 -0.87282387137E+02  0.13087526141E+03  0.41800000000E+01 0.  1.
         -5    1    3    3    0  502  0.39861041726E+02 -0.43009191548E+02 -0.34015519254E+02  0.67920697547E+02  0.41800000000E+01 0.  1.
        -11    1    1    2    0    0  0.23206858209E+02 -0.94398073601E+01  0.54993299156E+02  0.60431210339E+02  0.00000000000E+00 0.  1.
         11    1    1    2    0    0  0.26215561296E+02  0.91450410352E+02  0.38740605105E+02  0.10271936376E+03  0.00000000000E+00 0. -1.
</event>
<event>
 7    1  0.2873461E-009  0.2180218E+03  0.7561462E-02  0.1135367E+00
          1   -1    0    0  501    0  0.00000000000E+00  0.00000000000E+00  0.36951124792E+03  0.36951124792E+03  0.00000000000E+00 0. -1.
         -1   -1    0    0    0  501 -0.00000000000E+00 -0.00000000000E+00 -0.14762931465E+03  0.14762931465E+03  0.00000000000E+00 0.  1.
         25    2    1    2    0    0 -0.10432834117E+03 -0.17675727482E+03  0.13596928553E+03  0.27615862946E+03  0.12509358514E+03 0.  0.
          5    1    3    3  502    0 -0.74787179169E+02 -0.18518882312E+03  0.14131856788E+03  0.24469661298E+03  0.41800000000E+01 0. -1.
         -5    1    3    3    0  502 -0.29541161998E+02  0.84315482999E+01 -0.53492823502E+01  0.31462016474E+02  0.41800000000E+01 0. -1.
        -11    1    1    2    0    0  0.15756206468E+02  0.24451293065E+02  0.54837415443E+02  0.62074680082E+02  0.00000000000E+00 0. -1.
         11    1    1    2    0    0  0.88572134700E+02  0.15230598176E+03  0.31075232301E+02  0.17890725303E+03  0.00000000000E+00 0.  1.
</event>
<event>
 7    1  0.2873461E-009  0.2287934E+03  0.7561462E-02  0.1127492E+00
          1   -1    0    0  501    0  0.00000000000E+00  0.00000000000E+00  0.15571418355E+04  0.15571418355E+04  0.00000000000E+00 0. -1.
         -1   -1    0    0    0  501 -0.00000000000E+00 -0.00000000000E+00 -0.35004838005E+02  0.35004838005E+02  0.00000000000E+00 0.  1.
         25    2    1    2    0    0  0.20436915696E+03  0.11815321045E+02  0.85924837156E+03  0.89211168208E+03  0.12509650334E+03 0.  0.
          5    1    3    3  502    0  0.20882315217E+03 -0.10920378873E+02  0.82080346340E+03  0.84703138165E+03  0.41800000000E+01 0.  1.
         -5    1    3    3    0  502 -0.44539952074E+01  0.22735699919E+02  0.38444908152E+02  0.45080300430E+02  0.41800000000E+01 0.  1.
        -11    1    1    2    0    0 -0.53290661637E+02 -0.45539304544E+02  0.19654466617E+03  0.20867086206E+03  0.00000000000E+00 0. -1.
         11    1    1    2    0    0 -0.15107849532E+03  0.33723983498E+02  0.46634395982E+03  0.49136412941E+03  0.00000000000E+00 0.  1.
</event>
<event>
 7    1  0.2873461E-009  0.9687234E+02  0.7561462E-02  0.1287014E+00
         -1   -1    0    0    0  501 -0.00000000000E+00  0.00000000000E+00  0.57835445324E+02  0.57835445324E+02  0.00000000000E+00 0.  1.
          1   -1    0    0  501    0  0.00000000000E+00 -0.00000000000E+00 -0.25394992053E+03  0.25394992053E+03  0.00000000000E+00 0. -1.
         25    2    1    2    0    0 -0.46820167605E+02  0.22560383306E+02 -0.89422281030E+02  0.16230725402E+03  0.12508477674E+03 0.  0.
          5    1    3    3  502    0 -0.69250589555E+02  0.49528226696E+02 -0.93760281846E+02  0.12671681911E+03  0.41800000000E+01 0. -1.
         -5    1    3    3    0  502  0.22430421950E+02 -0.26967843390E+02  0.43380008163E+01  0.35590434909E+02  0.41800000000E+01 0. -1.
        -11    1    1    2    0    0 -0.97815861684E+01  0.41067463453E+01  0.11561760733E+02  0.15691370392E+02  0.00000000000E+00 0.  1.
         11    1    1    2    0    0  0.56601753774E+02 -0.26667129652E+02 -0.11825395491E+03  0.13378674144E+03  0.00000000000E+00 0. -1.
</event>
<event>
 7    1  0.2873461E-009  0.9674966E+02  0.7561462E-02  0.1287283E+00
          1   -1    0    0  501    0  0.00000000000E+00  0.00000000000E+00  0.22645093889E+03  0.22645093889E+03  0.00000000000E+00 0. -1.
         -1   -1    0    0    0  501 -0.00000000000E+00 -0.00000000000E+00 -0.69615824256E+02  0.69615824256E+02  0.00000000000E+00 0.  1.
         25    2    1    2    0    0  0.12194085731E+02 -0.14693721072E+02  0.15805381726E+03  0.20246652954E+03  0.12508830986E+03 0.  0.
          5    1    3    3  502    0 -0.41790927518E+02 -0.23010534817E+02  0.13461770410E+03  0.14288234668E+03  0.41800000000E+01 0.  1.
         -5    1    3    3    0  502  0.53985013249E+02  0.83168137451E+01  0.23436113165E+02  0.59584182856E+02  0.41800000000E+01 0.  1.
        -11    1    1    2    0    0 -0.10800202070E+02  0.52195008733E+02  0.10419997470E+02  0.54309664413E+02  0.00000000000E+00 0. -1.
         11    1    1    2    0    0 -0.13938836612E+01 -0.37501287661E+02 -0.11638700100E+02  0.39290569198E+02  0.00000000000E+00 0.  1.
</event>
<event>
 7    1  0.2873461E-009  0.1839223E+03  0.7561462E-02  0.1164060E+00
          2   -1    0    0  501    0  0.00000000000E+00  0.00000000000E+00  0.14877627067E+03  0.14877627067E+03  0.00000000000E+00 0. -1.
         -2   -1    0    0    0  501 -0.00000000000E+00 -0.00000000000E+00 -0.32859092483E+03  0.32859092483E+03  0.00000000000E+00 0.  1.
         25    2    1    2    0    0  0.14873104053E+03  0.23270747005E+02 -0.22165961808E+03  0.29570798007E+03  0.12509105927E+03 0.  0.
          5    1    3    3  502    0  0.14423301496E+03  0.59050775916E+02 -0.19942761288E+03  0.25313830592E+03  0.41800000000E+01 0.  1.
         -5    1    3    3    0  502  0.44980255680E+01 -0.35780028911E+02 -0.22232005192E+02  0.42569674155E+02  0.41800000000E+01 0.  1.
        -11    1    1    2    0    0 -0.14280134387E+03 -0.47650681781E+02  0.28413555435E+02  0.15319967826E+03  0.00000000000E+00 0.  1.
         11    1    1    2    0    0 -0.59296966615E+01  0.24379934775E+02  0.13431408482E+02  0.28459537171E+02  0.00000000000E+00 0. -1.
</event>
<event>
 7    1  0.2873461E-009  0.1327984E+03  0.7561462E-02  0.1223362E+00
         -1   -1    0    0    0  501 -0.00000000000E+00  0.00000000000E+00  0.67529724509E+03  0.67529724509E+03  0.00000000000E+00 0.  1.
          1   -1    0    0  501    0  0.00000000000E+00 -0.00000000000E+00 -0.27526037360E+02  0.27526037360E+02  0.00000000000E+00 0. -1.
         25    2    1    2    0    0  0.79518989631E+02 -0.19772435230E+02  0.32941280029E+03  0.36176840401E+03  0.12509742698E+03 0.  0.
          5    1    3    3  502    0  0.73892123194E+02  0.39444325799E+02  0.24057194909E+03  0.25477094771E+03  0.41800000000E+01 0.  1.
         -5    1    3    3    0  502  0.56268664368E+01 -0.59216761029E+02  0.88840851204E+02  0.10699745630E+03  0.41800000000E+01 0.  1.
        -11    1    1    2    0    0 -0.20683622936E+02 -0.35686848393E+02  0.97734367344E+02  0.10608190216E+03  0.00000000000E+00 0.  1.
         11    1    1    2    0    0 -0.58835366695E+02  0.55459283622E+02  0.22062404010E+03  0.23497297628E+03  0.00000000000E+00 0. -1.
</event>
<event>
 7    1  0.2873461E-009  0.9141314E+02  0.7561462E-02  0.1299465E+00
         -3   -1    0    0    0  501 -0.00000000000E+00  0.00000000000E+00  0.58089757447E+02  0.58089757447E+02  0.00000000000E+00 0.  1.
          3   -1    0    0  501    0  0.00000000000E+00 -0.00000000000E+00 -0.34863394675E+03  0.34863394675E+03  0.00000000000E+00 0. -1.
         25    2    1    2    0    0  0.37692883845E+02  0.90862228294E+01 -0.27683235981E+03  0.30624842847E+03  0.12509449055E+03 0.  0.
          5    1    3    3  502    0  0.71993223452E+02  0.13620218585E+02 -0.25446772759E+03  0.26483925571E+03  0.41800000000E+01 0.  1.
         -5    1    3    3    0  502 -0.34300339607E+02 -0.45339957557E+01 -0.22364632216E+02  0.41409172762E+02  0.41800000000E+01 0.  1.
        -11    1    1    2    0    0  0.79185416919E+01  0.19301440770E+02 -0.36560705786E+02  0.42094347909E+02  0.00000000000E+00 0.  1.
         11    1    1    2    0    0 -0.45611425536E+02 -0.28387663599E+02  0.22848876299E+02  0.58380927812E+02  0.00000000000E+00 0. -1.
</event>
<event>
 7    1  0.2873461E-009  0.1171246E+03  0.7561462E-02  0.1247917E+00
          2   -1    0    0  501    0  0.00000000000E+00  0.00000000000E+00  0.16456902038E+03  0.16456902038E+03  0.00000000000E+00 0. -1.
         -2   -1    0    0    0  501 -0.00000000000E+00 -0.00000000000E+00 -0.90467891250E+02  0.90467891250E+02  0.00000000000E+00 0.  1.
         25    2    1    2    0    0 -0.18970508482E+02 -0.58097889465E+02  0.62312376836E+02  0.15253500217E+03  0.12509536214E+03 0.  0.
          5    1    3    3  502    0  0.46146971423E+01 -0.91292384419E+02  0.20003834703E+02  0.93665472216E+02  0.41800000000E+01 0.  1.
         -5    1    3    3    0  502 -0.23585205624E+02  0.33194494955E+02  0.42308542133E+02  0.58869529954E+02  0.41800000000E+01 0.  1.
        -11    1    1    2    0    0 -0.15333584931E+02  0.65029682745E+02  0.84609924678E+01  0.67346617275E+02  0.00000000000E+00 0.  1.
         11    1    1    2    0    0  0.34304093413E+02 -0.69317932804E+01  0.33277598226E+01  0.35155292182E+02  0.00000000000E+00 0. -1.
</event>
<event>
 7    1  0.2873461E-009  0.3621795E+03  0.7561462E-02  0.1057724E+00
          2   -1    0    0  501    0  0.00000000000E+00  0.00000000000E+00  0.71731974961E+03  0.71731974961E+03  0.00000000000E+00 0.  1.
         -2   -1    0    0    0  501 -0.00000000000E+00 -0.00000000000E+00 -0.20344927803E+03  0.20344927803E+03  0.00000000000E+00 0. -1.
         25    2    1    2    0    0 -0.34802765237E+03 -0.72031796526E+02  0.15330237397E+03  0.40676761055E+03  0.12508574899E+03 0.  0.
          5    1    3    3  502    0 -0.16274438170E+03 -0.48772445742E+01  0.10221195175E+02  0.16319150259E+03  0.41800000000E+01 0.  1.
         -5    1    3    3    0  502 -0.18528327068E+03 -0.67154551952E+02  0.14308117880E+03  0.24357610795E+03  0.41800000000E+01 0.  1.
        -11    1    1    2    0    0  0.65105069942E+02 -0.17852387303E+02  0.88665978482E+02  0.11144071789E+03  0.00000000000E+00 0.  1.
         11    1    1    2    0    0  0.28292258243E+03  0.89884183829E+02  0.27190211913E+03  0.40256069920E+03  0.00000000000E+00 0. -1.
</event>
<event>
 7    1  0.2873461E-009  0.1609348E+03  0.7561462E-02  0.1187645E+00
          1   -1    0    0  501    0  0.00000000000E+00  0.00000000000E+00  0.93465235337E+03  0.93465235337E+03  0.00000000000E+00 0. -1.
         -1   -1    0    0    0  501 -0.00000000000E+00 -0.00000000000E+00 -0.34209245413E+02  0.34209245413E+02  0.00000000000E+00 0.  1.
         25    2    1    2    0    0  0.10861616550E+03  0.78540963325E+02  0.34528847337E+03  0.39094363444E+03  0.12508653459E+03 0.  0.
          5    1    3    3  502    0  0.81023096518E+02 -0.31565008411E+01  0.88836311433E+02  0.12034977481E+03  0.41800000000E+01 0.  1.
         -5    1    3    3    0  502  0.27593068983E+02  0.81697464166E+02  0.25645216194E+03  0.27059385963E+03  0.41800000000E+01 0.  1.
        -11    1    1    2    0    0 -0.31675999665E+02  0.13455234843E+02  0.20313372216E+03  0.20602844798E+03  0.00000000000E+00 0.  1.
         11    1    1    2    0    0 -0.76940165836E+02 -0.91996198168E+02  0.35202091242E+03  0.37188951636E+03  0.00000000000E+00 0. -1.
</event>
<event>
 7    1  0.2873461E-009  0.1313433E+03  0.7561462E-02  0.1225476E+00
         -2   -1    0    0    0  501 -0.00000000000E+00  0.00000000000E+00  0.26637385679E+02  0.26637385679E+02  0.00000000000E+00 0. -1.
          2   -1    0    0  501    0  0.00000000000E+00 -0.00000000000E+00 -0.88788130755E+03  0.88788130755E+03  0.00000000000E+00 0.  1.
         25    2    1    2    0    0  0.88472532288E+02 -0.16149781450E+02 -0.64849180541E+03  0.66654204722E+03  0.12509386322E+03 0.  0.
          5    1    3    3  502    0  0.98786847904E+01 -0.54429888472E+02 -0.38298683619E+03  0.38698396642E+03  0.41800000000E+01 0.  1.
         -5    1    3    3    0  502  0.78593847498E+02  0.38280107023E+02 -0.26550496922E+03  0.27955808080E+03  0.41800000000E+01 0.  1.
        -11    1    1    2    0    0  0.58170847046E+01  0.24358203947E+02 -0.87334345367E+02  0.90853995260E+02  0.00000000000E+00 0.  1.
         11    1    1    2    0    0 -0.94289616993E+02 -0.82084224971E+01 -0.12541777109E+03  0.15712265075E+03  0.00000000000E+00 0. -1.
</event>
<event>
 7    1  0.2873461E-009  0.1079940E+03  0.7561462E-02  0.1264330E+00
         -1   -1    0    0    0  501 -0.00000000000E+00  0.00000000000E+00  0.68059765753E+02  0.68059765753E+02  0.00000000000E+00 0.  1.
          1   -1    0    0  501    0  0.00000000000E+00 -0.00000000000E+00 -0.24811640199E+03  0.24811640199E+03  0.00000000000E+00 0. -1.
         25    2    1    2    0    0  0.49794231733E+02  0.43845559105E+02 -0.93365947987E+02  0.16960840825E+03  0.12509161978E+03 0.  0.
          5    1    3    3  502    0 -0.98590690705E+01  0.44940049065E+02 -0.99284603526E+02  0.10950668541E+03  0.41800000000E+01 0.  1.
         -5    1    3    3    0  502  0.59653300803E+02 -0.10944899602E+01  0.59186555396E+01  0.60101722840E+02  0.41800000000E+01 0.  1.
        -11    1    1    2    0    0  0.96047221700E+01  0.20360458396E+02  0.12339991969E+01  0.22545990954E+02  0.00000000000E+00 0. -1.
         11    1    1    2    0    0 -0.59398953903E+02 -0.64206017501E+02 -0.87924687453E+02  0.12402176854E+03  0.00000000000E+00 0.  1.
</event>
<event>
 7    1  0.2873461E-009  0.1437740E+03  0.7561462E-02  0.1208339E+00
         -1   -1    0    0    0  501 -0.00000000000E+00  0.00000000000E+00  0.46883695845E+02  0.46883695845E+02  0.00000000000E+00 0.  1.
          1   -1    0    0  501    0  0.00000000000E+00 -0.00000000000E+00 -0.68462185573E+03  0.68462185573E+03  0.00000000000E+00 0. -1.
         25    2    1    2    0    0  0.34901830586E+02 -0.12954863524E+03 -0.43351676463E+03  0.47072771197E+03  0.12508719731E+03 0.  0.
          5    1    3    3  502    0 -0.43409689660E+01 -0.29229678384E+02 -0.68066307820E+01  0.30610794380E+02  0.41800000000E+01 0.  1.
         -5    1    3    3    0  502  0.39242799552E+02 -0.10031895685E+03 -0.42671013385E+03  0.44011691759E+03  0.41800000000E+01 0.  1.
        -11    1    1    2    0    0 -0.49942239225E+02  0.56886264611E+02 -0.15272750413E+03  0.17045810300E+03  0.00000000000E+00 0. -1.
         11    1    1    2    0    0  0.15040408640E+02  0.72662370627E+02 -0.51493891127E+02  0.90319736606E+02  0.00000000000E+00 0.  1.
</event>
<event>
 7    1  0.2873461E-009  0.1543353E+03  0.7561462E-02  0.1195245E+00
         -3   -1    0    0    0  501 -0.00000000000E+00  0.00000000000E+00  0.15873453740E+03  0.15873453740E+03  0.00000000000E+00 0.  1.
          3   -1    0    0  501    0  0.00000000000E+00 -0.00000000000E+00 -0.20051724356E+03  0.20051724356E+03  0.00000000000E+00 0. -1.
         25    2    1    2    0    0  0.37822551632E+02 -0.12983489744E+03 -0.61838838923E+02  0.19432044052E+03  0.12509494634E+03 0.  0.
          5    1    3    3  502    0  0.19735311162E+02 -0.64572882366E+01  0.31880585216E+02  0.38275621376E+02  0.41800000000E+01 0.  1.
         -5    1    3    3    0  502  0.18087240470E+02 -0.12337760920E+03 -0.93719424139E+02  0.15604481914E+03  0.41800000000E+01 0.  1.
        -11    1    1    2    0    0  0.19731546734E+02  0.91422387651E+02  0.25792488241E+01  0.93563023812E+02  0.00000000000E+00 0. -1.
         11    1    1    2    0    0 -0.57554098367E+02  0.38412509785E+02  0.17476883934E+02  0.71368316632E+02  0.00000000000E+00 0.  1.
</event>
<event>
 7    1  0.2873461E-009  0.6811204E+02  0.7561462E-02  0.1366633E+00
          2   -1    0    0  501    0  0.00000000000E+00  0.00000000000E+00  0.18681462604E+04  0.18681462604E+04  0.00000000000E+00 0. -1.
         -2   -1    0    0    0  501 -0.00000000000E+00 -0.00000000000E+00 -0.10480401917E+02  0.10480401917E+02  0.00000000000E+00 0.  1.
         25    2    1    2    0    0  0.19502923528E+02 -0.29515220447E+02  0.15562432556E+04  0.15616634374E+04  0.12509240182E+03 0.  0.
          5    1    3    3  502    0  0.71796698141E+01  0.16652756689E+02  0.13414654817E+04  0.13415945635E+04  0.41800000000E+01 0.  1.
         -5    1    3    3    0  502  0.12323253714E+02 -0.46167977136E+02  0.21477777390E+03  0.22006887389E+03  0.41800000000E+01 0.  1.
        -11    1    1    2    0    0 -0.39845751610E+02  0.29028650704E+02  0.28888708848E+03  0.29306329755E+03  0.00000000000E+00 0. -1.
         11    1    1    2    0    0  0.20342828082E+02  0.48656974333E+00  0.12535514408E+02  0.23899927322E+02  0.00000000000E+00 0.  1.
</event>
<event>
 7    1  0.2873461E-009  0.1474494E+03  0.7561462E-02  0.1203643E+00
         -3   -1    0    0    0  501 -0.00000000000E+00  0.00000000000E+00  0.37933337472E+03  0.37933337472E+03  0.00000000000E+00 0.  1.
          3   -1    0    0  501    0  0.00000000000E+00 -0.00000000000E+00 -0.60006692650E+02  0.60006692650E+02  0.00000000000E+00 0. -1.
         25    2    1    2    0    0 -0.55237891826E+02 -0.88817097374E+02  0.17342253322E+03  0.23803709025E+03  0.12508628953E+03 0.  0.
          5    1    3    3  502    0 -0.91498187912E+02 -0.70991724966E+02  0.15474906864E+03  0.19333000297E+03  0.41800000000E+01 0. -1.
         -5    1    3    3    0  502  0.36260296086E+02 -0.17825372408E+02  0.18673464586E+02  0.44707087283E+02  0.41800000000E+01 0. -1.
        -11    1    1    2    0    0  0.72499093889E+02  0.32426261141E+02  0.90185253364E+02  0.12017054943E+03  0.00000000000E+00 0.  1.
         11    1    1    2    0    0 -0.17261202063E+02  0.56390836234E+02  0.55718895482E+02  0.81132427682E+02  0.00000000000E+00 0. -1.
</event>
<event>
 7    1  0.2908385E-009  0.1704097E+03  0.7561462E-02  0.1177421E+00
         -1   -1    0    0    0  501 -0.00000000000E+00  0.00000000000E+00  0.56461341735E+02  0.56461341735E+02  0.00000000000E+00 0.  1.
          1   -1    0    0  501    0  0.00000000000E+00 -0.00000000000E+00 -0.71712640280E+03  0.71712640280E+03  0.00000000000E+00 0. -1.
         25    2    1    2    0    0  0.14464150298E+03  0.83311602795E+02 -0.39466686720E+03  0.44639878501E+03  0.12509177291E+03 0.  0.
          5    1    3    3  502    0  0.14730787117E+03  0.78951772233E+02 -0.24511688324E+03  0.29670313462E+03  0.41800000000E+01 0. -1.
         -5    1    3    3    0  502 -0.26663681892E+01  0.43598305621E+01 -0.14954998396E+03  0.14969565039E+03  0.41800000000E+01 0. -1.
        -11    1    1    2    0    0 -0.12317297128E+03 -0.68358219611E+02 -0.14037672050E+03  0.19887194549E+03  0.00000000000E+00 0.  1.
         11    1    1    2    0    0 -0.21468531694E+02 -0.14953383184E+02 -0.12562147335E+03  0.12831701403E+03  0.00000000000E+00 0. -1.
</event>
<event>
 7    1  0.2873461E-009  0.1159519E+03  0.7561462E-02  0.1249929E+00
          1   -1    0    0  501    0  0.00000000000E+00  0.00000000000E+00  0.73491621241E+02  0.73491621241E+02  0.00000000000E+00 0. -1.
         -1   -1    0    0    0  501 -0.00000000000E+00 -0.00000000000E+00 -0.24419333275E+03  0.24419333275E+03  0.00000000000E+00 0.  1.
         25    2    1    2    0    0  0.46266315565E+02 -0.60053839459E+02 -0.69299273600E+02  0.16185083581E+03  0.12508504363E+03 0.  0.
          5    1    3    3  502    0 -0.42821739950E+02 -0.14038344522E+02 -0.28712220015E+02  0.53597019576E+02  0.41800000000E+01 0.  1.
         -5    1    3    3    0  502  0.89088055515E+02 -0.46015494937E+02 -0.40587053584E+02  0.10825381623E+03  0.41800000000E+01 0.  1.
        -11    1    1    2    0    0  0.31533716613E+01  0.26192194823E+02 -0.91357423689E+02  0.95090239697E+02  0.00000000000E+00 0.  1.
         11    1    1    2    0    0 -0.49419687227E+02  0.33861644636E+02 -0.10045014220E+02  0.60743878488E+02  0.00000000000E+00 0. -1.
</event>
<event>
 7    1  0.2873461E-009  0.1975497E+03  0.7561462E-02  0.1151823E+00
          1   -1    0    0  501    0  0.00000000000E+00  0.00000000000E+00  0.79867691733E+03  0.79867691733E+03  0.00000000000E+00 0. -1.
         -1   -1    0    0    0  501 -0.00000000000E+00 -0.00000000000E+00 -0.65735811839E+02  0.65735811839E+02  0.00000000000E+00 0.  1.
         25    2    1    2    0    0  0.19029964550E+03 -0.93394083073E+01  0.50369970477E+03  0.55286707710E+03  0.12508969873E+03 0.  0.
          5    1    3    3  502    0  0.15735323097E+03 -0.18053078279E+02  0.49153719441E+03  0.51644190266E+03  0.41800000000E+01 0.  1.
         -5    1    3    3    0  502  0.32946414529E+02  0.87136699720E+01  0.12162510358E+02  0.36425174438E+02  0.41800000000E+01 0.  1.
        -11    1    1    2    0    0 -0.86173195698E+02 -0.29658903373E+02  0.60229924012E+02  0.10923879326E+03  0.00000000000E+00 0.  1.
         11    1    1    2    0    0 -0.10412644980E+03  0.38998311680E+02  0.16901147671E+03  0.20230685881E+03  0.00000000000E+00 0. -1.
</event>
<event>
 7    1  0.2873461E-009  0.1069374E+03  0.7561462E-02  0.1266349E+00
         -1   -1    0    0    0  501 -0.00000000000E+00  0.00000000000E+00  0.13949180109E+03  0.13949180109E+03  0.00000000000E+00 0.  1.
          1   -1    0    0  501    0  0.00000000000E+00 -0.00000000000E+00 -0.18126241865E+03  0.18126241865E+03  0.00000000000E+00 0. -1.
         25    2    1    2    0    0  0.44852778298E+02 -0.48706902336E+02  0.75113959057E+02  0.16023186913E+03  0.12509201007E+03 0.  0.
          5    1    3    3  502    0  0.45997612635E+02  0.30334513245E+02  0.56258293908E+02  0.78857029461E+02  0.41800000000E+01 0.  1.
         -5    1    3    3    0  502 -0.11448343372E+01 -0.79041415580E+02  0.18855665149E+02  0.81374839667E+02  0.41800000000E+01 0.  1.
        -11    1    1    2    0    0  0.86442548268E+01  0.11077244755E+02  0.10356456125E+02  0.17455219172E+02  0.00000000000E+00 0.  1.
         11    1    1    2    0    0 -0.53497033125E+02  0.37629657580E+02 -0.12724103275E+03  0.14306713144E+03  0.00000000000E+00 0. -1.
</event>
<event>
 7    1  0.2873461E-009  0.1529232E+03  0.7561462E-02  0.1196926E+00
          2   -1    0    0  501    0  0.00000000000E+00  0.00000000000E+00  0.77118620708E+03  0.77118620708E+03  0.00000000000E+00 0. -1.
         -2   -1    0    0    0  501 -0.00000000000E+00 -0.00000000000E+00 -0.50827449315E+02  0.50827449315E+02  0.00000000000E+00 0.  1.
         25    2    1    2    0    0 -0.58047792275E+02  0.97227249482E+02  0.62628647516E+03  0.64861599520E+03  0.12508107782E+03 0.  0.
          5    1    3    3  502    0  0.39640970893E+02  0.23712416595E+02  0.17570793234E+03  0.18172626437E+03  0.41800000000E+01 0.  1.
         -5    1    3    3    0  502 -0.97688763167E+02  0.73514832887E+02  0.45057854282E+03  0.46688973083E+03  0.41800000000E+01 0.  1.
        -11    1    1    2    0    0  0.27618377853E+02 -0.10258417857E+03  0.44925521131E+02  0.11534552846E+03  0.00000000000E+00 0.  1.
         11    1    1    2    0    0  0.30429414422E+02  0.53569290877E+01  0.49146761472E+02  0.58052132729E+02  0.00000000000E+00 0. -1.
</event>
<event>
 7    1  0.2873461E-009  0.5290255E+02  0.7561462E-02  0.1430286E+00
          2   -1    0    0  501    0  0.00000000000E+00  0.00000000000E+00  0.15437266421E+03  0.15437266421E+03  0.00000000000E+00 0.  1.
         -2   -1    0    0    0  501 -0.00000000000E+00 -0.00000000000E+00 -0.80770673077E+02  0.80770673077E+02  0.00000000000E+00 0. -1.
         25    2    1    2    0    0 -0.64458676801E+01 -0.79299463972E+01  0.24954002602E+01  0.12553203905E+03  0.12509049742E+03 0.  0.
          5    1    3    3  502    0  0.14351830281E+02 -0.18462864883E+02  0.59357424256E+02  0.63934565193E+02  0.41800000000E+01 0. -1.
         -5    1    3    3    0  502 -0.20797697961E+02  0.10532918486E+02 -0.56862023996E+02  0.61597473854E+02  0.41800000000E+01 0. -1.
        -11    1    1    2    0    0  0.30636580837E+02 -0.48305024769E+01  0.75765068793E+02  0.81867450729E+02  0.00000000000E+00 0.  1.
         11    1    1    2    0    0 -0.24190713157E+02  0.12760448874E+02 -0.46584779165E+01  0.27743847516E+02  0.00000000000E+00 0. -1.
</event>
<event>
 7    1  0.2873461E-009  0.8311804E+02  0.7561462E-02  0.1320429E+00
          1   -1    0    0  501    0  0.00000000000E+00  0.00000000000E+00  0.17027539211E+02  0.17027539211E+02  0.00000000000E+00 0. -1.
         -1   -1    0    0    0  501 -0.00000000000E+00 -0.00000000000E+00 -0.10087754828E+04  0.10087754828E+04  0.00000000000E+00 0.  1.
         25    2    1    2    0    0 -0.13089316551E+02 -0.20710972532E+02 -0.81849612729E+03  0.82836198151E+03  0.12508951768E+03 0.  0.
          5    1    3    3  502    0 -0.36788311359E+02  0.39853708071E+01 -0.71911548643E+02  0.80981518024E+02  0.41800000000E+01 0.  1.
         -5    1    3    3    0  502  0.23698994809E+02 -0.24696343339E+02 -0.74658457864E+03  0.74738046348E+03  0.41800000000E+01 0.  1.
        -11    1    1    2    0    0 -0.37914380217E+02  0.21339926389E+02 -0.73744992820E+02  0.85622524207E+02  0.00000000000E+00 0. -1.
         11    1    1    2    0    0  0.51003696767E+02 -0.62895385671E+00 -0.99506823466E+02  0.11181851628E+03  0.00000000000E+00 0.  1.
</event>
<event>
 7    1  0.2873461E-009  0.1026378E+03  0.7561462E-02  0.1274845E+00
          2   -1    0    0  501    0  0.00000000000E+00  0.00000000000E+00  0.79509713099E+02  0.79509713099E+02  0.00000000000E+00 0. -1.
         -2   -1    0    0    0  501 -0.00000000000E+00 -0.00000000000E+00 -0.14831828448E+03  0.14831828448E+03  0.00000000000E+00 0.  1.
         25    2    1    2    0    0 -0.12371286400E+02 -0.20112689877E+02 -0.31235636116E+02  0.13107606430E+03  0.12509076964E+03 0.  0.
          5    1    3    3  502    0  0.44328351969E+02 -0.42152877431E+02  0.25482015885E+01  0.61366388156E+02  0.41800000000E+01 0.  1.
         -5    1    3    3    0  502 -0.56699638368E+02  0.22040187554E+02 -0.33783837704E+02  0.69709676147E+02  0.41800000000E+01 0.  1.
        -11    1    1    2    0    0  0.45984048256E+02  0.54199103214E+01 -0.38255953464E+02  0.60061852264E+02  0.00000000000E+00 0.  1.
         11    1    1    2    0    0 -0.33612761857E+02  0.14692779555E+02  0.68301819965E+00  0.36690081010E+02  0.00000000000E+00 0. -1.
</event>
<event>
 7    1  0.2873461E-009  0.3521095E+03  0.7561462E-02  0.1061753E+00
         -1   -1    0    0    0  501 -0.00000000000E+00  0.00000000000E+00  0.45810106841E+03  0.45810106841E+03  0.00000000000E+00 0.  1.
          1   -1    0    0  501    0  0.00000000000E+00 -0.00000000000E+00 -0.45681836895E+03  0.45681836895E+03  0.00000000000E+00 0. -1.
         25    2    1    2    0    0 -0.26461493251E+03  0.21592364109E+03  0.28426858743E+03  0.46162624039E+03  0.12508427054E+03 0.  0.
          5    1    3    3  502    0 -0.11695709192E+02 -0.80967034660E+01  0.45583269244E+02  0.47933840400E+02  0.41800000000E+01 0. -1.
         -5    1    3    3    0  502 -0.25291922331E+03  0.22402034455E+03  0.23868531818E+03  0.41369239999E+03  0.41800000000E+01 0. -1.
        -11    1    1    2    0    0  0.16543645773E+03 -0.81423059912E+02 -0.17577221779E+03  0.25474459519E+03  0.00000000000E+00 0.  1.
         11    1    1    2    0    0  0.99178474774E+02 -0.13450058117E+03 -0.10721367018E+03  0.19854860178E+03  0.00000000000E+00 0. -1.
</event>
<event>
 7    1  0.2873461E-009  0.1244058E+03  0.7561462E-02  0.1236001E+00
         -1   -1    0    0    0  501 -0.00000000000E+00  0.00000000000E+00  0.18083655798E+03  0.18083655798E+03  0.00000000000E+00 0.  1.
          1   -1    0    0  501    0  0.00000000000E+00 -0.00000000000E+00 -0.22549552796E+03  0.22549552796E+03  0.00000000000E+00 0. -1.
         25    2    1    2    0    0  0.91146928951E+02 -0.43448162033E+02  0.11447104963E+03  0.19735210196E+03  0.12509486602E+03 0.  0.
          5    1    3    3  502    0  0.45712309100E+02 -0.50018104590E+02  0.13167774367E+03  0.14814832624E+03  0.41800000000E+01 0.  1.
         -5    1    3    3    0  502  0.45434619851E+02  0.65699425564E+01 -0.17206694034E+02  0.49203775727E+02  0.41800000000E+01 0.  1.
        -11    1    1    2    0    0  0.17260758947E+02  0.14696835011E+02 -0.19650551589E+02  0.30001248916E+02  0.00000000000E+00 0.  1.
         11    1    1    2    0    0 -0.10840768790E+03  0.28751327022E+02 -0.13947946803E+03  0.17897873506E+03  0.00000000000E+00 0. -1.
</event>
<event>
 7    1  0.2873461E-009  0.9010083E+02  0.7561462E-02  0.1302608E+00
         -2   -1    0    0    0  501 -0.00000000000E+00  0.00000000000E+00  0.11767965527E+02  0.11767965527E+02  0.00000000000E+00 0.  1.
          2   -1    0    0  501    0  0.00000000000E+00 -0.00000000000E+00 -0.21841166638E+04  0.21841166638E+04  0.00000000000E+00 0. -1.
         25    2    1    2    0    0  0.23719645300E+02  0.32353943238E+02 -0.19496657513E+04  0.19540864618E+04  0.12509180284E+03 0.  0.
          5    1    3    3  502    0 -0.26904529247E+02 -0.35990890552E+01 -0.14870514580E+04  0.14873050522E+04  0.41800000000E+01 0. -1.
         -5    1    3    3    0  502  0.50624174548E+02  0.35953032293E+02 -0.46261429328E+03  0.46678140957E+03  0.41800000000E+01 0. -1.
        -11    1    1    2    0    0  0.24354334607E+02 -0.34676947370E+02 -0.71229348033E+02  0.82880904400E+02  0.00000000000E+00 0.  1.
         11    1    1    2    0    0 -0.48073979907E+02  0.23230041312E+01 -0.15145359902E+03  0.15891726322E+03  0.00000000000E+00 0. -1.
</event>
<event>
 7    1  0.2873461E-009  0.1357319E+03  0.7561462E-02  0.1219190E+00
          2   -1    0    0  501    0  0.00000000000E+00  0.00000000000E+00  0.25585014812E+03  0.25585014812E+03  0.00000000000E+00 0. -1.
         -2   -1    0    0    0  501 -0.00000000000E+00 -0.00000000000E+00 -0.84074907907E+02  0.84074907907E+02  0.00000000000E+00 0.  1.
         25    2    1    2    0    0 -0.49416198354E+01  0.95340448650E+02  0.12133260424E+03  0.19870502611E+03  0.12509142974E+03 0.  0.
          5    1    3    3  502    0  0.53292433920E+02  0.80124742047E+02  0.65327461118E+02  0.11638387937E+03  0.41800000000E+01 0.  1.
         -5    1    3    3    0  502 -0.58234053755E+02  0.15215706603E+02  0.56005143118E+02  0.82321146735E+02  0.41800000000E+01 0.  1.
        -11    1    1    2    0    0  0.34336456607E+02 -0.56226428883E+02  0.62518376450E+02  0.90823735616E+02  0.00000000000E+00 0. -1.
         11    1    1    2    0    0 -0.29394836772E+02 -0.39114019767E+02 -0.12075740477E+02  0.50396294301E+02  0.00000000000E+00 0.  1.
</event>
<event>
 7    1  0.2873461E-009  0.9730653E+02  0.7561462E-02  0.1286064E+00
         -1   -1    0    0    0  501 -0.00000000000E+00  0.00000000000E+00  0.87200047768E+02  0.87200047768E+02  0.00000000000E+00 0.  1.
          1   -1    0    0  501    0  0.00000000000E+00 -0.00000000000E+00 -0.20710681908E+03  0.20710681908E+03  0.00000000000E+00 0. -1.
         25    2    1    2    0    0  0.56542104757E+02  0.23755636871E+02 -0.71444337691E+01  0.13949995231E+03  0.12509138207E+03 0.  0.
          5    1    3    3  502    0  0.39199622849E+02  0.45965161385E+02  0.48106432805E+02  0.77337621956E+02  0.41800000000E+01 0.  1.
         -5    1    3    3    0  502  0.17342481908E+02 -0.22209524514E+02 -0.55250866574E+02  0.62162330354E+02  0.41800000000E+01 0.  1.
        -11    1    1    2    0    0 -0.78477646712E+02 -0.86828206633E+01 -0.77586670371E+02  0.11069699105E+03  0.00000000000E+00 0.  1.
         11    1    1    2    0    0  0.21935541954E+02 -0.15072816208E+02 -0.35175667171E+02  0.44109923489E+02  0.00000000000E+00 0. -1.
</event>
<event>
 6    1  0.2873461E-009  0.9482024E+02  0.7561462E-02  0.1291581E+00
          1   -1    0    0  501    0  0.00000000000E+00  0.00000000000E+00  0.41737385914E+03  0.41737385914E+03  0.00000000000E+00 0. -1.
         -1   -1    0    0    0  501 -0.00000000000E+00 -0.00000000000E+00 -0.28004470871E+02  0.28004470871E+02  0.00000000000E+00 0.  1.
          5    1    1    2  502    0  0.53260614760E+02  0.10087766209E+02  0.20316401959E+03  0.21031297479E+03  0.41800000000E+01 0.  1.
         -5    1    1    2    0  502 -0.42954110203E+02 -0.12502371763E+02  0.28684730763E+02  0.53307138940E+02  0.41800000000E+01 0.  1.
        -11    1    1    2    0    0  0.39926625232E+02  0.36424222930E+01  0.62139112130E+02  0.73950469227E+02  0.00000000000E+00 0.  1.
         11    1    1    2    0    0 -0.50233129789E+02 -0.12278167391E+01  0.95381525787E+02  0.10780774705E+03  0.00000000000E+00 0. -1.
</event>
<event>
 7    1  0.2873461E-009  0.1183382E+03  0.7561462E-02  0.1245864E+00
          2   -1    0    0  501    0  0.00000000000E+00  0.00000000000E+00  0.53275782191E+03  0.53275782191E+03  0.00000000000E+00 0. -1.
         -2   -1    0    0    0  501 -0.00000000000E+00 -0.00000000000E+00 -0.37425701211E+03  0.37425701211E+03  0.00000000000E+00 0.  1.
         25    2    1    2    0    0 -0.32349241217E+00 -0.63781587549E+02 -0.35493699436E+03  0.38170123275E+03  0.12508943025E+03 0.  0.
          5    1    3    3  502    0  0.47727934923E+02 -0.15175955818E+01 -0.62047018221E+02  0.78406401132E+02  0.41800000000E+01 0. -1.
         -5    1    3    3    0  502 -0.48051427335E+02 -0.62263991968E+02 -0.29288997614E+03  0.30329483162E+03  0.41800000000E+01 0. -1.
        -11    1    1    2    0    0 -0.42055444335E+02  0.50180506784E+02  0.26871665701E+03  0.27657799156E+03  0.00000000000E+00 0.  1.
         11    1    1    2    0    0  0.42378936747E+02  0.13601080765E+02  0.24472114714E+03  0.24873560971E+03  0.00000000000E+00 0. -1.
</event>
<event>
 7    1  0.2873461E-009  0.1198227E+03  0.7561462E-02  0.1243390E+00
          1   -1    0    0  501    0  0.00000000000E+00  0.00000000000E+00  0.53945223329E+02  0.53945223329E+02  0.00000000000E+00 0. -1.
         -1   -1    0    0    0  501 -0.00000000000E+00 -0.00000000000E+00 -0.30622223599E+03  0.30622223599E+03  0.00000000000E+00 0.  1.
         25    2    1    2    0    0 -0.30305162480E+01 -0.60913375634E+02 -0.95481311676E+02  0.16877398183E+03  0.12509337593E+03 0.  0.
          5    1    3    3  502    0 -0.52817718118E+02 -0.23199486384E+01 -0.10441538598E+02  0.54051749622E+02  0.41800000000E+01 0. -1.
         -5    1    3    3    0  502  0.49787201870E+02 -0.58593426996E+02 -0.85039773078E+02  0.11472223221E+03  0.41800000000E+01 0. -1.
        -11    1    1    2    0    0  0.13352379691E+01  0.85226463726E+02 -0.12594598892E+03  0.15207802308E+03  0.00000000000E+00 0. -1.
         11    1    1    2    0    0  0.16952782789E+01 -0.24313088091E+02 -0.30849712073E+02  0.39315454416E+02  0.00000000000E+00 0.  1.
</event>
<event>
 7    1  0.2873461E-009  0.2762369E+03  0.7561462E-02  0.1097762E+00
         -2   -1    0    0    0  501 -0.00000000000E+00  0.00000000000E+00  0.11111570525E+03  0.11111570525E+03  0.00000000000E+00 0.  1.
          2   -1    0    0  501    0  0.00000000000E+00 -0.00000000000E+00 -0.71744575015E+03  0.71744575015E+03  0.00000000000E+00 0. -1.
         25    2    1    2    0    0 -0.29927086276E+02 -0.25442669820E+03 -0.37888960878E+03  0.47416607875E+03  0.12509020481E+03 0.  0.
          5    1    3    3  502    0 -0.68982801963E+02 -0.22491389955E+03 -0.30058676901E+03  0.38172603694E+03  0.41800000000E+01 0.  1.
         -5    1    3    3    0  502  0.39055715686E+02 -0.29512798658E+02 -0.78302839774E+02  0.92440041806E+02  0.41800000000E+01 0.  1.
        -11    1    1    2    0    0 -0.10221558520E+02  0.20080261666E+03 -0.14358785546E+03  0.24707011829E+03  0.00000000000E+00 0.  1.
         11    1    1    2    0    0  0.40148644797E+02  0.53624081542E+02 -0.83852580658E+02  0.10732525837E+03  0.00000000000E+00 0. -1.
</event>
<event>
 7    1  0.2873461E-009  0.3377053E+03  0.7561462E-02  0.1067778E+00
          1   -1    0    0  501    0  0.00000000000E+00  0.00000000000E+00  0.42499449055E+03  0.42499449055E+03  0.00000000000E+00 0. -1.
         -1   -1    0    0    0  501 -0.00000000000E+00 -0.00000000000E+00 -0.29307909437E+03  0.29307909437E+03  0.00000000000E+00 0.  1.
         25    2    1    2    0    0  0.32506897802E+03 -0.23456118331E+02 -0.23935628644E+02  0.34991439828E+03  0.12508853603E+03 0.  0.
          5    1    3    3  502    0  0.13026455263E+03  0.51730001997E+02 -0.11466114366E+02  0.14069040819E+03  0.41800000000E+01 0.  1.
         -5    1    3    3    0  502  0.19480442539E+03 -0.75186120328E+02 -0.12469514278E+02  0.20922399009E+03  0.41800000000E+01 0.  1.
        -11    1    1    2    0    0 -0.42426973956E+02 -0.25277227973E+01 -0.35117557873E+01  0.42647038940E+02  0.00000000000E+00 0.  1.
         11    1    1    2    0    0 -0.28264200406E+03  0.25983841129E+02  0.15936278061E+03  0.32551214771E+03  0.00000000000E+00 0. -1.
</event>
<event>
 7    1  0.2873461E-009  0.1410097E+03  0.7561462E-02  0.1211977E+00
          1   -1    0    0  501    0  0.00000000000E+00  0.00000000000E+00  0.11089753378E+03  0.11089753378E+03  0.00000000000E+00 0. -1.
         -1   -1    0    0    0  501 -0.00000000000E+00 -0.00000000000E+00 -0.28507369950E+03  0.28507369950E+03  0.00000000000E+00 0.  1.
         25    2    1    2    0    0 -0.79519680952E+02  0.79238177093E+02  0.29767363833E+01  0.16810547806E+03  0.12509405433E+03 0.  0.
          5    1    3    3  502    0  0.11107208703E+02  0.67306766834E+02  0.27024280487E+02  0.73493911875E+02  0.41800000000E+01 0. -1.
         -5    1    3    3    0  502 -0.90626889655E+02  0.11931410259E+02 -0.24047544104E+02  0.94611566189E+02  0.41800000000E+01 0. -1.
        -11    1    1    2    0    0  0.33856840898E+02 -0.66725647680E+02 -0.16151359752E+03  0.17800348288E+03  0.00000000000E+00 0.  1.
         11    1    1    2    0    0  0.45662840054E+02 -0.12512529413E+02 -0.15639304592E+02  0.49862272333E+02  0.00000000000E+00 0. -1.
</event>
<event>
 7    1  0.2873461E-009  0.1066288E+03  0.7561462E-02  0.1266943E+00
         -2   -1    0    0    0  501 -0.00000000000E+00  0.00000000000E+00  0.18672361522E+04  0.18672361522E+04  0.00000000000E+00 0.  1.
          2   -1    0    0  501    0  0.00000000000E+00 -0.00000000000E+00 -0.72411266842E+01  0.72411266842E+01  0.00000000000E+00 0. -1.
         25    2    1    2    0    0 -0.17123732082E+02 -0.30575176274E+02  0.14440911897E+04  0.14499223264E+04  0.12508926761E+03 0.  0.
          5    1    3    3  502    0  0.35073805437E+01 -0.76937494099E+02  0.74602792821E+03  0.75000454784E+03  0.41800000000E+01 0.  1.
         -5    1    3    3    0  502 -0.20631112626E+02  0.46362317825E+02  0.69806326150E+03  0.69991777858E+03  0.41800000000E+01 0.  1.
        -11    1    1    2    0    0 -0.26315922501E+02 -0.75870288089E+01  0.14122405150E+03  0.14385521717E+03  0.00000000000E+00 0.  1.
         11    1    1    2    0    0  0.43439654583E+02  0.38162205083E+02  0.27467978431E+03  0.28069973530E+03  0.00000000000E+00 0. -1.
</event>
<event>
 7    1  0.2873461E-009  0.1073833E+03  0.7561462E-02  0.1265494E+00
          2   -1    0    0  501    0  0.00000000000E+00  0.00000000000E+00  0.45389512727E+02  0.45389512727E+02  0.00000000000E+00 0. -1.
         -2   -1    0    0    0  501 -0.00000000000E+00 -0.00000000000E+00 -0.33320281351E+03  0.33320281351E+03  0.00000000000E+00 0.  1.
         25    2    1    2    0    0 -0.18150046975E+02  0.54033005913E+02 -0.14239133191E+03  0.19791847634E+03  0.12508973555E+03 0.  0.
          5    1    3    3  502    0  0.46530664228E+02  0.55318313025E+02 -0.80820990483E+02  0.10851139743E+03  0.41800000000E+01 0. -1.
         -5    1    3    3    0  502 -0.64680711204E+02 -0.12853071115E+01 -0.61570341422E+02  0.89407078909E+02  0.41800000000E+01 0. -1.
        -11    1    1    2    0    0 -0.68861909873E+01 -0.51955114731E+02 -0.25750447924E+02  0.58393827938E+02  0.00000000000E+00 0. -1.
         11    1    1    2    0    0  0.25036237963E+02 -0.20778911826E+01 -0.11967152095E+03  0.12228002196E+03  0.00000000000E+00 0.  1.
</event>
<event>
 7    1  0.2873461E-009  0.1094379E+03  0.7561462E-02  0.1261614E+00
         -2   -1    0    0    0  501 -0.00000000000E+00  0.00000000000E+00  0.29411549610E+03  0.29411549610E+03  0.00000000000E+00 0.  1.
          2   -1    0    0  501    0  0.00000000000E+00 -0.00000000000E+00 -0.67760716552E+02  0.67760716552E+02  0.00000000000E+00 0. -1.
         25    2    1    2    0    0  0.88202846061E+02 -0.96920345253E+01  0.95941890187E+02  0.18090288685E+03  0.12508929047E+03 0.  0.
          5    1    3    3  502    0  0.61469963664E+02 -0.31064907062E+02  0.12030188293E+03  0.13868525631E+03  0.41800000000E+01 0. -1.
         -5    1    3    3    0  502  0.26732882397E+02  0.21372872537E+02 -0.24359992738E+02  0.42217630534E+02  0.41800000000E+01 0. -1.
        -11    1    1    2    0    0 -0.64770276820E+02  0.40724245425E+02  0.49289068683E+02  0.91011346636E+02  0.00000000000E+00 0. -1.
         11    1    1    2    0    0 -0.23432569240E+02 -0.31032210900E+02  0.81123820679E+02  0.89961979170E+02  0.00000000000E+00 0.  1.
</event>
<event>
 7    1  0.2873461E-009  0.1531323E+03  0.7561462E-02  0.1196676E+00
          3   -1    0    0  501    0  0.00000000000E+00  0.00000000000E+00  0.33066888405E+02  0.33066888405E+02  0.00000000000E+00 0. -1.
         -3   -1    0    0    0  501 -0.00000000000E+00 -0.00000000000E+00 -0.80663828963E+03  0.80663828963E+03  0.00000000000E+00 0.  1.
         25    2    1    2    0    0 -0.11799972546E+03 -0.72275062355E+01 -0.48686760719E+03  0.51639621459E+03  0.12509520958E+03 0.  0.
          5    1    3    3  502    0  0.88712714684E+01  0.27465344951E+02 -0.18225743153E+03  0.18457596913E+03  0.41800000000E+01 0.  1.
         -5    1    3    3    0  502 -0.12687099693E+03 -0.34692851187E+02 -0.30461017566E+03  0.33182024546E+03  0.41800000000E+01 0.  1.
        -11    1    1    2    0    0  0.10893962037E+02  0.33498282826E+02 -0.10506971581E+03  0.11081723034E+03  0.00000000000E+00 0. -1.
         11    1    1    2    0    0  0.10710576343E+03 -0.26270776590E+02 -0.18163407823E+03  0.21249173310E+03  0.00000000000E+00 0.  1.
</event>
<event>
 7    1  0.2873461E-009  0.1322940E+03  0.7561462E-02  0.1224091E+00
         -2   -1    0    0    0  501 -0.00000000000E+00  0.00000000000E+00  0.26572337833E+03  0.26572337833E+03  0.00000000000E+00 0.  1.
          2   -1    0    0  501    0  0.00000000000E+00 -0.00000000000E+00 -0.95211548494E+02  0.95211548494E+02  0.00000000000E+00 0. -1.
         25    2    1    2    0    0 -0.11165037940E+03 -0.20516657439E+02  0.80749399921E+02  0.18722777112E+03  0.12508809791E+03 0.  0.
          5    1    3    3  502    0 -0.25841848502E+02 -0.34914225552E+02  0.89609322882E+02  0.99669992612E+02  0.41800000000E+01 0.  1.
         -5    1    3    3    0  502 -0.85808530895E+02  0.14397568112E+02 -0.88599229613E+01  0.87557778505E+02  0.41800000000E+01 0.  1.
        -11    1    1    2    0    0  0.89730131458E+02  0.45498450798E+02  0.29423614577E+02  0.10482058296E+03  0.00000000000E+00 0. -1.
         11    1    1    2    0    0  0.21920247939E+02 -0.24981793358E+02  0.60338815342E+02  0.68886572756E+02  0.00000000000E+00 0.  1.
</event>
<event>
 7    1  0.2873461E-009  0.1684270E+03  0.7561462E-02  0.1179498E+00
          2   -1    0    0  501    0  0.00000000000E+00  0.00000000000E+00  0.11300873424E+04  0.11300873424E+04  0.00000000000E+00 0.  1.
         -2   -1    0    0    0  501 -0.00000000000E+00 -0.00000000000E+00 -0.29481995348E+02  0.29481995348E+02  0.00000000000E+00 0. -1.
         25    2    1    2    0    0 -0.14157872840E+03  0.31883950058E+02  0.54326648340E+03  0.57606166221E+03  0.12508974408E+03 0.  0.
          5    1    3    3  502    0 -0.33068364952E+02  0.49218755003E+02  0.78521238835E+02  0.98483805536E+02  0.41800000000E+01 0.  1.
         -5    1    3    3    0  502 -0.10851036345E+03 -0.17334804946E+02  0.46474524457E+03  0.47757785667E+03  0.41800000000E+01 0.  1.
        -11    1    1    2    0    0  0.68946580277E+02 -0.58165302123E+02  0.37069870970E+03  0.38151587998E+03  0.00000000000E+00 0.  1.
         11    1    1    2    0    0  0.72632148122E+02  0.26281352066E+02  0.18664015397E+03  0.20199179557E+03  0.00000000000E+00 0. -1.
</event>
<event>
 7    1  0.2873461E-009  0.7149145E+02  0.7561462E-02  0.1355094E+00
          1   -1    0    0  501    0  0.00000000000E+00  0.00000000000E+00  0.56584508060E+03  0.56584508060E+03  0.00000000000E+00 0. -1.
         -1   -1    0    0    0  501 -0.00000000000E+00 -0.00000000000E+00 -0.22547981025E+02  0.22547981025E+02  0.00000000000E+00 0.  1.
         25    2    1    2    0    0 -0.20317000065E+02  0.39540686650E+02  0.28580616226E+03  0.31513222210E+03  0.12508760380E+03 0.  0.
          5    1    3    3  502    0 -0.12329983277E+01  0.29230748511E+02  0.29095338056E+03  0.29245050693E+03  0.41800000000E+01 0.  1.
         -5    1    3    3    0  502 -0.19084001737E+02  0.10309938139E+02 -0.51472183001E+01  0.22681715168E+02  0.41800000000E+01 0.  1.
        -11    1    1    2    0    0  0.36349922442E+02  0.11271573568E+02  0.11501784774E+03  0.12115061094E+03  0.00000000000E+00 0. -1.
         11    1    1    2    0    0 -0.16032922378E+02 -0.50812260218E+02  0.14247308958E+03  0.15211022859E+03  0.00000000000E+00 0.  1.
</event>
<event>
 7    1  0.2873461E-009  0.1691464E+03  0.7561462E-02  0.1178741E+00
          2   -1    0    0  501    0  0.00000000000E+00  0.00000000000E+00  0.28094264912E+04  0.28094264912E+04  0.00000000000E+00 0. -1.
         -2   -1    0    0    0  501 -0.00000000000E+00 -0.00000000000E+00 -0.14135910388E+02  0.14135910388E+02  0.00000000000E+00 0.  1.
         25    2    1    2    0    0  0.11940580936E+03  0.10117212295E+03  0.18387484094E+04  0.18496320469E+04  0.12509776231E+03 0.  0.
          5    1    3    3  502    0  0.75918347559E+02  0.67848082333E+02  0.16474557578E+04  0.16506044056E+04  0.41800000000E+01 0.  1.
         -5    1    3    3    0  502  0.43487461801E+02  0.33324040612E+02  0.19129265166E+03  0.19902764129E+03  0.41800000000E+01 0.  1.
        -11    1    1    2    0    0 -0.83023042927E+01  0.17198814087E+02  0.65826926255E+02  0.68541313693E+02  0.00000000000E+00 0.  1.
         11    1    1    2    0    0 -0.11110350507E+03 -0.11837093703E+03  0.89071524513E+03  0.90538904095E+03  0.00000000000E+00 0. -1.
</event>
<event>
 7    1  0.2873461E-009  0.1008961E+03  0.7561462E-02  0.1278423E+00
         -1   -1    0    0    0  501 -0.00000000000E+00  0.00000000000E+00  0.14480034230E+03  0.14480034230E+03  0.00000000000E+00 0.  1.
          1   -1    0    0  501    0  0.00000000000E+00 -0.00000000000E+00 -0.15099954394E+03  0.15099954394E+03  0.00000000000E+00 0. -1.
         25    2    1    2    0    0  0.18369679291E+02 -0.98265938207E+02  0.89801553653E+01  0.16037985304E+03  0.12508962523E+03 0.  0.
          5    1    3    3  502    0  0.11352498923E+02 -0.73917492211E+02 -0.54018246647E+02  0.92347811330E+02  0.41800000000E+01 0.  1.
         -5    1    3    3    0  502  0.70171803679E+01 -0.24348445997E+02  0.62998402013E+02  0.68032041708E+02  0.41800000000E+01 0.  1.
        -11    1    1    2    0    0 -0.28056810204E+01  0.57576357262E+02  0.36191300108E+02  0.68064079844E+02  0.00000000000E+00 0.  1.
         11    1    1    2    0    0 -0.15563998270E+02  0.40689580945E+02 -0.51370657122E+02  0.67355953358E+02  0.00000000000E+00 0. -1.
</event>
<event>
 7    1  0.2873461E-009  0.1108606E+03  0.7561462E-02  0.1258984E+00
          1   -1    0    0  501    0  0.00000000000E+00  0.00000000000E+00  0.11328247766E+04  0.11328247766E+04  0.00000000000E+00 0. -1.
         -1   -1    0    0    0  501 -0.00000000000E+00 -0.00000000000E+00 -0.15519281243E+02  0.15519281243E+02  0.00000000000E+00 0.  1.
         25    2    1    2    0    0 -0.36543787268E+02 -0.64003708865E+01  0.84534535619E+03  0.85535532469E+03  0.12509015588E+03 0.  0.
          5    1    3    3  502    0 -0.73191596390E+02  0.29428819982E+02  0.52425153913E+03  0.53016998586E+03  0.41800000000E+01 0.  1.
         -5    1    3    3    0  502  0.36647809122E+02 -0.35829190868E+02  0.32109381706E+03  0.32518533883E+03  0.41800000000E+01 0.  1.
        -11    1    1    2    0    0 -0.25688637341E+02  0.12873078865E+02  0.24560900203E+02  0.37800265431E+02  0.00000000000E+00 0.  1.
         11    1    1    2    0    0  0.62232424609E+02 -0.64727079784E+01  0.24739923897E+03  0.25518846774E+03  0.00000000000E+00 0. -1.
</event>
<event>
 7    1  0.2873461E-009  0.9353464E+02  0.7561462E-02  0.1294511E+00
          1   -1    0    0  501    0  0.00000000000E+00  0.00000000000E+00  0.23803673476E+02  0.23803673476E+02  0.00000000000E+00 0. -1.
         -1   -1    0    0    0  501 -0.00000000000E+00 -0.00000000000E+00 -0.69042027392E+03  0.69042027392E+03  0.00000000000E+00 0.  1.
         25    2    1    2    0    0  0.33616479636E+02 -0.43080236460E+02 -0.48711320543E+03  0.50587797337E+03  0.12508906653E+03 0.  0.
          5    1    3    3  502    0  0.81060617912E+01  0.25947888578E+02 -0.34212638528E+03  0.34323015174E+03  0.41800000000E+01 0. -1.
         -5    1    3    3    0  502  0.25510417845E+02 -0.69028125038E+02 -0.14498682015E+03  0.16264782163E+03  0.41800000000E+01 0. -1.
        -11    1    1    2    0    0 -0.49419301049E+02  0.48408586659E+02 -0.17873022057E+03  0.19165111616E+03  0.00000000000E+00 0.  1.
         11    1    1    2    0    0  0.15802821413E+02 -0.53283501989E+01 -0.77317444277E+00  0.16694857866E+02  0.00000000000E+00 0. -1.
</event>
<event>
 7    1  0.2873461E-009  0.9977401E+02  0.7561462E-02  0.1280772E+00
         -1   -1    0    0    0  501 -0.00000000000E+00  0.00000000000E+00  0.68894539313E+03  0.68894539313E+03  0.00000000000E+00 0.  1.
          1   -1    0    0  501    0  0.00000000000E+00 -0.00000000000E+00 -0.18370181356E+02  0.18370181356E+02  0.00000000000E+00 0. -1.
         25    2    1    2    0    0 -0.15441975304E+02  0.19018090601E+02  0.43487767105E+03  0.45317389864E+03  0.12509137163E+03 0.  0.
          5    1    3    3  502    0  0.91936774275E+01 -0.51456066823E+02  0.16526047814E+03  0.17338035804E+03  0.41800000000E+01 0. -1.
         -5    1    3    3    0  502 -0.24635652731E+02  0.70474157424E+02  0.26961719291E+03  0.27979354060E+03  0.41800000000E+01 0. -1.
        -11    1    1    2    0    0 -0.17075095341E+02  0.16804549948E+02  0.15139895628E+02  0.28340222644E+02  0.00000000000E+00 0. -1.
         11    1    1    2    0    0  0.32517070644E+02 -0.35822640550E+02  0.22055764510E+03  0.22580145321E+03  0.00000000000E+00 0.  1.
</event>
<event>
 7    1  0.2873461E-009  0.8582591E+02  0.7561462E-02  0.1313287E+00
         -1   -1    0    0    0  501 -0.00000000000E+00  0.00000000000E+00  0.42656501314E+02  0.42656501314E+02  0.00000000000E+00 0.  1.
          1   -1    0    0  501    0  0.00000000000E+00 -0.00000000000E+00 -0.35097246535E+03  0.35097246535E+03  0.00000000000E+00 0. -1.
         25    2    1    2    0    0 -0.26738359118E+02  0.58503538284E+01 -0.25340696779E+03  0.28392501752E+03  0.12509659374E+03 0.  0.
          5    1    3    3  502    0  0.24415340887E+02 -0.34284327235E+01  0.20295994598E+00  0.25007531152E+02  0.41800000000E+01 0. -1.
         -5    1    3    3    0  502 -0.51153700005E+02  0.92787865519E+01 -0.25360992773E+03  0.25891748637E+03  0.41800000000E+01 0. -1.
        -11    1    1    2    0    0 -0.33495170025E+02 -0.71132099414E+01 -0.25297872660E+02  0.42573542627E+02  0.00000000000E+00 0. -1.
         11    1    1    2    0    0  0.60233529143E+02  0.12628561130E+01 -0.29611123591E+02  0.67130406515E+02  0.00000000000E+00 0.  1.
</event>
<event>
 7    1  0.2873461E-009  0.1285163E+03  0.7561462E-02  0.1229674E+00
         -2   -1    0    0    0  501 -0.00000000000E+00  0.00000000000E+00  0.29031014137E+03  0.29031014137E+03  0.00000000000E+00 0. -1.
          2   -1    0    0  501    0  0.00000000000E+00 -0.00000000000E+00 -0.70774804436E+02  0.70774804436E+02  0.00000000000E+00 0.  1.
         25    2    1    2    0    0  0.44485907683E+02 -0.70160396515E+02  0.68301160392E+02  0.16496696485E+03  0.12509026244E+03 0.  0.
          5    1    3    3  502    0 -0.34636668008E+01 -0.89877569421E+02  0.16465573552E+02  0.91534485223E+02  0.41800000000E+01 0. -1.
         -5    1    3    3    0  502  0.47949574483E+02  0.19717172906E+02  0.51835586840E+02  0.73432479623E+02  0.41800000000E+01 0. -1.
        -11    1    1    2    0    0  0.23051068301E+02  0.23302531539E+02  0.83169834445E+02  0.89395643561E+02  0.00000000000E+00 0. -1.
         11    1    1    2    0    0 -0.67536975983E+02  0.46857864976E+02  0.68064342098E+02  0.10672233740E+03  0.00000000000E+00 0.  1.
</event>
<event>
 7    1  0.2873461E-009  0.1217233E+03  0.7561462E-02  0.1240281E+00
          1   -1    0    0  501    0  0.00000000000E+00  0.00000000000E+00  0.10603838787E+03  0.10603838787E+03  0.00000000000E+00 0. -1.
         -1   -1    0    0    0  501 -0.00000000000E+00 -0.00000000000E+00 -0.14732597390E+03  0.14732597390E+03  0.00000000000E+00 0.  1.
         25    2    1    2    0    0  0.27446420834E+02 -0.51804064359E+02 -0.40644964051E+02  0.14400034537E+03  0.12508844576E+03 0.  0.
          5    1    3    3  502    0  0.66614914806E+02  0.57341808909E+01 -0.30230295094E+02  0.73496740381E+02  0.41800000000E+01 0. -1.
         -5    1    3    3    0  502 -0.39168493972E+02 -0.57538245250E+02 -0.10414668958E+02  0.70503604985E+02  0.41800000000E+01 0. -1.
        -11    1    1    2    0    0  0.28696041554E+02  0.40206929747E+02 -0.12203775921E+02  0.50882139767E+02  0.00000000000E+00 0.  1.
         11    1    1    2    0    0 -0.56142462388E+02  0.11597134611E+02  0.11561153935E+02  0.58481876633E+02  0.00000000000E+00 0. -1.
</event>
<event>
 7    1  0.2873461E-009  0.1438139E+03  0.7561462E-02  0.1208287E+00
          1   -1    0    0  501    0  0.00000000000E+00  0.00000000000E+00  0.11398733067E+04  0.11398733067E+04  0.00000000000E+00 0. -1.
         -1   -1    0    0    0  501 -0.00000000000E+00 -0.00000000000E+00 -0.34373681593E+02  0.34373681593E+02  0.00000000000E+00 0.  1.
         25    2    1    2    0    0  0.10689722171E+03 -0.48993077031E+02  0.92042141431E+03  0.93629666779E+03  0.12509409491E+03 0.  0.
          5    1    3    3  502    0  0.11680858503E+03 -0.19289847147E+02  0.46753749212E+03  0.48231226677E+03  0.41800000000E+01 0. -1.
         -5    1    3    3    0  502 -0.99113633124E+01 -0.29703229885E+02  0.45288392219E+03  0.45398440102E+03  0.41800000000E+01 0. -1.
        -11    1    1    2    0    0 -0.87903203249E+02  0.31606268201E+01  0.15946728435E+03  0.18211748263E+03  0.00000000000E+00 0. -1.
         11    1    1    2    0    0 -0.18994018465E+02  0.45832450211E+02  0.25610926425E+02  0.55832837848E+02  0.00000000000E+00 0.  1.
</event>
<event>
 7    1  0.2873461E-009  0.3265144E+03  0.7561462E-02  0.1072690E+00
          1   -1    0    0  501    0  0.00000000000E+00  0.00000000000E+00  0.41223817373E+03  0.41223817373E+03  0.00000000000E+00 0. -1.
         -1   -1    0    0    0  501 -0.00000000000E+00 -0.00000000000E+00 -0.34174230654E+03  0.34174230654E+03  0.00000000000E+00 0.  1.
         25    2    1    2    0    0  0.10142967337E+03 -0.29319153374E+03 -0.14587788942E+03  0.36494008408E+03  0.12510656358E+03 0.  0.
          5    1    3    3  502    0  0.10940898460E+03 -0.12539403243E+03 -0.73950788314E+02  0.18215427739E+03  0.41800000000E+01 0.  1.
         -5    1    3    3    0  502 -0.79793112285E+01 -0.16779750130E+03 -0.71927101104E+02  0.18278580668E+03  0.41800000000E+01 0.  1.
        -11    1    1    2    0    0 -0.35894368207E+01  0.11645981055E+03  0.11219777609E+03  0.16175324568E+03  0.00000000000E+00 0. -1.
         11    1    1    2    0    0 -0.97840236553E+02  0.17673172319E+03  0.10417598051E+03  0.22728715051E+03  0.00000000000E+00 0.  1.
</event>
<event>
 7    1  0.2873461E-009  0.9986413E+02  0.7561462E-02  0.1280582E+00
          4   -1    0    0  501    0  0.00000000000E+00  0.00000000000E+00  0.13207636689E+03  0.13207636689E+03  0.00000000000E+00 0. -1.
         -4   -1    0    0    0  501 -0.00000000000E+00 -0.00000000000E+00 -0.12017072885E+03  0.12017072885E+03  0.00000000000E+00 0.  1.
         25    2    1    2    0    0  0.60481781897E+02 -0.39886028229E+01 -0.28939408993E+01  0.13902417663E+03  0.12508154101E+03 0.  0.
          5    1    3    3  502    0  0.44632271615E+02  0.36820544878E+02  0.45431304680E+02  0.73683566957E+02  0.41800000000E+01 0.  1.
         -5    1    3    3    0  502  0.15849510282E+02 -0.40809147701E+02 -0.48325245579E+02  0.65340609674E+02  0.41800000000E+01 0.  1.
        -11    1    1    2    0    0  0.12198424217E+01 -0.28145179796E+02  0.30901988368E+02  0.41815930533E+02  0.00000000000E+00 0. -1.
         11    1    1    2    0    0 -0.61701624318E+02  0.32133782619E+02 -0.16102409425E+02  0.71406988581E+02  0.00000000000E+00 0.  1.
</event>
<event>
 7    1  0.2873461E-009  0.1088021E+03  0.7561462E-02  0.1262804E+00
          2   -1    0    0  501    0  0.00000000000E+00  0.00000000000E+00  0.98098054831E+03  0.98098054831E+03  0.00000000000E+00 0. -1.
         -2   -1    0    0    0  501 -0.00000000000E+00 -0.00000000000E+00 -0.15795564295E+02  0.15795564295E+02  0.00000000000E+00 0.  1.
         25    2    1    2    0    0  0.66751871555E+01 -0.37838497506E+02  0.70776003012E+03  0.71975562458E+03  0.12509032281E+03 0.  0.
          5    1    3    3  502    0  0.63864463188E+01  0.43647132562E+02  0.16283891105E+03  0.16875971743E+03  0.41800000000E+01 0.  1.
         -5    1    3    3    0  502  0.28874083672E+00 -0.81485630067E+02  0.54492111907E+03  0.55099590714E+03  0.41800000000E+01 0.  1.
        -11    1    1    2    0    0 -0.36462444836E+02  0.47955326719E+02  0.22015559069E+03  0.22824922203E+03  0.00000000000E+00 0.  1.
         11    1    1    2    0    0  0.29787257680E+02 -0.10116829213E+02  0.37269363206E+02  0.48771266000E+02  0.00000000000E+00 0. -1.
</event>
<event>
 7    1  0.2873461E-009  0.1082029E+03  0.7561462E-02  0.1263934E+00
         -1   -1    0    0    0  501 -0.00000000000E+00  0.00000000000E+00  0.28764997211E+02  0.28764997211E+02  0.00000000000E+00 0.  1.
          1   -1    0    0  501    0  0.00000000000E+00 -0.00000000000E+00 -0.65536133263E+03  0.65536133263E+03  0.00000000000E+00 0. -1.
         25    2    1    2    0    0  0.57845580577E+02  0.15100305557E+02 -0.19558245276E+03  0.23973732247E+03  0.12508939818E+03 0.  0.
          5    1    3    3  502    0  0.79264800839E+02  0.30775872270E+02 -0.19509804276E+03  0.21286329335E+03  0.41800000000E+01 0. -1.
         -5    1    3    3    0  502 -0.21419220262E+02 -0.15675566713E+02 -0.48441000201E+00  0.26874029126E+02  0.41800000000E+01 0. -1.
        -11    1    1    2    0    0 -0.66140745018E+02  0.19394393287E+02 -0.22425311905E+03  0.23460648338E+03  0.00000000000E+00 0. -1.
         11    1    1    2    0    0  0.82951644402E+01 -0.34494698844E+02 -0.20676076361E+03  0.20978252399E+03  0.00000000000E+00 0.  1.
</event>
<event>
 7    1  0.2873461E-009  0.1411226E+03  0.7561462E-02  0.1211826E+00
         -2   -1    0    0    0  501 -0.00000000000E+00  0.00000000000E+00  0.48610402180E+02  0.48610402180E+02  0.00000000000E+00 0.  1.
          2   -1    0    0  501    0  0.00000000000E+00 -0.00000000000E+00 -0.53809259717E+03  0.53809259717E+03  0.00000000000E+00 0. -1.
         25    2    1    2    0    0 -0.10464324044E+03 -0.57517605576E+02 -0.27913988738E+03  0.32836855506E+03  0.12509335914E+03 0.  0.
          5    1    3    3  502    0 -0.11040070589E+03 -0.24861934237E+02 -0.27137747987E+03  0.29405720636E+03  0.41800000000E+01 0. -1.
         -5    1    3    3    0  502  0.57574654465E+01 -0.32655671338E+02 -0.77624075178E+01  0.34311348697E+02  0.41800000000E+01 0. -1.
        -11    1    1    2    0    0  0.38263142041E+02  0.57659691518E+02 -0.16216799497E+03  0.17631553153E+03  0.00000000000E+00 0.  1.
         11    1    1    2    0    0  0.66380098404E+02 -0.14208594265E+00 -0.48174312627E+02  0.82018912756E+02  0.00000000000E+00 0. -1.
</event>
<event>
 7    1  0.2873461E-009  0.1135772E+03  0.7561462E-02  0.1254085E+00
         -2   -1    0    0    0  501 -0.00000000000E+00  0.00000000000E+00  0.57171068354E+02  0.57171068354E+02  0.00000000000E+00 0.  1.
          2   -1    0    0  501    0  0.00000000000E+00 -0.00000000000E+00 -0.37696930866E+03  0.37696930866E+03  0.00000000000E+00 0. -1.
         25    2    1    2    0    0 -0.73292546207E+02  0.11216310161E+02 -0.26957088277E+03  0.30629339463E+03  0.12509828061E+03 0.  0.
          5    1    3    3  502    0  0.24956407816E+02  0.56212539262E+00 -0.14517677097E+03  0.14736656848E+03  0.41800000000E+01 0. -1.
         -5    1    3    3    0  502 -0.98248954023E+02  0.10654184768E+02 -0.12439411180E+03  0.15892682615E+03  0.41800000000E+01 0. -1.
        -11    1    1    2    0    0  0.33438401045E+01 -0.30253628775E+02  0.11595829434E+02  0.32571867938E+02  0.00000000000E+00 0.  1.
         11    1    1    2    0    0  0.69948706103E+02  0.19037318614E+02 -0.61823186967E+02  0.95275114443E+02  0.00000000000E+00 0. -1.
</event>
<event>
 7    1  0.2873461E-009  0.1411620E+03  0.7561462E-02  0.1211774E+00
          1   -1    0    0  501    0  0.00000000000E+00  0.00000000000E+00  0.96511631262E+02  0.96511631262E+02  0.00000000000E+00 0. -1.
         -1   -1    0    0    0  501 -0.00000000000E+00 -0.00000000000E+00 -0.25842012649E+03  0.25842012649E+03  0.00000000000E+00 0.  1.
         25    2    1    2    0    0 -0.11432385838E+03 -0.13533147483E+02 -0.87309746537E+02  0.19110818914E+03  0.12508500087E+03 0.  0.
          5    1    3    3  502    0 -0.49490075304E+02  0.30339708332E+02 -0.95968094984E+02  0.11223686164E+03  0.41800000000E+01 0.  1.
         -5    1    3    3    0  502 -0.64833783074E+02 -0.43872855815E+02  0.86583484469E+01  0.78871327508E+02  0.41800000000E+01 0.  1.
        -11    1    1    2    0    0  0.39202192177E+02 -0.38027051679E+02 -0.24705410449E+02  0.59943522055E+02  0.00000000000E+00 0.  1.
         11    1    1    2    0    0  0.75121666200E+02  0.51560199162E+02 -0.49893338239E+02  0.10388004655E+03  0.00000000000E+00 0. -1.
</event>
<event>
 7    1  0.2873461E-009  0.1359520E+03  0.7561462E-02  0.1218882E+00
         -1   -1    0    0    0  501 -0.00000000000E+00  0.00000000000E+00  0.24829830998E+03  0.24829830998E+03  0.00000000000E+00 0.  1.
          1   -1    0    0  501    0  0.00000000000E+00 -0.00000000000E+00 -0.11657160293E+03  0.11657160293E+03  0.00000000000E+00 0. -1.
         25    2    1    2    0    0  0.73517419233E+02 -0.10360096653E+03  0.10517865922E+03  0.20700093834E+03  0.12509543127E+03 0.  0.
          5    1    3    3  502    0  0.59051149551E+02 -0.92918916220E+02  0.10652102201E+02  0.11068831436E+03  0.41800000000E+01 0.  1.
         -5    1    3    3    0  502  0.14466269682E+02 -0.10682050307E+02  0.94526557015E+02  0.96312623982E+02  0.41800000000E+01 0.  1.
        -11    1    1    2    0    0 -0.51372834590E+02  0.17357260280E+02  0.40580080636E+02  0.67728764662E+02  0.00000000000E+00 0.  1.
         11    1    1    2    0    0 -0.22144584643E+02  0.86243706247E+02 -0.14032032808E+02  0.90140209901E+02  0.00000000000E+00 0. -1.
</event>
<event>
 7    1  0.2873461E-009  0.1012192E+03  0.7561462E-02  0.1277753E+00
          1   -1    0    0  501    0  0.00000000000E+00  0.00000000000E+00  0.13454397999E+03  0.13454397999E+03  0.00000000000E+00 0. -1.
         -1   -1    0    0    0  501 -0.00000000000E+00 -0.00000000000E+00 -0.11047680928E+03  0.11047680928E+03  0.00000000000E+00 0.  1.
         25    2    1    2    0    0 -0.14165924975E+02  0.53298764093E+02  0.15758810812E+02  0.13761067877E+03  0.12508767769E+03 0.  0.
          5    1    3    3  502    0  0.37599230727E+02 -0.20633769699E+02  0.19243193151E+02  0.47193511057E+02  0.41800000000E+01 0.  1.
         -5    1    3    3    0  502 -0.51765155703E+02  0.73932533791E+02 -0.34843823385E+01  0.90417167717E+02  0.41800000000E+01 0.  1.
        -11    1    1    2    0    0 -0.12256844074E+02 -0.34378440463E+02 -0.36789622225E+02  0.51822617638E+02  0.00000000000E+00 0.  1.
         11    1    1    2    0    0  0.26422769049E+02 -0.18920323630E+02  0.45097982119E+02  0.55587492853E+02  0.00000000000E+00 0. -1.
</event>
<event>
 7    1  0.2873461E-009  0.1493545E+03  0.7561462E-02  0.1201268E+00
          2   -1    0    0  501    0  0.00000000000E+00  0.00000000000E+00  0.41146745798E+03  0.41146745798E+03  0.00000000000E+00 0. -1.
         -2   -1    0    0    0  501 -0.00000000000E+00 -0.00000000000E+00 -0.58068766762E+02  0.58068766762E+02  0.00000000000E+00 0.  1.
         25    2    1    2    0    0  0.10509055332E+03  0.31682933727E+02  0.22171898187E+03  0.27721644616E+03  0.12506725555E+03 0.  0.
          5    1    3    3  502    0 -0.21000300396E+02 -0.18830881825E+02  0.23847732095E+02  0.37172590078E+02  0.41800000000E+01 0.  1.
         -5    1    3    3    0  502  0.12609085372E+03  0.50513815552E+02  0.19787124978E+03  0.24004385608E+03  0.41800000000E+01 0.  1.
        -11    1    1    2    0    0 -0.10426700341E+03 -0.16775807500E+01  0.12261916108E+03  0.16096546506E+03  0.00000000000E+00 0.  1.
         11    1    1    2    0    0 -0.82354990877E+00 -0.30005352977E+02  0.90605482660E+01  0.31354313524E+02  0.00000000000E+00 0. -1.
</event>
<event>
 7    1  0.2873461E-009  0.5247541E+02  0.7561462E-02  0.1432429E+00
         -1   -1    0    0    0  501 -0.00000000000E+00  0.00000000000E+00  0.28775103784E+02  0.28775103784E+02  0.00000000000E+00 0.  1.
          1   -1    0    0  501    0  0.00000000000E+00 -0.00000000000E+00 -0.44697409419E+03  0.44697409419E+03  0.00000000000E+00 0. -1.
         25    2    1    2    0    0 -0.24287977323E+02 -0.31125266153E+02 -0.22680450230E+03  0.26200253015E+03  0.12508539285E+03 0.  0.
          5    1    3    3  502    0 -0.22397947901E+02 -0.13932571571E+02 -0.23896323792E+03  0.24045100561E+03  0.41800000000E+01 0.  1.
         -5    1    3    3    0  502 -0.18900294226E+01 -0.17192694582E+02  0.12158735618E+02  0.21551524541E+02  0.41800000000E+01 0.  1.
        -11    1    1    2    0    0  0.29592592490E+02  0.73678533710E+00 -0.12367545136E+02  0.32081467479E+02  0.00000000000E+00 0.  1.
         11    1    1    2    0    0 -0.53046151670E+01  0.30388480816E+02 -0.17902694297E+03  0.18166520035E+03  0.00000000000E+00 0. -1.
</event>
<event>
 7    1  0.2873461E-009  0.1955417E+03  0.7561462E-02  0.1153556E+00
          2   -1    0    0  501    0  0.00000000000E+00  0.00000000000E+00  0.24037117547E+03  0.24037117547E+03  0.00000000000E+00 0. -1.
         -2   -1    0    0    0  501 -0.00000000000E+00 -0.00000000000E+00 -0.18850238160E+03  0.18850238160E+03  0.00000000000E+00 0.  1.
         25    2    1    2    0    0  0.45056403372E+02  0.15807575492E+03 -0.48500444361E+02  0.21217284283E+03  0.12508796245E+03 0.  0.
          5    1    3    3  502    0  0.14942886523E+01 -0.20360023548E+02  0.37287837955E+01  0.21169310004E+02  0.41800000000E+01 0.  1.
         -5    1    3    3    0  502  0.43562114720E+02  0.17843577847E+03 -0.52229228156E+02  0.19100353282E+03  0.41800000000E+01 0.  1.
        -11    1    1    2    0    0 -0.64880105201E+02 -0.66816185601E+02  0.75942665997E+02  0.12017120798E+03  0.00000000000E+00 0.  1.
         11    1    1    2    0    0  0.19823701829E+02 -0.91259569321E+02  0.24426572232E+02  0.96529506256E+02  0.00000000000E+00 0. -1.
</event>
<event>
 7    1  0.2873461E-009  0.7966297E+02  0.7561462E-02  0.1330011E+00
          2   -1    0    0  501    0  0.00000000000E+00  0.00000000000E+00  0.39874891550E+03  0.39874891550E+03  0.00000000000E+00 0.  1.
         -2   -1    0    0    0  501 -0.00000000000E+00 -0.00000000000E+00 -0.43471026914E+02  0.43471026914E+02  0.00000000000E+00 0. -1.
         25    2    1    2    0    0 -0.69479693076E+02 -0.59192877181E+01  0.22664910578E+03  0.26810517802E+03  0.12509238032E+03 0.  0.
          5    1    3    3  502    0 -0.33974228664E+02 -0.72076452365E+01  0.22956290759E+03  0.23221283191E+03  0.41800000000E+01 0.  1.
         -5    1    3    3    0  502 -0.35505464412E+02  0.12883575183E+01 -0.29138018111E+01  0.35892346109E+02  0.41800000000E+01 0.  1.
        -11    1    1    2    0    0  0.89999414129E+00  0.18775221371E+02  0.94665325991E+02  0.96513433635E+02  0.00000000000E+00 0.  1.
         11    1    1    2    0    0  0.68579698935E+02 -0.12855933653E+02  0.33963456810E+02  0.77601330752E+02  0.00000000000E+00 0. -1.
</event>
<event>
 7    1  0.2873461E-009  0.9708723E+02  0.7561462E-02  0.1286543E+00
         -1   -1    0    0    0  501 -0.00000000000E+00  0.00000000000E+00  0.19337800111E+03  0.19337800111E+03  0.00000000000E+00 0.  1.
          1   -1    0    0  501    0  0.00000000000E+00 -0.00000000000E+00 -0.97765475610E+02  0.97765475610E+02  0.00000000000E+00 0. -1.
         25    2    1    2    0    0  0.28637451083E+01  0.28111925403E+02 -0.32033851596E+02  0.13218607633E+03  0.12509400362E+03 0.  0.
          5    1    3    3  502    0  0.11514097379E+02  0.64450733175E+02  0.19463145414E+02  0.68430679338E+02  0.41800000000E+01 0. -1.
         -5    1    3    3    0  502 -0.86503522711E+01 -0.36338807772E+02 -0.51496997010E+02  0.63755396993E+02  0.41800000000E+01 0. -1.
        -11    1    1    2    0    0 -0.44444382963E+02 -0.19426627493E+02  0.89812566131E+02  0.10207347387E+03  0.00000000000E+00 0.  1.
         11    1    1    2    0    0  0.41580637855E+02 -0.86852979099E+01  0.37833810965E+02  0.56883926520E+02  0.00000000000E+00 0. -1.
</event>
<event>
 7    1  0.2873461E-009  0.1163581E+03  0.7561462E-02  0.1249229E+00
          4   -1    0    0  501    0  0.00000000000E+00  0.00000000000E+00  0.14874300702E+02  0.14874300702E+02  0.00000000000E+00 0. -1.
         -4   -1    0    0    0  501 -0.00000000000E+00 -0.00000000000E+00 -0.12055852289E+04  0.12055852289E+04  0.00000000000E+00 0.  1.
         25    2    1    2    0    0  0.65472824214E+02 -0.30864964548E+02 -0.78937645226E+03  0.80249765364E+03  0.12509182218E+03 0.  0.
          5    1    3    3  502    0  0.26115146021E+02  0.37234721255E+02 -0.11822552031E+03  0.12674056719E+03  0.41800000000E+01 0. -1.
         -5    1    3    3    0  502  0.39357678194E+02 -0.68099685804E+02 -0.67115093194E+03  0.67575708645E+03  0.41800000000E+01 0. -1.
        -11    1    1    2    0    0 -0.33555139187E+02  0.57588135513E+02 -0.16437713155E+03  0.17737582161E+03  0.00000000000E+00 0. -1.
         11    1    1    2    0    0 -0.31917685027E+02 -0.26723170965E+02 -0.23695734444E+03  0.24058605439E+03  0.00000000000E+00 0.  1.
</event>
<event>
 7    1  0.2873461E-009  0.8768197E+02  0.7561462E-02  0.1308564E+00
          1   -1    0    0  501    0  0.00000000000E+00  0.00000000000E+00  0.28157744877E+03  0.28157744877E+03  0.00000000000E+00 0. -1.
         -1   -1    0    0    0  501 -0.00000000000E+00 -0.00000000000E+00 -0.54373963055E+02  0.54373963055E+02  0.00000000000E+00 0.  1.
         25    2    1    2    0    0  0.35180586958E+02  0.32543100795E+02  0.11821818453E+03  0.17866138389E+03  0.12509046259E+03 0.  0.
          5    1    3    3  502    0 -0.11677252709E+02 -0.20198818875E+02 -0.14863560863E+02  0.27977640291E+02  0.41800000000E+01 0. -1.
         -5    1    3    3    0  502  0.46857839667E+02  0.52741919670E+02  0.13308174539E+03  0.15068374360E+03  0.41800000000E+01 0. -1.
        -11    1    1    2    0    0 -0.32784559031E+02  0.13082545851E+02 -0.38962531834E+01  0.35512830156E+02  0.00000000000E+00 0.  1.
         11    1    1    2    0    0 -0.23960279269E+01 -0.45625646645E+02  0.11288155438E+03  0.12177719778E+03  0.00000000000E+00 0. -1.
</event>
<event>
 7    1  0.2873461E-009  0.1430539E+03  0.7561462E-02  0.1209278E+00
          1   -1    0    0  501    0  0.00000000000E+00  0.00000000000E+00  0.43809790231E+03  0.43809790231E+03  0.00000000000E+00 0. -1.
         -1   -1    0    0    0  501 -0.00000000000E+00 -0.00000000000E+00 -0.69096006282E+02  0.69096006282E+02  0.00000000000E+00 0.  1.
         25    2    1    2    0    0  0.69453799502E+02  0.70377186034E+02  0.56481321391E+02  0.16915836693E+03  0.12509050667E+03 0.  0.
          5    1    3    3  502    0  0.44112258588E+02  0.10518245039E+03  0.28493345734E+02  0.11763750413E+03  0.41800000000E+01 0. -1.
         -5    1    3    3    0  502  0.25341540914E+02 -0.34805264352E+02  0.27987975657E+02  0.51520862803E+02  0.41800000000E+01 0. -1.
        -11    1    1    2    0    0  0.18711539971E+02 -0.19036360947E+02  0.70881757750E+02  0.75741193203E+02  0.00000000000E+00 0. -1.
         11    1    1    2    0    0 -0.88165339473E+02 -0.51340825087E+02  0.24163881689E+03  0.26229434846E+03  0.00000000000E+00 0.  1.
</event>
<event>
 7    1  0.2873461E-009  0.1124588E+03  0.7561462E-02  0.1256083E+00
         -2   -1    0    0    0  501 -0.00000000000E+00  0.00000000000E+00  0.14534348447E+02  0.14534348447E+02  0.00000000000E+00 0.  1.
          2   -1    0    0  501    0  0.00000000000E+00 -0.00000000000E+00 -0.90092339943E+03  0.90092339943E+03  0.00000000000E+00 0. -1.
         25    2    1    2    0    0  0.16238263137E+01  0.35034802035E+02 -0.54745894085E+03  0.56266256549E+03  0.12509115284E+03 0.  0.
          5    1    3    3  502    0 -0.39454663437E+02 -0.31144539097E+02 -0.25757153154E+03  0.26246374806E+03  0.41800000000E+01 0.  1.
         -5    1    3    3    0  502  0.41078489751E+02  0.66179341131E+02 -0.28988740931E+03  0.30019881743E+03  0.41800000000E+01 0.  1.
        -11    1    1    2    0    0  0.26595195847E+02 -0.55548583519E+02 -0.24415912555E+03  0.25180672779E+03  0.00000000000E+00 0. -1.
         11    1    1    2    0    0 -0.28219022161E+02  0.20513781484E+02 -0.94770984584E+02  0.10098845459E+03  0.00000000000E+00 0.  1.
</event>
<event>
 7    1  0.2873461E-009  0.1043167E+03  0.7561462E-02  0.1271472E+00
          2   -1    0    0  501    0  0.00000000000E+00  0.00000000000E+00  0.12894613676E+03  0.12894613676E+03  0.00000000000E+00 0. -1.
         -2   -1    0    0    0  501 -0.00000000000E+00 -0.00000000000E+00 -0.10967337222E+03  0.10967337222E+03  0.00000000000E+00 0.  1.
         25    2    1    2    0    0 -0.44929533410E+02  0.19788307782E+02  0.12336097967E+02  0.13494469467E+03  0.12509057203E+03 0.  0.
          5    1    3    3  502    0 -0.48305673188E+02  0.57197777284E+02 -0.27655244206E+02  0.79920640141E+02  0.41800000000E+01 0.  1.
         -5    1    3    3    0  502  0.33761397773E+01 -0.37409469503E+02  0.39991342173E+02  0.55024054531E+02  0.41800000000E+01 0.  1.
        -11    1    1    2    0    0 -0.19674227273E+02  0.12827463110E+02 -0.15222414493E+02  0.27988228448E+02  0.00000000000E+00 0.  1.
         11    1    1    2    0    0  0.64603760684E+02 -0.32615770892E+02  0.22159081075E+02  0.75686585862E+02  0.00000000000E+00 0. -1.
</event>
<event>
 7    1  0.2873461E-009  0.1037869E+03  0.7561462E-02  0.1272528E+00
          3   -1    0    0  501    0  0.00000000000E+00  0.00000000000E+00  0.25473637360E+03  0.25473637360E+03  0.00000000000E+00 0. -1.
         -3   -1    0    0    0  501 -0.00000000000E+00 -0.00000000000E+00 -0.75867562958E+02  0.75867562958E+02  0.00000000000E+00 0.  1.
         25    2    1    2    0    0  0.74393053909E+02  0.29183276820E+02  0.60103530925E+02  0.16014361694E+03  0.12509018147E+03 0.  0.
          5    1    3    3  502    0  0.76295198039E+02  0.15371937699E+02  0.94676983956E+02  0.12263138833E+03  0.41800000000E+01 0. -1.
         -5    1    3    3    0  502 -0.19021441300E+01  0.13811339121E+02 -0.34573453031E+02  0.37512228608E+02  0.41800000000E+01 0. -1.
        -11    1    1    2    0    0 -0.43758679401E+01  0.25727852117E+02  0.55350210116E+02  0.61194087580E+02  0.00000000000E+00 0. -1.
         11    1    1    2    0    0 -0.70017185969E+02 -0.54911128937E+02  0.63415069603E+02  0.10926623204E+03  0.00000000000E+00 0.  1.
</event>
<event>
 7    1  0.2873461E-009  0.1100810E+03  0.7561462E-02  0.1260420E+00
         -2   -1    0    0    0  501 -0.00000000000E+00  0.00000000000E+00  0.24172665802E+03  0.24172665802E+03  0.00000000000E+00 0.  1.
          2   -1    0    0  501    0  0.00000000000E+00 -0.00000000000E+00 -0.64094440372E+02  0.64094440372E+02  0.00000000000E+00 0. -1.
         25    2    1    2    0    0  0.19928113326E+02 -0.47300250051E+02  0.61990007854E+02  0.14874702930E+03  0.12509386195E+03 0.  0.
          5    1    3    3  502    0 -0.33278278571E+02  0.10580117671E+02  0.60527039833E+02  0.70002697559E+02  0.41800000000E+01 0.  1.
         -5    1    3    3    0  502  0.53206391897E+02 -0.57880367723E+02  0.14629680201E+01  0.78744331744E+02  0.41800000000E+01 0.  1.
        -11    1    1    2    0    0 -0.48171441288E+02 -0.33308258800E+01  0.54564350815E+02  0.72861859273E+02  0.00000000000E+00 0. -1.
         11    1    1    2    0    0  0.28243327962E+02  0.50631075931E+02  0.61077858978E+02  0.84212209814E+02  0.00000000000E+00 0.  1.
</event>
<event>
 7    1  0.2873461E-009  0.1243481E+03  0.7561462E-02  0.1236092E+00
         -2   -1    0    0    0  501 -0.00000000000E+00  0.00000000000E+00  0.45885184171E+02  0.45885184171E+02  0.00000000000E+00 0.  1.
          2   -1    0    0  501    0  0.00000000000E+00 -0.00000000000E+00 -0.56240680490E+03  0.56240680490E+03  0.00000000000E+00 0. -1.
         25    2    1    2    0    0 -0.11507290538E+00 -0.64851613326E+02 -0.89205590775E+02  0.16676774975E+03  0.12509236562E+03 0.  0.
          5    1    3    3  502    0  0.85467501067E+01  0.35618614057E+02 -0.92616222603E+01  0.38012927428E+02  0.41800000000E+01 0. -1.
         -5    1    3    3    0  502 -0.86618230121E+01 -0.10047022738E+03 -0.79943968515E+02  0.12875482232E+03  0.41800000000E+01 0. -1.
        -11    1    1    2    0    0  0.36341243932E+02 -0.31258122563E+00 -0.12765485360E+03  0.13272733465E+03  0.00000000000E+00 0. -1.
         11    1    1    2    0    0 -0.36226171027E+02  0.65164194552E+02 -0.29966117636E+03  0.30879690467E+03  0.00000000000E+00 0.  1.
</event>
<event>
 7    1  0.2873461E-009  0.1051230E+03  0.7561462E-02  0.1269878E+00
         -2   -1    0    0    0  501 -0.00000000000E+00  0.00000000000E+00  0.26776814729E+03  0.26776814729E+03  0.00000000000E+00 0.  1.
          2   -1    0    0  501    0  0.00000000000E+00 -0.00000000000E+00 -0.64628596470E+02  0.64628596470E+02  0.00000000000E+00 0. -1.
         25    2    1    2    0    0 -0.49461703510E+02  0.44053682343E+02  0.13846461501E+03  0.19800563888E+03  0.12508635568E+03 0.  0.
          5    1    3    3  502    0 -0.76249795185E+02  0.35902566279E+01  0.35889541930E+02  0.84453850287E+02  0.41800000000E+01 0. -1.
         -5    1    3    3    0  502  0.26788091675E+02  0.40463425715E+02  0.10257507308E+03  0.11355178859E+03  0.41800000000E+01 0. -1.
        -11    1    1    2    0    0  0.44776966643E+02 -0.42124561430E+01 -0.13130981324E+02  0.46852365992E+02  0.00000000000E+00 0. -1.
         11    1    1    2    0    0  0.46847368665E+01 -0.39841226200E+02  0.77805917140E+02  0.87538738891E+02  0.00000000000E+00 0.  1.
</event>
<event>
 7    1  0.2873461E-009  0.1078050E+03  0.7561462E-02  0.1264690E+00
         -2   -1    0    0    0  501 -0.00000000000E+00  0.00000000000E+00  0.12814728566E+02  0.12814728566E+02  0.00000000000E+00 0.  1.
          2   -1    0    0  501    0  0.00000000000E+00 -0.00000000000E+00 -0.10345113422E+04  0.10345113422E+04  0.00000000000E+00 0. -1.
         25    2    1    2    0    0 -0.21731296767E+02 -0.30814160746E+02 -0.63583485955E+03  0.64911946078E+03  0.12509334109E+03 0.  0.
          5    1    3    3  502    0 -0.62670664645E+02 -0.48539391224E+02 -0.30063892190E+03  0.31094198570E+03  0.41800000000E+01 0. -1.
         -5    1    3    3    0  502  0.40939367878E+02  0.17725230479E+02 -0.33519593764E+03  0.33817747508E+03  0.41800000000E+01 0. -1.
        -11    1    1    2    0    0 -0.21082349204E+02 -0.17115906705E+02 -0.57179849538E+02  0.63300512664E+02  0.00000000000E+00 0.  1.
         11    1    1    2    0    0  0.42813645971E+02  0.47930067451E+02 -0.32868190460E+03  0.33490609737E+03  0.00000000000E+00 0. -1.
</event>
<event>
 7    1  0.2873461E-009  0.6663926E+02  0.7561462E-02  0.1371909E+00
          2   -1    0    0  501    0  0.00000000000E+00  0.00000000000E+00  0.23016129597E+03  0.23016129597E+03  0.00000000000E+00 0. -1.
         -2   -1    0    0    0  501 -0.00000000000E+00 -0.00000000000E+00 -0.75445156593E+02  0.75445156593E+02  0.00000000000E+00 0.  1.
         25    2    1    2    0    0 -0.34381062638E+02  0.24919548885E+02  0.12912454739E+02  0.13273353022E+03  0.12509363362E+03 0.  0.
          5    1    3    3  502    0  0.11906851438E+02 -0.11693581123E+02 -0.46077683160E+02  0.49184735803E+02  0.41800000000E+01 0.  1.
         -5    1    3    3    0  502 -0.46287914076E+02  0.36613130008E+02  0.58990137899E+02  0.83548794412E+02  0.41800000000E+01 0.  1.
        -11    1    1    2    0    0  0.12346588356E+02 -0.31565144649E+02  0.51358667826E+01  0.34280806997E+02  0.00000000000E+00 0.  1.
         11    1    1    2    0    0  0.22034474282E+02  0.66455957640E+01  0.13666781786E+03  0.13859211535E+03  0.00000000000E+00 0. -1.
</event>
<event>
 7    1  0.2873461E-009  0.1091204E+03  0.7561462E-02  0.1262207E+00
          2   -1    0    0  501    0  0.00000000000E+00  0.00000000000E+00  0.32676059581E+03  0.32676059581E+03  0.00000000000E+00 0. -1.
         -2   -1    0    0    0  501 -0.00000000000E+00 -0.00000000000E+00 -0.44853244723E+02  0.44853244723E+02  0.00000000000E+00 0.  1.
         25    2    1    2    0    0 -0.54048760120E+02 -0.82590292909E+00  0.18436158974E+03  0.22925685320E+03  0.12509020099E+03 0.  0.
          5    1    3    3  502    0  0.30433479787E+02 -0.32345162544E+02  0.46198205230E+02  0.64219567099E+02  0.41800000000E+01 0.  1.
         -5    1    3    3    0  502 -0.84482239907E+02  0.31519259615E+02  0.13816338451E+03  0.16503728611E+03  0.41800000000E+01 0.  1.
        -11    1    1    2    0    0  0.35813422886E+02  0.31490133512E+02  0.11279760462E+02  0.49004721848E+02  0.00000000000E+00 0.  1.
         11    1    1    2    0    0  0.18235337235E+02 -0.30664230582E+02  0.86266000891E+02  0.93352265484E+02  0.00000000000E+00 0. -1.
</event>
<event>
 7    1  0.2873461E-009  0.9854490E+02  0.7561462E-02  0.1283386E+00
          1   -1    0    0  501    0  0.00000000000E+00  0.00000000000E+00  0.11049243512E+03  0.11049243512E+03  0.00000000000E+00 0. -1.
         -1   -1    0    0    0  501 -0.00000000000E+00 -0.00000000000E+00 -0.17453219832E+03  0.17453219832E+03  0.00000000000E+00 0.  1.
         25    2    1    2    0    0 -0.30893320730E+02 -0.69742001411E+02 -0.76241154241E+02  0.16516179643E+03  0.12508941352E+03 0.  0.
          5    1    3    3  502    0 -0.29464513743E+02 -0.79458180777E+02  0.32954386737E+01  0.84912262828E+02  0.41800000000E+01 0. -1.
         -5    1    3    3    0  502 -0.14288069863E+01  0.97161793663E+01 -0.79536592915E+02  0.80249533602E+02  0.41800000000E+01 0. -1.
        -11    1    1    2    0    0  0.51297690560E+02  0.38022461915E+02 -0.23393242207E+02  0.68002973816E+02  0.00000000000E+00 0.  1.
         11    1    1    2    0    0 -0.20404369831E+02  0.31719539496E+02  0.35594633249E+02  0.51859863191E+02  0.00000000000E+00 0. -1.
</event>
<event>
 7    1  0.2873461E-009  0.1486566E+03  0.7561462E-02  0.1202134E+00
          2   -1    0    0  501    0  0.00000000000E+00  0.00000000000E+00  0.46652976317E+02  0.46652976317E+02  0.00000000000E+00 0. -1.
         -2   -1    0    0    0  501 -0.00000000000E+00 -0.00000000000E+00 -0.50399950537E+03  0.50399950537E+03  0.00000000000E+00 0.  1.
         25    2    1    2    0    0 -0.29298123636E+02  0.10386221745E+03 -0.26250940819E+03  0.31016895768E+03  0.12509137722E+03 0.  0.
          5    1    3    3  502    0 -0.75150049034E+02  0.50922883728E+02 -0.11293191657E+03  0.14495433811E+03  0.41800000000E+01 0. -1.
         -5    1    3    3    0  502  0.45851925399E+02  0.52939333720E+02 -0.14957749163E+03  0.16521461957E+03  0.41800000000E+01 0. -1.
        -11    1    1    2    0    0  0.42921374616E+01 -0.11035906089E+03 -0.12935602584E+03  0.17008975920E+03  0.00000000000E+00 0. -1.
         11    1    1    2    0    0  0.25005986174E+02  0.64968434385E+01 -0.65481095018E+02  0.70393764809E+02  0.00000000000E+00 0.  1.
</event>
<event>
 7    1  0.2873461E-009  0.9210942E+02  0.7561462E-02  0.1297822E+00
          1   -1    0    0  501    0  0.00000000000E+00  0.00000000000E+00  0.46416983787E+03  0.46416983787E+03  0.00000000000E+00 0. -1.
         -1   -1    0    0    0  501 -0.00000000000E+00 -0.00000000000E+00 -0.26555002540E+02  0.26555002540E+02  0.00000000000E+00 0.  1.
         25    2    1    2    0    0  0.45842684263E+00 -0.22194104364E+02  0.27632551611E+03  0.30412856672E+03  0.12508239612E+03 0.  0.
          5    1    3    3  502    0  0.47479383128E+02 -0.51961741096E+02  0.17009747297E+03  0.18413293315E+03  0.41800000000E+01 0. -1.
         -5    1    3    3    0  502 -0.47020956286E+02  0.29767636732E+02  0.10622804313E+03  0.11999563356E+03  0.41800000000E+01 0. -1.
        -11    1    1    2    0    0  0.75132329296E+01  0.38778132173E+02  0.16337122217E+03  0.16807839968E+03  0.00000000000E+00 0. -1.
         11    1    1    2    0    0 -0.79716597722E+01 -0.16584027809E+02 -0.20819029548E+01  0.18517874009E+02  0.00000000000E+00 0.  1.
</event>
<event>
 7    1  0.2873461E-009  0.1547088E+03  0.7561462E-02  0.1194803E+00
         -2   -1    0    0    0  501 -0.00000000000E+00  0.00000000000E+00  0.14538694057E+03  0.14538694057E+03  0.00000000000E+00 0.  1.
          2   -1    0    0  501    0  0.00000000000E+00 -0.00000000000E+00 -0.20067485747E+03  0.20067485747E+03  0.00000000000E+00 0. -1.
         25    2    1    2    0    0  0.10901761415E+03  0.76809401610E+02 -0.22045464930E+02  0.18417357130E+03  0.12509747188E+03 0.  0.
          5    1    3    3  502    0  0.30951493291E+01  0.51196754297E+02 -0.49832379367E+02  0.71633972620E+02  0.41800000000E+01 0. -1.
         -5    1    3    3    0  502  0.10592246482E+03  0.25612647312E+02  0.27786914437E+02  0.11253959868E+03  0.41800000000E+01 0. -1.
        -11    1    1    2    0    0 -0.16335666433E+02  0.12209383603E+02  0.14256320618E+02  0.24883040878E+02  0.00000000000E+00 0.  1.
         11    1    1    2    0    0 -0.92681947720E+02 -0.89018785213E+02 -0.47498772589E+02  0.13700518586E+03  0.00000000000E+00 0. -1.
</event>
<event>
 7    1  0.2873461E-009  0.1805088E+03  0.7561462E-02  0.1167312E+00
          1   -1    0    0  501    0  0.00000000000E+00  0.00000000000E+00  0.11561461348E+04  0.11561461348E+04  0.00000000000E+00 0. -1.
         -1   -1    0    0    0  501 -0.00000000000E+00 -0.00000000000E+00 -0.29632970808E+02  0.29632970808E+02  0.00000000000E+00 0.  1.
         25    2    1    2    0    0  0.91117918179E+01  0.14608951335E+03  0.50360240646E+03  0.53915471059E+03  0.12508895834E+03 0.  0.
          5    1    3    3  502    0  0.58618860210E+02  0.11996007029E+03  0.30947382775E+03  0.33707285815E+03  0.41800000000E+01 0. -1.
         -5    1    3    3    0  502 -0.49507068392E+02  0.26129443057E+02  0.19412857871E+03  0.20208185245E+03  0.41800000000E+01 0. -1.
        -11    1    1    2    0    0 -0.47259423417E+02 -0.10548297557E+03  0.36930091528E+03  0.38696676507E+03  0.00000000000E+00 0.  1.
         11    1    1    2    0    0  0.38147631599E+02 -0.40606537777E+02  0.25360984226E+03  0.25965762997E+03  0.00000000000E+00 0. -1.
</event>
<event>
 7    1  0.2873461E-009  0.1264450E+03  0.7561462E-02  0.1232828E+00
         -1   -1    0    0    0  501 -0.00000000000E+00  0.00000000000E+00  0.38511506238E+02  0.38511506238E+02  0.00000000000E+00 0.  1.
          1   -1    0    0  501    0  0.00000000000E+00 -0.00000000000E+00 -0.74076971138E+03  0.74076971138E+03  0.00000000000E+00 0. -1.
         25    2    1    2    0    0  0.76366550213E+02  0.82375208602E+02 -0.22485762367E+03  0.28074318809E+03  0.12505303576E+03 0.  0.
          5    1    3    3  502    0  0.70761453085E+02  0.79181939255E+02 -0.24070923432E+03  0.26312614966E+03  0.41800000000E+01 0.  1.
         -5    1    3    3    0  502  0.56050971280E+01  0.31932693471E+01  0.15851610649E+02  0.17617038432E+02  0.41800000000E+01 0.  1.
        -11    1    1    2    0    0 -0.54432171595E+02 -0.97928111892E+02 -0.32465525636E+03  0.34344404476E+03  0.00000000000E+00 0.  1.
         11    1    1    2    0    0 -0.21934378618E+02  0.15552903290E+02 -0.15274532512E+03  0.15509398477E+03  0.00000000000E+00 0. -1.
</event>
<event>
 7    1  0.2873461E-009  0.1154435E+03  0.7561462E-02  0.1250809E+00
          1   -1    0    0  501    0  0.00000000000E+00  0.00000000000E+00  0.33439307693E+03  0.33439307693E+03  0.00000000000E+00 0. -1.
         -1   -1    0    0    0  501 -0.00000000000E+00 -0.00000000000E+00 -0.43186139173E+02  0.43186139173E+02  0.00000000000E+00 0.  1.
         25    2    1    2    0    0 -0.21892556904E+02 -0.47165987345E+02  0.17648486248E+03  0.22248106871E+03  0.12508798840E+03 0.  0.
          5    1    3    3  502    0  0.47104042177E+02 -0.27282982180E+02  0.11712333398E+03  0.12922267475E+03  0.41800000000E+01 0. -1.
         -5    1    3    3    0  502 -0.68996599081E+02 -0.19883005165E+02  0.59361528496E+02  0.93258393963E+02  0.41800000000E+01 0. -1.
        -11    1    1    2    0    0  0.36851929516E+02 -0.15470738215E+02  0.42904524991E+02  0.58636223571E+02  0.00000000000E+00 0. -1.
         11    1    1    2    0    0 -0.14959372612E+02  0.62636725560E+02  0.71817550290E+02  0.96461923822E+02  0.00000000000E+00 0.  1.
</event>
<event>
 7    1  0.2873461E-009  0.9859617E+02  0.7561462E-02  0.1283276E+00
          1   -1    0    0  501    0  0.00000000000E+00  0.00000000000E+00  0.85829105222E+02  0.85829105222E+02  0.00000000000E+00 0. -1.
         -1   -1    0    0    0  501 -0.00000000000E+00 -0.00000000000E+00 -0.16089876816E+03  0.16089876816E+03  0.00000000000E+00 0.  1.
         25    2    1    2    0    0 -0.45014148097E+02 -0.15231557245E+02 -0.30047996000E+02  0.13714537101E+03  0.12509075449E+03 0.  0.
          5    1    3    3  502    0  0.29152412668E+02 -0.13731090309E+02  0.27972335478E+02  0.42875750227E+02  0.41800000000E+01 0. -1.
         -5    1    3    3    0  502 -0.74166560765E+02 -0.15004669366E+01 -0.58020331478E+02  0.94269620778E+02  0.41800000000E+01 0. -1.
        -11    1    1    2    0    0  0.61363772283E+02  0.30055747235E+02 -0.52619224117E+02  0.86241771998E+02  0.00000000000E+00 0.  1.
         11    1    1    2    0    0 -0.16349624186E+02 -0.14824189989E+02  0.75975571746E+01  0.23340730384E+02  0.00000000000E+00 0. -1.
</event>
<event>
 7    1  0.2873461E-009  0.6589320E+02  0.7561462E-02  0.1374643E+00
         -4   -1    0    0    0  501 -0.00000000000E+00  0.00000000000E+00  0.25104351164E+03  0.25104351164E+03  0.00000000000E+00 0. -1.
          4   -1    0    0  501    0  0.00000000000E+00 -0.00000000000E+00 -0.66285517983E+02  0.66285517983E+02  0.00000000000E+00 0.  1.
         25    2    1    2    0    0  0.26538468834E+01  0.47864152727E+02  0.15781509169E+03  0.20700680646E+03  0.12509274454E+03 0.  0.
          5    1    3    3  502    0  0.25314757309E+02  0.54148119690E+02  0.14411919681E+02  0.61628172393E+02  0.41800000000E+01 0.  1.
         -5    1    3    3    0  502 -0.22660910426E+02 -0.62839669637E+01  0.14340317201E+03  0.14537863407E+03  0.41800000000E+01 0.  1.
        -11    1    1    2    0    0  0.27133707823E+00 -0.10647551933E+02 -0.35779354414E+02  0.37331035189E+02  0.00000000000E+00 0.  1.
         11    1    1    2    0    0 -0.29251839616E+01 -0.37216600793E+02  0.62722256381E+02  0.72991187971E+02  0.00000000000E+00 0. -1.
</event>
<event>
 7    1  0.2873461E-009  0.9816664E+02  0.7561462E-02  0.1284199E+00
         -2   -1    0    0    0  501 -0.00000000000E+00  0.00000000000E+00  0.14394158388E+02  0.14394158388E+02  0.00000000000E+00 0.  1.
          2   -1    0    0  501    0  0.00000000000E+00 -0.00000000000E+00 -0.98136311603E+03  0.98136311603E+03  0.00000000000E+00 0. -1.
         25    2    1    2    0    0 -0.26804072661E+02  0.39606684266E+02 -0.52305098012E+03  0.53992228375E+03  0.12508635789E+03 0.  0.
          5    1    3    3  502    0 -0.79533435684E+01  0.62333589037E+02 -0.11782025746E+03  0.13359572397E+03  0.41800000000E+01 0. -1.
         -5    1    3    3    0  502 -0.18850729093E+02 -0.22726904771E+02 -0.40523072266E+03  0.40632655977E+03  0.41800000000E+01 0. -1.
        -11    1    1    2    0    0  0.61093766482E+02 -0.29101965728E+02 -0.28642453636E+03  0.29431001977E+03  0.00000000000E+00 0.  1.
         11    1    1    2    0    0 -0.34289693821E+02 -0.10504718538E+02 -0.15749344116E+03  0.16152497090E+03  0.00000000000E+00 0. -1.
</event>
<event>
 7    1  0.2873461E-009  0.1660897E+03  0.7561462E-02  0.1181988E+00
          2   -1    0    0  501    0  0.00000000000E+00  0.00000000000E+00  0.43251953342E+03  0.43251953342E+03  0.00000000000E+00 0. -1.
         -2   -1    0    0    0  501 -0.00000000000E+00 -0.00000000000E+00 -0.87386937479E+02  0.87386937479E+02  0.00000000000E+00 0.  1.
         25    2    1    2    0    0  0.10399160259E+03  0.11511730455E+03  0.12282900575E+03  0.23409703359E+03  0.12509280261E+03 0.  0.
          5    1    3    3  502    0  0.69986468368E+02  0.72238200721E+02  0.14363560879E+03  0.17539989712E+03  0.41800000000E+01 0. -1.
         -5    1    3    3    0  502  0.34005134226E+02  0.42879103830E+02 -0.20806603045E+02  0.58697136466E+02  0.41800000000E+01 0. -1.
        -11    1    1    2    0    0 -0.10732880427E+03 -0.63102853404E+02  0.13135930987E+03  0.18098815051E+03  0.00000000000E+00 0.  1.
         11    1    1    2    0    0  0.33372016787E+01 -0.52014451148E+02  0.90944280314E+02  0.10482128679E+03  0.00000000000E+00 0. -1.
</event>
<event>
 7    1  0.2873461E-009  0.1671951E+03  0.7561462E-02  0.1180805E+00
         -2   -1    0    0    0  501 -0.00000000000E+00  0.00000000000E+00  0.32628818002E+03  0.32628818002E+03  0.00000000000E+00 0.  1.
          2   -1    0    0  501    0  0.00000000000E+00 -0.00000000000E+00 -0.11046197038E+03  0.11046197038E+03  0.00000000000E+00 0. -1.
         25    2    1    2    0    0  0.44141397970E+02 -0.13761085957E+03  0.46118041126E+02  0.19662025482E+03  0.12508972460E+03 0.  0.
          5    1    3    3  502    0 -0.41088544011E+02 -0.38832417278E+02  0.32586811172E+02  0.65388055048E+02  0.41800000000E+01 0.  1.
         -5    1    3    3    0  502  0.85229941981E+02 -0.98778442296E+02  0.13531229954E+02  0.13123219977E+03  0.41800000000E+01 0.  1.
        -11    1    1    2    0    0 -0.74522726408E+00  0.43795986116E+02  0.11525611557E+03  0.12329888864E+03  0.00000000000E+00 0.  1.
         11    1    1    2    0    0 -0.43396170706E+02  0.93814873457E+02  0.54452052942E+02  0.11683100694E+03  0.00000000000E+00 0. -1.
</event>
<event>
 7    1  0.3063056E-009  0.1076812E+03  0.7561462E-02  0.1264925E+00
         -2   -1    0    0    0  501 -0.00000000000E+00  0.00000000000E+00  0.32578664652E+03  0.32578664652E+03  0.00000000000E+00 0.  1.
          2   -1    0    0  501    0  0.00000000000E+00 -0.00000000000E+00 -0.49303042547E+02  0.49303042547E+02  0.00000000000E+00 0. -1.
         25    2    1    2    0    0 -0.19415815485E+02 -0.57420872537E+02  0.11760681841E+03  0.18206715465E+03  0.12507179766E+03 0.  0.
          5    1    3    3  502    0 -0.75359223154E+01 -0.83887162031E+02  0.12596701542E+03  0.15158828270E+03  0.41800000000E+01 0. -1.
         -5    1    3    3    0  502 -0.11879893170E+02  0.26466289494E+02 -0.83601970045E+01  0.30478871948E+02  0.41800000000E+01 0. -1.
        -11    1    1    2    0    0  0.51594713916E+02  0.38696956504E+02  0.13260324351E+03  0.14745538015E+03  0.00000000000E+00 0. -1.
         11    1    1    2    0    0 -0.32178898431E+02  0.18723916033E+02  0.26273542047E+02  0.45567154262E+02  0.00000000000E+00 0.  1.
</event>
<event>
 7    1  0.2873461E-009  0.6899834E+02  0.7561462E-02  0.1363533E+00
         -1   -1    0    0    0  501 -0.00000000000E+00  0.00000000000E+00  0.24986395759E+03  0.24986395759E+03  0.00000000000E+00 0.  1.
          1   -1    0    0  501    0  0.00000000000E+00 -0.00000000000E+00 -0.57362335168E+02  0.57362335168E+02  0.00000000000E+00 0. -1.
         25    2    1    2    0    0  0.17983085576E+02  0.36050953533E+02  0.68379918291E+02  0.14814299260E+03  0.12508984936E+03 0.  0.
          5    1    3    3  502    0  0.69059954131E+01  0.56958334196E+02  0.95762669853E+02  0.11171349938E+03  0.41800000000E+01 0.  1.
         -5    1    3    3    0  502  0.11077090163E+02 -0.20907380663E+02 -0.27382751562E+02  0.36429493213E+02  0.41800000000E+01 0.  1.
        -11    1    1    2    0    0  0.11040199870E+02 -0.21054598019E+02  0.12415905956E+03  0.12641461222E+03  0.00000000000E+00 0.  1.
         11    1    1    2    0    0 -0.29023285446E+02 -0.14996355514E+02 -0.37355426606E-01  0.32668687947E+02  0.00000000000E+00 0. -1.
</event>
<event>
 7    1  0.2873461E-009  0.1240092E+03  0.7561462E-02  0.1236626E+00
          2   -1    0    0  501    0  0.00000000000E+00  0.00000000000E+00  0.30762559573E+03  0.30762559573E+03  0.00000000000E+00 0.  1.
         -2   -1    0    0    0  501 -0.00000000000E+00 -0.00000000000E+00 -0.77823796757E+02  0.77823796757E+02  0.00000000000E+00 0. -1.
         25    2    1    2    0    0  0.10556679716E+03 -0.23797118714E+02  0.10295347279E+03  0.19482629513E+03  0.12508883321E+03 0.  0.
          5    1    3    3  502    0  0.22427483278E+02 -0.36156344249E+02 -0.18894151225E+02  0.46741144468E+02  0.41800000000E+01 0.  1.
         -5    1    3    3    0  502  0.83139313884E+02  0.12359225535E+02  0.12184762401E+03  0.14808515066E+03  0.41800000000E+01 0.  1.
        -11    1    1    2    0    0 -0.54972143044E+02  0.39998754542E+02  0.11882033028E+03  0.13689451327E+03  0.00000000000E+00 0. -1.
         11    1    1    2    0    0 -0.50594654119E+02 -0.16201635829E+02  0.80279958957E+01  0.53728584078E+02  0.00000000000E+00 0.  1.
</event>
<event>
 7    1  0.3646052E-009  0.8755266E+02  0.7561462E-02  0.1308889E+00
         -1   -1    0    0    0  501 -0.00000000000E+00  0.00000000000E+00  0.55111061642E+02  0.55111061642E+02  0.00000000000E+00 0.  1.
          1   -1    0    0  501    0  0.00000000000E+00 -0.00000000000E+00 -0.33055028395E+03  0.33055028395E+03  0.00000000000E+00 0. -1.
         25    2    1    2    0    0 -0.32131220969E+01  0.50883555005E+02 -0.63820741027E+02  0.14940260524E+03  0.12509432898E+03 0.  0.
          5    1    3    3  502    0  0.23937584931E+02  0.59529964385E+02 -0.89915249148E+02  0.11053980759E+03  0.41800000000E+01 0.  1.
         -5    1    3    3    0  502 -0.27150707027E+02 -0.86464093793E+01  0.26094508121E+02  0.38862797652E+02  0.41800000000E+01 0.  1.
        -11    1    1    2    0    0 -0.25599028718E+02 -0.25338777126E+01 -0.11145755972E+02  0.28034954677E+02  0.00000000000E+00 0.  1.
         11    1    1    2    0    0  0.28812150815E+02 -0.48349677293E+02 -0.20047272531E+03  0.20822378567E+03  0.00000000000E+00 0. -1.
</event>
<event>
 7    1  0.2873461E-009  0.1089942E+03  0.7561462E-02  0.1262444E+00
          2   -1    0    0  501    0  0.00000000000E+00  0.00000000000E+00  0.10011838047E+04  0.10011838047E+04  0.00000000000E+00 0. -1.
         -2   -1    0    0    0  501 -0.00000000000E+00 -0.00000000000E+00 -0.15903766374E+02  0.15903766374E+02  0.00000000000E+00 0.  1.
         25    2    1    2    0    0  0.42575448969E+02  0.42464022681E+02  0.46143938855E+03  0.48185682502E+03  0.12507529106E+03 0.  0.
          5    1    3    3  502    0 -0.89893794264E+01  0.55456648640E+02  0.38224445523E+03  0.38637358188E+03  0.41800000000E+01 0. -1.
         -5    1    3    3    0  502  0.51564828396E+02 -0.12992625959E+02  0.79194933322E+02  0.95483243141E+02  0.41800000000E+01 0. -1.
        -11    1    1    2    0    0  0.22381409737E+02 -0.36848248161E+02  0.25343114569E+03  0.25707210370E+03  0.00000000000E+00 0. -1.
         11    1    1    2    0    0 -0.64956858706E+02 -0.56157745196E+01  0.27040950405E+03  0.27815864232E+03  0.00000000000E+00 0.  1.
</event>
<event>
 7    1  0.2873461E-009  0.3837340E+03  0.7561462E-02  0.1049562E+00
          1   -1    0    0  501    0  0.00000000000E+00  0.00000000000E+00  0.33371674161E+03  0.33371674161E+03  0.00000000000E+00 0. -1.
         -1   -1    0    0    0  501 -0.00000000000E+00 -0.00000000000E+00 -0.48925427923E+03  0.48925427923E+03  0.00000000000E+00 0.  1.
         25    2    1    2    0    0 -0.35355207537E+03 -0.12144787773E+03 -0.18868439597E+03  0.43703313671E+03  0.12508998479E+03 0.  0.
          5    1    3    3  502    0 -0.15071423137E+03 -0.10115701324E+03 -0.13482122974E+03  0.22614543385E+03  0.41800000000E+01 0.  1.
         -5    1    3    3    0  502 -0.20283784400E+03 -0.20290864498E+02 -0.53863166237E+02  0.21088770286E+03  0.41800000000E+01 0.  1.
        -11    1    1    2    0    0  0.88441132627E+02 -0.43937891153E+01 -0.10789470652E+02  0.89205111961E+02  0.00000000000E+00 0.  1.
         11    1    1    2    0    0  0.26511094274E+03  0.12584166685E+03  0.43936329004E+02  0.29673277217E+03  0.00000000000E+00 0. -1.
</event>
<event>
 7    1  0.2873461E-009  0.1846103E+03  0.7561462E-02  0.1163414E+00
          2   -1    0    0  501    0  0.00000000000E+00  0.00000000000E+00  0.63371101034E+03  0.63371101034E+03  0.00000000000E+00 0. -1.
         -2   -1    0    0    0  501 -0.00000000000E+00 -0.00000000000E+00 -0.59274129829E+02  0.59274129829E+02  0.00000000000E+00 0.  1.
         25    2    1    2    0    0  0.15726437682E+02  0.14758785883E+03  0.40561755288E+03  0.44966879875E+03  0.12508769904E+03 0.  0.
          5    1    3    3  502    0 -0.54323824759E+02  0.51103240133E+02  0.14924949498E+03  0.16689968017E+03  0.41800000000E+01 0. -1.
         -5    1    3    3    0  502  0.70050262441E+02  0.96484618695E+02  0.25636805789E+03  0.28276911858E+03  0.41800000000E+01 0. -1.
        -11    1    1    2    0    0 -0.55081066030E+02 -0.86271269842E+02  0.97523595416E+02  0.14137718167E+03  0.00000000000E+00 0. -1.
         11    1    1    2    0    0  0.39354628348E+02 -0.61316588986E+02  0.71295732217E+02  0.10193915975E+03  0.00000000000E+00 0.  1.
</event>
<event>
 7    1  0.2873461E-009  0.1063835E+03  0.7561462E-02  0.1267417E+00
         -2   -1    0    0    0  501 -0.00000000000E+00  0.00000000000E+00  0.18856170005E+03  0.18856170005E+03  0.00000000000E+00 0.  1.
          2   -1    0    0  501    0  0.00000000000E+00 -0.00000000000E+00 -0.93937982509E+02  0.93937982509E+02  0.00000000000E+00 0. -1.
         25    2    1    2    0    0 -0.49908641116E+02  0.39009916918E+02  0.40769335085E+01  0.14027617718E+03  0.12509251944E+03 0.  0.
          5    1    3    3  502    0  0.25976114288E+02 -0.25566125157E+02  0.15635298065E+02  0.39878819123E+02  0.41800000000E+01 0. -1.
         -5    1    3    3    0  502 -0.75884755404E+02  0.64576042075E+02 -0.11558364556E+02  0.10039735805E+03  0.41800000000E+01 0. -1.
        -11    1    1    2    0    0  0.32434584909E+02 -0.47025826250E+02  0.10407040484E+03  0.11871848970E+03  0.00000000000E+00 0.  1.
         11    1    1    2    0    0  0.17474056206E+02  0.80159093324E+01 -0.13523620806E+02  0.23505015686E+02  0.00000000000E+00 0. -1.
</event>
<event>
 7    1  0.2873461E-009  0.1196775E+03  0.7561462E-02  0.1243630E+00
          2   -1    0    0  501    0  0.00000000000E+00  0.00000000000E+00  0.47098969651E+03  0.47098969651E+03  0.00000000000E+00 0. -1.
         -2   -1    0    0    0  501 -0.00000000000E+00 -0.00000000000E+00 -0.38033651740E+02  0.38033651740E+02  0.00000000000E+00 0.  1.
         25    2    1    2    0    0  0.62356749583E+02 -0.20318275404E+01  0.14799020681E+03  0.20357107917E+03  0.12509032905E+03 0.  0.
          5    1    3    3  502    0 -0.31762097273E+02  0.17731444358E+02  0.15401323627E+02  0.39722891532E+02  0.41800000000E+01 0.  1.
         -5    1    3    3    0  502  0.94118846856E+02 -0.19763271898E+02  0.13258888318E+03  0.16384818764E+03  0.41800000000E+01 0.  1.
        -11    1    1    2    0    0  0.17294572729E+02 -0.17354410369E+02  0.10299217198E+03  0.10586626136E+03  0.00000000000E+00 0. -1.
         11    1    1    2    0    0 -0.79651322313E+02  0.19386237909E+02  0.18197366599E+03  0.19958600772E+03  0.00000000000E+00 0.  1.
</event>
<event>
 7    1  0.2873461E-009  0.1187845E+03  0.7561462E-02  0.1245116E+00
         -3   -1    0    0    0  501 -0.00000000000E+00  0.00000000000E+00  0.14541297145E+03  0.14541297145E+03  0.00000000000E+00 0.  1.
          3   -1    0    0  501    0  0.00000000000E+00 -0.00000000000E+00 -0.10291392126E+03  0.10291392126E+03  0.00000000000E+00 0. -1.
         25    2    1    2    0    0 -0.43189163486E+02 -0.47491150271E+02  0.30348394759E+02  0.14387381711E+03  0.12513167860E+03 0.  0.
          5    1    3    3  502    0  0.35232883538E+02  0.13102964666E+02 -0.58719887964E+01  0.38275271623E+02  0.41800000000E+01 0. -1.
         -5    1    3    3    0  502 -0.78422047023E+02 -0.60594114937E+02  0.36220383555E+02  0.10559854549E+03  0.41800000000E+01 0. -1.
        -11    1    1    2    0    0  0.19237928492E+02  0.66972502664E+02  0.20195595235E+02  0.72548439491E+02  0.00000000000E+00 0.  1.
         11    1    1    2    0    0  0.23951234994E+02 -0.19481352393E+02 -0.80449398025E+01  0.31904636108E+02  0.00000000000E+00 0. -1.
</event>
<event>
 7    1  0.2873461E-009  0.1269010E+03  0.7561462E-02  0.1232128E+00
         -2   -1    0    0    0  501 -0.00000000000E+00  0.00000000000E+00  0.50630593000E+02  0.50630593000E+02  0.00000000000E+00 0.  1.
          2   -1    0    0  501    0  0.00000000000E+00 -0.00000000000E+00 -0.42685300799E+03  0.42685300799E+03  0.00000000000E+00 0. -1.
         25    2    1    2    0    0 -0.49566108622E+02 -0.69438921100E+02 -0.12343979399E+03  0.19535420212E+03  0.12508924278E+03 0.  0.
          5    1    3    3  502    0 -0.40474101588E+02  0.26850953065E+02 -0.17380494347E+02  0.51755971284E+02  0.41800000000E+01 0. -1.
         -5    1    3    3    0  502 -0.90920070345E+01 -0.96289874165E+02 -0.10605929964E+03  0.14359823083E+03  0.41800000000E+01 0. -1.
        -11    1    1    2    0    0  0.65964163726E+02  0.49760329060E+02 -0.11281805382E+03  0.13984017489E+03  0.00000000000E+00 0.  1.
         11    1    1    2    0    0 -0.16398055104E+02  0.19678592040E+02 -0.13996456719E+03  0.14228922399E+03  0.00000000000E+00 0. -1.
</event>
<event>
 7    1  0.2873461E-009  0.8650734E+02  0.7561462E-02  0.1311537E+00
         -1   -1    0    0    0  501 -0.00000000000E+00  0.00000000000E+00  0.60703781458E+02  0.60703781458E+02  0.00000000000E+00 0.  1.
          1   -1    0    0  501    0  0.00000000000E+00 -0.00000000000E+00 -0.22909224674E+03  0.22909224674E+03  0.00000000000E+00 0. -1.
         25    2    1    2    0    0  0.43940529245E+02 -0.81830341854E+00 -0.10962418138E+03  0.17203831878E+03  0.12509309435E+03 0.  0.
          5    1    3    3  502    0  0.74911629661E+02 -0.30050652315E+02 -0.39669379013E+02  0.90032916171E+02  0.41800000000E+01 0. -1.
         -5    1    3    3    0  502 -0.30971100416E+02  0.29232348896E+02 -0.69954802363E+02  0.82005402606E+02  0.41800000000E+01 0. -1.
        -11    1    1    2    0    0 -0.25797004699E+02  0.11610037492E+02  0.21009842997E+02  0.35237649251E+02  0.00000000000E+00 0.  1.
         11    1    1    2    0    0 -0.18143524547E+02 -0.10791734073E+02 -0.79774126898E+02  0.82520060165E+02  0.00000000000E+00 0. -1.
</event>
<event>
 7    1  0.2873461E-009  0.1036116E+03  0.7561462E-02  0.1272880E+00
         -2   -1    0    0    0  501 -0.00000000000E+00  0.00000000000E+00  0.93581642934E+02  0.93581642934E+02  0.00000000000E+00 0.  1.
          2   -1    0    0  501    0  0.00000000000E+00 -0.00000000000E+00 -0.14863036751E+03  0.14863036751E+03  0.00000000000E+00 0. -1.
         25    2    1    2    0    0  0.65886317838E+01 -0.41777798458E+02 -0.37272845290E+02  0.13720892668E+03  0.12509288569E+03 0.  0.
          5    1    3    3  502    0 -0.55479184995E+02 -0.41885641686E+02 -0.15913635713E+02  0.71435727397E+02  0.41800000000E+01 0.  1.
         -5    1    3    3    0  502  0.62067816779E+02  0.10784322780E+00 -0.21359209576E+02  0.65773199280E+02  0.41800000000E+01 0.  1.
        -11    1    1    2    0    0  0.15985515203E+02  0.49104240691E+02  0.24008551662E+02  0.56948869199E+02  0.00000000000E+00 0.  1.
         11    1    1    2    0    0 -0.22574146987E+02 -0.73264422329E+01 -0.41784430950E+02  0.48054214569E+02  0.00000000000E+00 0. -1.
</event>
<event>
 7    1  0.2873461E-009  0.1767961E+03  0.7561462E-02  0.1170940E+00
         -2   -1    0    0    0  501 -0.00000000000E+00  0.00000000000E+00  0.33480771111E+02  0.33480771111E+02  0.00000000000E+00 0.  1.
          2   -1    0    0  501    0  0.00000000000E+00 -0.00000000000E+00 -0.14641031106E+04  0.14641031106E+04  0.00000000000E+00 0. -1.
         25    2    1    2    0    0  0.14901065535E+03 -0.68976391725E+02 -0.10746185616E+04  0.10942638729E+04  0.12508578079E+03 0.  0.
          5    1    3    3  502    0  0.54732043831E+02 -0.50833317232E+02 -0.79659275970E+03  0.80009819396E+03  0.41800000000E+01 0.  1.
         -5    1    3    3    0  502  0.94278611519E+02 -0.18143074493E+02 -0.27802580191E+03  0.29416567895E+03  0.41800000000E+01 0.  1.
        -11    1    1    2    0    0 -0.48937345764E+02 -0.15903630805E+02 -0.15460957053E+03  0.16294756390E+03  0.00000000000E+00 0.  1.
         11    1    1    2    0    0 -0.10007330959E+03  0.84880022530E+02 -0.20139420735E+03  0.24037244491E+03  0.00000000000E+00 0. -1.
</event>
<event>
 7    1  0.2873461E-009  0.1628314E+03  0.7561462E-02  0.1185537E+00
          2   -1    0    0  501    0  0.00000000000E+00  0.00000000000E+00  0.10005814141E+04  0.10005814141E+04  0.00000000000E+00 0. -1.
         -2   -1    0    0    0  501 -0.00000000000E+00 -0.00000000000E+00 -0.32024421069E+02  0.32024421069E+02  0.00000000000E+00 0.  1.
         25    2    1    2    0    0  0.76544662056E+02 -0.10805204421E+03  0.66350210086E+03  0.68805301612E+03  0.12509030977E+03 0.  0.
          5    1    3    3  502    0  0.23085060822E+02 -0.12252700081E+03  0.50191889449E+03  0.51719032765E+03  0.41800000000E+01 0. -1.
         -5    1    3    3    0  502  0.53459601234E+02  0.14474956603E+02  0.16158320637E+03  0.17086268848E+03  0.41800000000E+01 0. -1.
        -11    1    1    2    0    0 -0.52701171534E+02  0.10945655571E+03  0.29424295392E+03  0.31833483473E+03  0.00000000000E+00 0. -1.
         11    1    1    2    0    0 -0.23843490522E+02 -0.14045115007E+01  0.10811938238E+02  0.26217984310E+02  0.00000000000E+00 0.  1.
</event>
<event>
 7    1  0.2873461E-009  0.1058460E+03  0.7561462E-02  0.1268462E+00
         -2   -1    0    0    0  501 -0.00000000000E+00  0.00000000000E+00  0.74413235268E+02  0.74413235268E+02  0.00000000000E+00 0.  1.
          2   -1    0    0  501    0  0.00000000000E+00 -0.00000000000E+00 -0.19438141460E+03  0.19438141460E+03  0.00000000000E+00 0. -1.
         25    2    1    2    0    0 -0.15851587546E+02  0.24973485380E+01 -0.11487516710E+03  0.17058996221E+03  0.12508845515E+03 0.  0.
          5    1    3    3  502    0 -0.45101399134E+02  0.49120800558E+02 -0.41078725167E+02  0.78434197342E+02  0.41800000000E+01 0.  1.
         -5    1    3    3    0  502  0.29249811589E+02 -0.46623452020E+02 -0.73796441935E+02  0.92155764869E+02  0.41800000000E+01 0.  1.
        -11    1    1    2    0    0  0.21632053158E+02  0.40702056212E+02  0.17264266444E+02  0.49220503853E+02  0.00000000000E+00 0.  1.
         11    1    1    2    0    0 -0.57804656128E+01 -0.43199404750E+02 -0.22357278676E+02  0.48984183807E+02  0.00000000000E+00 0. -1.
</event>
<event>
 7    1  0.2873461E-009  0.1598418E+03  0.7561462E-02  0.1188875E+00
         -2   -1    0    0    0  501 -0.00000000000E+00  0.00000000000E+00  0.13061679619E+02  0.13061679619E+02  0.00000000000E+00 0.  1.
          2   -1    0    0  501    0  0.00000000000E+00 -0.00000000000E+00 -0.23675130363E+04  0.23675130363E+04  0.00000000000E+00 0. -1.
         25    2    1    2    0    0 -0.80721851530E+02  0.92452765381E+02 -0.17113749810E+04  0.17203245482E+04  0.12509474194E+03 0.  0.
          5    1    3    3  502    0 -0.81298936991E+02 -0.10050266387E+01 -0.84529510456E+03  0.84920657877E+03  0.41800000000E+01 0.  1.
         -5    1    3    3    0  502  0.57708546022E+00  0.93457792020E+02 -0.86607987641E+03  0.87111796941E+03  0.41800000000E+01 0.  1.
        -11    1    1    2    0    0  0.73422579856E+02 -0.26037010538E+02 -0.26109173315E+03  0.27246595066E+03  0.00000000000E+00 0.  1.
         11    1    1    2    0    0  0.72992716745E+01 -0.66415754843E+02 -0.38198464260E+03  0.38778421711E+03  0.00000000000E+00 0. -1.
</event>
<event>
 7    1  0.2873461E-009  0.1141354E+03  0.7561462E-02  0.1253098E+00
          1   -1    0    0  501    0  0.00000000000E+00  0.00000000000E+00  0.23589528847E+03  0.23589528847E+03  0.00000000000E+00 0. -1.
         -1   -1    0    0    0  501 -0.00000000000E+00 -0.00000000000E+00 -0.81039921395E+02  0.81039921395E+02  0.00000000000E+00 0.  1.
         25    2    1    2    0    0  0.14402554624E+00  0.51571670305E+02  0.16303157555E+03  0.21186328688E+03  0.12508836788E+03 0.  0.
          5    1    3    3  502    0  0.35762287109E+00  0.90977623890E+02  0.86125585878E+02  0.12534809486E+03  0.41800000000E+01 0.  1.
         -5    1    3    3    0  502 -0.21359732486E+00 -0.39405953584E+02  0.76905989671E+02  0.86515192013E+02  0.41800000000E+01 0.  1.
        -11    1    1    2    0    0 -0.25214736403E+02  0.12951339439E+02 -0.20207216194E+02  0.34811660568E+02  0.00000000000E+00 0.  1.
         11    1    1    2    0    0  0.25070710857E+02 -0.64523009744E+02  0.12031007724E+02  0.70260262426E+02  0.00000000000E+00 0. -1.
</event>
<event>
 7    1  0.2873461E-009  0.1252817E+03  0.7561462E-02  0.1234630E+00
          2   -1    0    0  501    0  0.00000000000E+00  0.00000000000E+00  0.30138840119E+02  0.30138840119E+02  0.00000000000E+00 0. -1.
         -2   -1    0    0    0  501 -0.00000000000E+00 -0.00000000000E+00 -0.67955443077E+03  0.67955443077E+03  0.00000000000E+00 0.  1.
         25    2    1    2    0    0  0.52061478680E+02  0.71475330861E+02 -0.42797699234E+03  0.45456612151E+03  0.12508769872E+03 0.  0.
          5    1    3    3  502    0 -0.31065528449E+02  0.17570198670E+02 -0.38501992324E+02  0.52665498688E+02  0.41800000000E+01 0. -1.
         -5    1    3    3    0  502  0.83127007129E+02  0.53905132191E+02 -0.38947500001E+03  0.40190062282E+03  0.41800000000E+01 0. -1.
        -11    1    1    2    0    0 -0.62716542591E+02 -0.24556539365E+02 -0.17795920878E+03  0.19027839691E+03  0.00000000000E+00 0.  1.
         11    1    1    2    0    0  0.10655063911E+02 -0.46918791496E+02 -0.43479389526E+02  0.64848752462E+02  0.00000000000E+00 0. -1.
</event>
<event>
 7    1  0.2873461E-009  0.1315831E+03  0.7561462E-02  0.1225125E+00
         -2   -1    0    0    0  501 -0.00000000000E+00  0.00000000000E+00  0.78698422746E+03  0.78698422746E+03  0.00000000000E+00 0. -1.
          2   -1    0    0  501    0  0.00000000000E+00 -0.00000000000E+00 -0.30789455130E+02  0.30789455130E+02  0.00000000000E+00 0.  1.
         25    2    1    2    0    0 -0.92133547718E+02  0.38791773676E+02  0.53630334444E+03  0.55969638458E+03  0.12508146682E+03 0.  0.
          5    1    3    3  502    0 -0.22032974362E+02  0.76936637291E+02  0.27658744376E+03  0.28796316529E+03  0.41800000000E+01 0. -1.
         -5    1    3    3    0  502 -0.70100573356E+02 -0.38144863615E+02  0.25971590067E+03  0.27173321929E+03  0.41800000000E+01 0. -1.
        -11    1    1    2    0    0  0.56080930450E+02 -0.36651212954E+02  0.47957724228E+02  0.82391294954E+02  0.00000000000E+00 0.  1.
         11    1    1    2    0    0  0.36052617268E+02 -0.21405607219E+01  0.17193370367E+03  0.17568600305E+03  0.00000000000E+00 0. -1.
</event>
<event>
 7    1  0.2873461E-009  0.1010094E+03  0.7561462E-02  0.1278187E+00
          1   -1    0    0  501    0  0.00000000000E+00  0.00000000000E+00  0.11763066265E+03  0.11763066265E+03  0.00000000000E+00 0. -1.
         -1   -1    0    0    0  501 -0.00000000000E+00 -0.00000000000E+00 -0.11151217328E+03  0.11151217328E+03  0.00000000000E+00 0.  1.
         25    2    1    2    0    0  0.38473655371E+02 -0.21703864241E+01  0.83649686515E+01  0.13115820539E+03  0.12509024504E+03 0.  0.
          5    1    3    3  502    0 -0.25056422750E+02  0.26354761342E+02  0.40290205275E+02  0.54435014536E+02  0.41800000000E+01 0. -1.
         -5    1    3    3    0  502  0.63530078121E+02 -0.28525147766E+02 -0.31925236624E+02  0.76723190853E+02  0.41800000000E+01 0. -1.
        -11    1    1    2    0    0  0.19801403947E+02  0.26007143387E+02 -0.10842760965E+02  0.34438823597E+02  0.00000000000E+00 0.  1.
         11    1    1    2    0    0 -0.58275059318E+02 -0.23836756963E+02  0.85962816898E+01  0.63545806942E+02  0.00000000000E+00 0. -1.
</event>
<event>
 7    1  0.2873461E-009  0.9540920E+02  0.7561462E-02  0.1290257E+00
         -2   -1    0    0    0  501 -0.00000000000E+00  0.00000000000E+00  0.42410765968E+02  0.42410765968E+02  0.00000000000E+00 0.  1.
          2   -1    0    0  501    0  0.00000000000E+00 -0.00000000000E+00 -0.39660315114E+03  0.39660315114E+03  0.00000000000E+00 0. -1.
         25    2    1    2    0    0 -0.89440702555E+01 -0.32225878289E+02 -0.29769055308E+03  0.32462143915E+03  0.12506362278E+03 0.  0.
          5    1    3    3  502    0 -0.14838722858E+02  0.44360790744E+02 -0.16168781985E+03  0.16837010109E+03  0.41800000000E+01 0.  1.
         -5    1    3    3    0  502  0.58946526026E+01 -0.76586669033E+02 -0.13600273323E+03  0.15625133807E+03  0.41800000000E+01 0.  1.
        -11    1    1    2    0    0 -0.23549065197E+02  0.39973331269E+01  0.16928776415E+02  0.29276622324E+02  0.00000000000E+00 0.  1.
         11    1    1    2    0    0  0.32493135453E+02  0.28228545162E+02 -0.73430608513E+02  0.85115855633E+02  0.00000000000E+00 0. -1.
</event>
<event>
 7    1  0.2873461E-009  0.4382886E+03  0.7561462E-02  0.1031273E+00
         -1   -1    0    0    0  501 -0.00000000000E+00  0.00000000000E+00  0.10515597887E+04  0.10515597887E+04  0.00000000000E+00 0.  1.
          1   -1    0    0  501    0  0.00000000000E+00 -0.00000000000E+00 -0.19208224063E+03  0.19208224063E+03  0.00000000000E+00 0. -1.
         25    2    1    2    0    0 -0.18528441562E+02 -0.43208571997E+03  0.36131676389E+03  0.57726711503E+03  0.12508455411E+03 0.  0.
          5    1    3    3  502    0 -0.55745381386E+02 -0.18465302746E+03  0.20840283653E+03  0.28399560343E+03  0.41800000000E+01 0. -1.
         -5    1    3    3    0  502  0.37216939824E+02 -0.24743269251E+03  0.15291392736E+03  0.29327151160E+03  0.41800000000E+01 0. -1.
        -11    1    1    2    0    0  0.26100752702E+02  0.33980320058E+03  0.32991181280E+03  0.47433033704E+03  0.00000000000E+00 0. -1.
         11    1    1    2    0    0 -0.75723111399E+01  0.92282519387E+02  0.16824897137E+03  0.19204457724E+03  0.00000000000E+00 0.  1.
</event>
<event>
 7    1  0.2873461E-009  0.1197154E+03  0.7561462E-02  0.1243567E+00
         -2   -1    0    0    0  501 -0.00000000000E+00  0.00000000000E+00  0.24233288367E+03  0.24233288367E+03  0.00000000000E+00 0.  1.
          2   -1    0    0  501    0  0.00000000000E+00 -0.00000000000E+00 -0.83247084387E+02  0.83247084387E+02  0.00000000000E+00 0. -1.
         25    2    1    2    0    0 -0.66246111126E+02 -0.49644676573E+02  0.44432412629E+02  0.15644590131E+03  0.12509172472E+03 0.  0.
          5    1    3    3  502    0 -0.88038700872E+02 -0.24578830449E+02 -0.10515803068E+02  0.92103128457E+02  0.41800000000E+01 0. -1.
         -5    1    3    3    0  502  0.21792589746E+02 -0.25065846124E+02  0.54948215698E+02  0.64342772850E+02  0.41800000000E+01 0. -1.
        -11    1    1    2    0    0  0.66602126536E+02  0.18196091200E+01  0.97974678747E+02  0.11848287603E+03  0.00000000000E+00 0.  1.
         11    1    1    2    0    0 -0.35601540962E+00  0.47825067453E+02  0.16678707905E+02  0.50651190719E+02  0.00000000000E+00 0. -1.
</event>
<event>
 7    1  0.2873461E-009  0.1285476E+03  0.7561462E-02  0.1229627E+00
         -2   -1    0    0    0  501 -0.00000000000E+00  0.00000000000E+00  0.25445192455E+02  0.25445192455E+02  0.00000000000E+00 0.  1.
          2   -1    0    0  501    0  0.00000000000E+00 -0.00000000000E+00 -0.73917521102E+03  0.73917521102E+03  0.00000000000E+00 0. -1.
         25    2    1    2    0    0 -0.18245338798E+02  0.67577004941E+02 -0.51954508830E+03  0.53895789830E+03  0.12509585673E+03 0.  0.
          5    1    3    3  502    0  0.27360517825E+02 -0.26710152621E+02 -0.13253398121E+03  0.13800274912E+03  0.41800000000E+01 0.  1.
         -5    1    3    3    0  502 -0.45605856623E+02  0.94287157561E+02 -0.38701110709E+03  0.40095514918E+03  0.41800000000E+01 0.  1.
        -11    1    1    2    0    0  0.53896827663E+02 -0.52039704627E+02 -0.14233492205E+03  0.16084846572E+03  0.00000000000E+00 0.  1.
         11    1    1    2    0    0 -0.35651488864E+02 -0.15537300314E+02 -0.51850008208E+02  0.64814039455E+02  0.00000000000E+00 0. -1.
</event>
<event>
 7    1  0.3142789E-009  0.9386297E+02  0.7561462E-02  0.1293758E+00
          2   -1    0    0  501    0  0.00000000000E+00  0.00000000000E+00  0.74829942179E+03  0.74829942179E+03  0.00000000000E+00 0. -1.
         -2   -1    0    0    0  501 -0.00000000000E+00 -0.00000000000E+00 -0.27719105589E+02  0.27719105589E+02  0.00000000000E+00 0.  1.
         25    2    1    2    0    0  0.57336422816E+02  0.43300086863E+02  0.55379895249E+03  0.57227408233E+03  0.12506791206E+03 0.  0.
          5    1    3    3  502    0  0.65388406768E+02 -0.49688413169E+01  0.47428055590E+03  0.47881087209E+03  0.41800000000E+01 0. -1.
         -5    1    3    3    0  502 -0.80519839518E+01  0.48268928180E+02  0.79518396585E+02  0.93463210242E+02  0.41800000000E+01 0. -1.
        -11    1    1    2    0    0 -0.17136164355E+02 -0.20378982789E+02 -0.38917719722E+01  0.26909049730E+02  0.00000000000E+00 0.  1.
         11    1    1    2    0    0 -0.40200258462E+02 -0.22921104074E+02  0.17067313568E+03  0.17683539531E+03  0.00000000000E+00 0. -1.
</event>
<event>
 7    1  0.2873461E-009  0.1066978E+03  0.7561462E-02  0.1266810E+00
          3   -1    0    0  501    0  0.00000000000E+00  0.00000000000E+00  0.62562124342E+03  0.62562124342E+03  0.00000000000E+00 0. -1.
         -3   -1    0    0    0  501 -0.00000000000E+00 -0.00000000000E+00 -0.20180641257E+02  0.20180641257E+02  0.00000000000E+00 0.  1.
         25    2    1    2    0    0 -0.78430271831E+00 -0.28865534609E+02  0.34448260937E+03  0.36762646168E+03  0.12508842051E+03 0.  0.
          5    1    3    3  502    0 -0.46628874180E+02 -0.51841984736E+02  0.25513080982E+03  0.26452040716E+03  0.41800000000E+01 0.  1.
         -5    1    3    3    0  502  0.45844571462E+02  0.22976450127E+02  0.89351799558E+02  0.10310605451E+03  0.41800000000E+01 0.  1.
        -11    1    1    2    0    0 -0.36274059433E+02  0.39411439897E+02  0.19030520550E+03  0.19769962120E+03  0.00000000000E+00 0. -1.
         11    1    1    2    0    0  0.37058362151E+02 -0.10545905288E+02  0.70652787291E+02  0.80475801801E+02  0.00000000000E+00 0.  1.
</event>
<event>
 7    1  0.2873461E-009  0.1365725E+03  0.7561462E-02  0.1218017E+00
         -2   -1    0    0    0  501 -0.00000000000E+00  0.00000000000E+00  0.65147904162E+02  0.65147904162E+02  0.00000000000E+00 0.  1.
          2   -1    0    0  501    0  0.00000000000E+00 -0.00000000000E+00 -0.37930794718E+03  0.37930794718E+03  0.00000000000E+00 0. -1.
         25    2    1    2    0    0 -0.48166249967E+02  0.71292268873E+02 -0.26847006456E+03  0.30842590796E+03  0.12509112638E+03 0.  0.
          5    1    3    3  502    0  0.91329607151E+01 -0.29750187506E+02 -0.91137645734E+02  0.96395163250E+02  0.41800000000E+01 0. -1.
         -5    1    3    3    0  502 -0.57299210682E+02  0.10104245638E+03 -0.17733241882E+03  0.21203074471E+03  0.41800000000E+01 0. -1.
        -11    1    1    2    0    0  0.74245124369E+02 -0.65014662376E+02 -0.46716680091E+02  0.10918650565E+03  0.00000000000E+00 0. -1.
         11    1    1    2    0    0 -0.26078874402E+02 -0.62776064976E+01  0.10267016293E+01  0.26843437739E+02  0.00000000000E+00 0.  1.
</event>
<event>
 7    1  0.2873461E-009  0.1769269E+03  0.7561462E-02  0.1170811E+00
         -1   -1    0    0    0  501 -0.00000000000E+00  0.00000000000E+00  0.55639623728E+02  0.55639623728E+02  0.00000000000E+00 0.  1.
          1   -1    0    0  501    0  0.00000000000E+00 -0.00000000000E+00 -0.74657917083E+03  0.74657917083E+03  0.00000000000E+00 0. -1.
         25    2    1    2    0    0  0.38647229132E+02 -0.16106818796E+03 -0.27116616389E+03  0.34148951102E+03  0.12508968064E+03 0.  0.
          5    1    3    3  502    0  0.51128462308E+02 -0.86506014497E+02 -0.23886087536E+03  0.25917060092E+03  0.41800000000E+01 0. -1.
         -5    1    3    3    0  502 -0.12481233176E+02 -0.74562173462E+02 -0.32305288531E+02  0.82318910100E+02  0.41800000000E+01 0. -1.
        -11    1    1    2    0    0 -0.56347322267E+02  0.11143367485E+03 -0.20893804268E+03  0.24340827902E+03  0.00000000000E+00 0.  1.
         11    1    1    2    0    0  0.17700093135E+02  0.49634513111E+02 -0.21083534053E+03  0.21732100451E+03  0.00000000000E+00 0. -1.
</event>
<event>
 7    1  0.2873461E-009  0.7161942E+02  0.7561462E-02  0.1354671E+00
          1   -1    0    0  501    0  0.00000000000E+00  0.00000000000E+00  0.14911344365E+03  0.14911344365E+03  0.00000000000E+00 0. -1.
         -1   -1    0    0    0  501 -0.00000000000E+00 -0.00000000000E+00 -0.10447898531E+03  0.10447898531E+03  0.00000000000E+00 0.  1.
         25    2    1    2    0    0 -0.38575746092E+02  0.48266015366E+02  0.27872590812E+02  0.14227713951E+03  0.12509279229E+03 0.  0.
          5    1    3    3  502    0 -0.21402229473E+02  0.54051273846E+02 -0.40790353675E+02  0.71140150293E+02  0.41800000000E+01 0. -1.
         -5    1    3    3    0  502 -0.17173516618E+02 -0.57852584801E+01  0.68662944487E+02  0.71136989214E+02  0.41800000000E+01 0. -1.
        -11    1    1    2    0    0  0.24490603255E+02 -0.11640342661E+02 -0.36306290039E+02  0.45314831143E+02  0.00000000000E+00 0.  1.
         11    1    1    2    0    0  0.14085142836E+02 -0.36625672705E+02  0.53068157568E+02  0.66000458312E+02  0.00000000000E+00 0. -1.
</event>
<event>
 7    1  0.2873461E-009  0.1181516E+03  0.7561462E-02  0.1246178E+00
          2   -1    0    0  501    0  0.00000000000E+00  0.00000000000E+00  0.76154605068E+03  0.76154605068E+03  0.00000000000E+00 0. -1.
         -2   -1    0    0    0  501 -0.00000000000E+00 -0.00000000000E+00 -0.29323585791E+02  0.29323585791E+02  0.00000000000E+00 0.  1.
         25    2    1    2    0    0 -0.91492043003E+02 -0.46326161280E+02  0.37011285616E+03  0.40391577231E+03  0.12509003825E+03 0.  0.
          5    1    3    3  502    0 -0.10779819194E+03 -0.42642762500E+02  0.36882385989E+03  0.38663596237E+03  0.41800000000E+01 0. -1.
         -5    1    3    3    0  502  0.16306148941E+02 -0.36833987797E+01  0.12889962749E+01  0.17279809931E+02  0.41800000000E+01 0. -1.
        -11    1    1    2    0    0  0.29316941120E+02  0.95520324199E+01  0.18770167362E+02  0.36097694425E+02  0.00000000000E+00 0.  1.
         11    1    1    2    0    0  0.62175101883E+02  0.36774128860E+02  0.34333944137E+03  0.35085616974E+03  0.00000000000E+00 0. -1.
</event>
<event>
 7    1  0.2873461E-009  0.2670298E+03  0.7561462E-02  0.1102992E+00
         -4   -1    0    0    0  501 -0.00000000000E+00  0.00000000000E+00  0.30086399583E+03  0.30086399583E+03  0.00000000000E+00 0. -1.
          4   -1    0    0  501    0  0.00000000000E+00 -0.00000000000E+00 -0.27057201916E+03  0.27057201916E+03  0.00000000000E+00 0.  1.
         25    2    1    2    0    0  0.13844786111E+03  0.21101561221E+03  0.92154225908E+02  0.29636927877E+03  0.12508776600E+03 0.  0.
          5    1    3    3  502    0 -0.23559090504E+02  0.34223131180E+02  0.16319008669E+02  0.44833423882E+02  0.41800000000E+01 0.  1.
         -5    1    3    3    0  502  0.16200695162E+03  0.17679248103E+03  0.75835217239E+02  0.25153585489E+03  0.41800000000E+01 0.  1.
        -11    1    1    2    0    0 -0.24202673773E+02 -0.41727498760E+02 -0.51513609005E+02  0.70573404929E+02  0.00000000000E+00 0.  1.
         11    1    1    2    0    0 -0.11424518734E+03 -0.16928811345E+03 -0.10348640232E+02  0.20449333128E+03  0.00000000000E+00 0. -1.
</event>
<event>
 7    1  0.2873461E-009  0.2492135E+03  0.7561462E-02  0.1113803E+00
          2   -1    0    0  501    0  0.00000000000E+00  0.00000000000E+00  0.24639355138E+03  0.24639355138E+03  0.00000000000E+00 0. -1.
         -2   -1    0    0    0  501 -0.00000000000E+00 -0.00000000000E+00 -0.26968655018E+03  0.26968655018E+03  0.00000000000E+00 0.  1.
         25    2    1    2    0    0 -0.21196002452E+03 -0.83349397406E+02  0.39125369072E+02  0.26277764088E+03  0.12508844869E+03 0.  0.
          5    1    3    3  502    0 -0.16694401618E+03 -0.22645843927E+01  0.25004527629E+02  0.16887312303E+03  0.41800000000E+01 0.  1.
         -5    1    3    3    0  502 -0.45016008343E+02 -0.81084813013E+02  0.14120841442E+02  0.93904517844E+02  0.41800000000E+01 0.  1.
        -11    1    1    2    0    0  0.12178818035E+03  0.84786665620E+02 -0.67394289488E+02  0.16298199224E+03  0.00000000000E+00 0. -1.
         11    1    1    2    0    0  0.90171844179E+02 -0.14372682137E+01  0.49759216140E+01  0.90320468436E+02  0.00000000000E+00 0.  1.
</event>
<event>
 7    1  0.2873461E-009  0.1157558E+03  0.7561462E-02  0.1250268E+00
         -1   -1    0    0    0  501 -0.00000000000E+00  0.00000000000E+00  0.45152235788E+02  0.45152235788E+02  0.00000000000E+00 0.  1.
          1   -1    0    0  501    0  0.00000000000E+00 -0.00000000000E+00 -0.44146718500E+03  0.44146718500E+03  0.00000000000E+00 0. -1.
         25    2    1    2    0    0  0.28054672813E+02 -0.68008212009E+02 -0.30783076300E+03  0.34032298374E+03  0.12509105903E+03 0.  0.
          5    1    3    3  502    0 -0.41555237143E+02 -0.92196685650E+01 -0.44850742297E+02  0.61975007116E+02  0.41800000000E+01 0. -1.
         -5    1    3    3    0  502  0.69609909956E+02 -0.58788543444E+02 -0.26298002070E+03  0.27834797663E+03  0.41800000000E+01 0. -1.
        -11    1    1    2    0    0 -0.28752250405E+02 -0.75801795710E+00  0.60531037855E+01  0.29392287424E+02  0.00000000000E+00 0.  1.
         11    1    1    2    0    0  0.69757759211E+00  0.68766229966E+02 -0.94537290005E+02  0.11690414963E+03  0.00000000000E+00 0. -1.
</event>
<event>
 7    1  0.2915071E-009  0.1039907E+03  0.7561462E-02  0.1272121E+00
          2   -1    0    0  501    0  0.00000000000E+00  0.00000000000E+00  0.25435819103E+03  0.25435819103E+03  0.00000000000E+00 0. -1.
         -2   -1    0    0    0  501 -0.00000000000E+00 -0.00000000000E+00 -0.74954350236E+02  0.74954350236E+02  0.00000000000E+00 0.  1.
         25    2    1    2    0    0 -0.66828991821E+02  0.34050896686E+01  0.35105511054E+02  0.14614417458E+03  0.12509202242E+03 0.  0.
          5    1    3    3  502    0  0.36863973062E+02 -0.18665462194E+01  0.24717335291E+01  0.37229267672E+02  0.41800000000E+01 0. -1.
         -5    1    3    3    0  502 -0.10369296488E+03  0.52716358879E+01  0.32633777525E+02  0.10891490691E+03  0.41800000000E+01 0. -1.
        -11    1    1    2    0    0  0.41169738085E+02 -0.25896418591E+01  0.15108419490E+03  0.15661445504E+03  0.00000000000E+00 0. -1.
         11    1    1    2    0    0  0.25659253736E+02 -0.81544780947E+00 -0.67858651647E+01  0.26553911641E+02  0.00000000000E+00 0.  1.
</event>
<event>
 7    1  0.2873461E-009  0.1307330E+03  0.7561462E-02  0.1226372E+00
         -2   -1    0    0    0  501 -0.00000000000E+00  0.00000000000E+00  0.36125097498E+02  0.36125097498E+02  0.00000000000E+00 0. -1.
          2   -1    0    0  501    0  0.00000000000E+00 -0.00000000000E+00 -0.72221195535E+03  0.72221195535E+03  0.00000000000E+00 0.  1.
         25    2    1    2    0    0 -0.16009965451E+02  0.11006981592E+03 -0.29896303455E+03  0.34262999343E+03  0.12507890711E+03 0.  0.
          5    1    3    3  502    0 -0.47695864137E+00  0.36982570065E+02 -0.29884559739E+01  0.37340879037E+02  0.41800000000E+01 0.  1.
         -5    1    3    3    0  502 -0.15533006810E+02  0.73087245859E+02 -0.29597457857E+03  0.30528911440E+03  0.41800000000E+01 0.  1.
        -11    1    1    2    0    0  0.24016930249E+02  0.12157797311E+02 -0.99724416792E+02  0.10329367976E+03  0.00000000000E+00 0. -1.
         11    1    1    2    0    0 -0.80069647976E+01 -0.12222761323E+03 -0.28739940651E+03  0.31241337965E+03  0.00000000000E+00 0.  1.
</event>
<event>
 7    1  0.2873461E-009  0.9942660E+02  0.7561462E-02  0.1281506E+00
         -3   -1    0    0    0  501 -0.00000000000E+00  0.00000000000E+00  0.47245472900E+03  0.47245472900E+03  0.00000000000E+00 0.  1.
          3   -1    0    0  501    0  0.00000000000E+00 -0.00000000000E+00 -0.39352474737E+02  0.39352474737E+02  0.00000000000E+00 0. -1.
         25    2    1    2    0    0 -0.25430325410E+02  0.46775020246E+02  0.11977691489E+03  0.18118958981E+03  0.12509418109E+03 0.  0.
          5    1    3    3  502    0 -0.69481243306E+02  0.18192802643E+02  0.10351121834E+03  0.12605818483E+03  0.41800000000E+01 0.  1.
         -5    1    3    3    0  502  0.44050917896E+02  0.28582217604E+02  0.16265696554E+02  0.55131404979E+02  0.41800000000E+01 0.  1.
        -11    1    1    2    0    0 -0.12463125844E+02  0.18334333039E+01  0.14153475756E+01  0.12676521299E+02  0.00000000000E+00 0. -1.
         11    1    1    2    0    0  0.37893451254E+02 -0.48608453550E+02  0.31190999180E+03  0.31794109264E+03  0.00000000000E+00 0.  1.
</event>
<event>
 7    1  0.2873461E-009  0.9468243E+02  0.7561462E-02  0.1291893E+00
         -1   -1    0    0    0  501 -0.00000000000E+00  0.00000000000E+00  0.72074521388E+02  0.72074521388E+02  0.00000000000E+00 0.  1.
          1   -1    0    0  501    0  0.00000000000E+00 -0.00000000000E+00 -0.27346285206E+03  0.27346285206E+03  0.00000000000E+00 0. -1.
         25    2    1    2    0    0  0.39219718091E+02  0.52111101001E+02 -0.18735800769E+03  0.23452026838E+03  0.12507189972E+03 0.  0.
          5    1    3    3  502    0  0.57589970693E+02  0.73857464753E+02 -0.18273313500E+03  0.20537867672E+03  0.41800000000E+01 0.  1.
         -5    1    3    3    0  502 -0.18370252602E+02 -0.21746363752E+02 -0.46248726899E+01  0.29141591660E+02  0.41800000000E+01 0.  1.
        -11    1    1    2    0    0 -0.28594716719E+02 -0.25980353302E+02  0.36497899529E+02  0.53148219650E+02  0.00000000000E+00 0.  1.
         11    1    1    2    0    0 -0.10625001372E+02 -0.26130747699E+02 -0.50528222516E+02  0.57868885422E+02  0.00000000000E+00 0. -1.
</event>
<event>
 7    1  0.2873461E-009  0.1528342E+03  0.7561462E-02  0.1197033E+00
         -1   -1    0    0    0  501 -0.00000000000E+00  0.00000000000E+00  0.22442885063E+02  0.22442885063E+02  0.00000000000E+00 0.  1.
          1   -1    0    0  501    0  0.00000000000E+00 -0.00000000000E+00 -0.17434411422E+04  0.17434411422E+04  0.00000000000E+00 0. -1.
         25    2    1    2    0    0 -0.79389621266E+02 -0.10780505098E+03 -0.13238994918E+04  0.13365185636E+04  0.12508943068E+03 0.  0.
          5    1    3    3  502    0  0.13576246387E+02 -0.42339715718E+01 -0.18459987137E+02  0.23674553984E+02  0.41800000000E+01 0. -1.
         -5    1    3    3    0  502 -0.92965867653E+02 -0.10357107941E+03 -0.13054395046E+04  0.13128440096E+04  0.41800000000E+01 0. -1.
        -11    1    1    2    0    0  0.92085279012E+02  0.84062355964E+02 -0.24500023289E+03  0.27490233251E+03  0.00000000000E+00 0.  1.
         11    1    1    2    0    0 -0.12695657746E+02  0.23742695019E+02 -0.15209853249E+03  0.15446313113E+03  0.00000000000E+00 0. -1.
</event>
<event>
 7    1  0.2873461E-009  0.1880818E+03  0.7561462E-02  0.1160203E+00
          2   -1    0    0  501    0  0.00000000000E+00  0.00000000000E+00  0.19862348886E+04  0.19862348886E+04  0.00000000000E+00 0. -1.
         -2   -1    0    0    0  501 -0.00000000000E+00 -0.00000000000E+00 -0.19757297651E+02  0.19757297651E+02  0.00000000000E+00 0.  1.
         25    2    1    2    0    0 -0.37618231459E+02  0.15222335439E+03  0.13107999446E+04  0.13260583524E+04  0.12508868149E+03 0.  0.
          5    1    3    3  502    0  0.18605545070E+02 -0.14879691963E+02  0.14972031328E+03  0.15166151835E+03  0.41800000000E+01 0. -1.
         -5    1    3    3    0  502 -0.56223776529E+02  0.16710304635E+03  0.11610796314E+04  0.11743968341E+04  0.41800000000E+01 0. -1.
        -11    1    1    2    0    0  0.62029515755E+02 -0.12111529942E+03  0.43652873839E+03  0.45724601258E+03  0.00000000000E+00 0.  1.
         11    1    1    2    0    0 -0.24411284295E+02 -0.31108054965E+02  0.21914890794E+03  0.22268782126E+03  0.00000000000E+00 0. -1.
</event>
<event>
 7    1  0.2873461E-009  0.1315216E+03  0.7561462E-02  0.1225215E+00
         -2   -1    0    0    0  501 -0.00000000000E+00  0.00000000000E+00  0.40491177175E+02  0.40491177175E+02  0.00000000000E+00 0.  1.
          2   -1    0    0  501    0  0.00000000000E+00 -0.00000000000E+00 -0.70991045741E+03  0.70991045741E+03  0.00000000000E+00 0. -1.
         25    2    1    2    0    0 -0.98262418755E+02  0.53171679101E+02 -0.21265113764E+03  0.27083413185E+03  0.12509152744E+03 0.  0.
          5    1    3    3  502    0 -0.54188820271E+02  0.53654768827E+02 -0.21329471419E+03  0.22655544567E+03  0.41800000000E+01 0. -1.
         -5    1    3    3    0  502 -0.44073598484E+02 -0.48308972623E+00  0.64357655308E+00  0.44278686179E+02  0.41800000000E+01 0. -1.
        -11    1    1    2    0    0 -0.14904767933E+02 -0.19068967373E+02 -0.12631867084E+03  0.12861642285E+03  0.00000000000E+00 0. -1.
         11    1    1    2    0    0  0.11316718669E+03 -0.34102711728E+02 -0.33044947176E+03  0.35095107989E+03  0.00000000000E+00 0.  1.
</event>
<event>
 7    1  0.2873461E-009  0.1493267E+03  0.7561462E-02  0.1201303E+00
         -2   -1    0    0    0  501 -0.00000000000E+00  0.00000000000E+00  0.80400757892E+02  0.80400757892E+02  0.00000000000E+00 0.  1.
          2   -1    0    0  501    0  0.00000000000E+00 -0.00000000000E+00 -0.31013191792E+03  0.31013191792E+03  0.00000000000E+00 0. -1.
         25    2    1    2    0    0 -0.11231068741E+03 -0.54834955570E+01 -0.14743330831E+03  0.22366943634E+03  0.12509067560E+03 0.  0.
          5    1    3    3  502    0 -0.13634212102E+02 -0.44993509800E+02 -0.92735127606E+02  0.10405567719E+03  0.41800000000E+01 0. -1.
         -5    1    3    3    0  502 -0.98676475312E+02  0.39510014243E+02 -0.54698180706E+02  0.11961375915E+03  0.41800000000E+01 0. -1.
        -11    1    1    2    0    0  0.27976910805E+02 -0.40346480946E+02 -0.30436973280E+02  0.57766386466E+02  0.00000000000E+00 0. -1.
         11    1    1    2    0    0  0.84333776610E+02  0.45829976503E+02 -0.51860878437E+02  0.10909685301E+03  0.00000000000E+00 0.  1.
</event>
<event>
 7    1  0.2873461E-009  0.1195713E+03  0.7561462E-02  0.1243806E+00
         -1   -1    0    0    0  501 -0.00000000000E+00  0.00000000000E+00  0.60991393071E+02  0.60991393071E+02  0.00000000000E+00 0.  1.
          1   -1    0    0  501    0  0.00000000000E+00 -0.00000000000E+00 -0.33075408211E+03  0.33075408211E+03  0.00000000000E+00 0. -1.
         25    2    1    2    0    0 -0.35197597713E+02 -0.79763988249E+02 -0.16968490760E+03  0.22812720491E+03  0.12509152268E+03 0.  0.
          5    1    3    3  502    0 -0.81551948911E+02 -0.58278710890E+02 -0.10031863181E+03  0.14187469402E+03  0.41800000000E+01 0.  1.
         -5    1    3    3    0  502  0.46354351198E+02 -0.21485277359E+02 -0.69366275787E+02  0.86252510889E+02  0.41800000000E+01 0.  1.
        -11    1    1    2    0    0  0.22096958793E+02  0.59047040323E+02 -0.25934636248E+01  0.63099561111E+02  0.00000000000E+00 0.  1.
         11    1    1    2    0    0  0.13100638919E+02  0.20716947926E+02 -0.97484317819E+02  0.10051870916E+03  0.00000000000E+00 0. -1.
</event>
<event>
 7    1  0.2873461E-009  0.1079250E+03  0.7561462E-02  0.1264461E+00
         -2   -1    0    0    0  501 -0.00000000000E+00  0.00000000000E+00  0.28581235936E+02  0.28581235936E+02  0.00000000000E+00 0.  1.
          2   -1    0    0  501    0  0.00000000000E+00 -0.00000000000E+00 -0.59802623434E+03  0.59802623434E+03  0.00000000000E+00 0. -1.
         25    2    1    2    0    0 -0.14775580607E+02 -0.72151489450E+02 -0.32685378096E+03  0.35763721615E+03  0.12508728568E+03 0.  0.
          5    1    3    3  502    0 -0.24366483647E+02  0.23431448399E+02 -0.29289938002E+02  0.44923614810E+02  0.41800000000E+01 0.  1.
         -5    1    3    3    0  502  0.95909030403E+01 -0.95582937850E+02 -0.29756384296E+03  0.31271360134E+03  0.41800000000E+01 0.  1.
        -11    1    1    2    0    0  0.29923543669E+02  0.38756448124E+02 -0.40396554930E+02  0.63477258819E+02  0.00000000000E+00 0.  1.
         11    1    1    2    0    0 -0.15147963062E+02  0.33395041326E+02 -0.20219466251E+03  0.20549299530E+03  0.00000000000E+00 0. -1.
</event>
<event>
 7    1  0.2873461E-009  0.1005892E+03  0.7561462E-02  0.1279062E+00
         -2   -1    0    0    0  501 -0.00000000000E+00  0.00000000000E+00  0.22135449437E+02  0.22135449437E+02  0.00000000000E+00 0.  1.
          2   -1    0    0  501    0  0.00000000000E+00 -0.00000000000E+00 -0.11633250531E+04  0.11633250531E+04  0.00000000000E+00 0. -1.
         25    2    1    2    0    0  0.31070023106E+02  0.39543241930E+02 -0.10072192568E+04  0.10162029384E+04  0.12509502970E+03 0.  0.
          5    1    3    3  502    0 -0.26159522288E+02 -0.47118371316E+01 -0.70138232106E+03  0.70189825097E+03  0.41800000000E+01 0.  1.
         -5    1    3    3    0  502  0.57229545394E+02  0.44255079062E+02 -0.30583693573E+03  0.31430468744E+03  0.41800000000E+01 0.  1.
        -11    1    1    2    0    0  0.15283723984E+02 -0.51677636680E+02 -0.55830350354E+02  0.77596381181E+02  0.00000000000E+00 0.  1.
         11    1    1    2    0    0 -0.46353747090E+02  0.12134394750E+02 -0.78139996557E+02  0.91661182990E+02  0.00000000000E+00 0. -1.
</event>
<event>
 7    1  0.2873461E-009  0.1697421E+03  0.7561462E-02  0.1178117E+00
          1   -1    0    0  501    0  0.00000000000E+00  0.00000000000E+00  0.25710600922E+03  0.25710600922E+03  0.00000000000E+00 0. -1.
         -1   -1    0    0    0  501 -0.00000000000E+00 -0.00000000000E+00 -0.11627473382E+03  0.11627473382E+03  0.00000000000E+00 0.  1.
         25    2    1    2    0    0 -0.13392333462E+03 -0.10063603247E+02  0.65217485732E+02  0.19477487376E+03  0.12508874983E+03 0.  0.
          5    1    3    3  502    0 -0.27984033772E+02 -0.59209081915E+02  0.33551500078E+02  0.73702083314E+02  0.41800000000E+01 0.  1.
         -5    1    3    3    0  502 -0.10593930085E+03  0.49145478668E+02  0.31665985655E+02  0.12107279044E+03  0.41800000000E+01 0.  1.
        -11    1    1    2    0    0  0.44079897032E+02 -0.35192754864E+02  0.70040925107E+01  0.56838583983E+02  0.00000000000E+00 0.  1.
         11    1    1    2    0    0  0.89843437589E+02  0.45256358111E+02  0.68609697151E+02  0.12176728530E+03  0.00000000000E+00 0. -1.
</event>
<event>
 7    1  0.2873461E-009  0.1236923E+03  0.7561462E-02  0.1237127E+00
         -2   -1    0    0    0  501 -0.00000000000E+00  0.00000000000E+00  0.46235355560E+02  0.46235355560E+02  0.00000000000E+00 0. -1.
          2   -1    0    0  501    0  0.00000000000E+00 -0.00000000000E+00 -0.41414490112E+03  0.41414490112E+03  0.00000000000E+00 0.  1.
         25    2    1    2    0    0  0.35596958257E+02 -0.69691133411E+02 -0.14661661001E+03  0.20801036545E+03  0.12509150367E+03 0.  0.
          5    1    3    3  502    0  0.64792210088E+02 -0.71672553137E+02 -0.53939901431E+02  0.11073378314E+03  0.41800000000E+01 0.  1.
         -5    1    3    3    0  502 -0.29195251831E+02  0.19814197253E+01 -0.92676708578E+02  0.97276582313E+02  0.41800000000E+01 0.  1.
        -11    1    1    2    0    0 -0.25926879992E+02  0.92647581354E+02 -0.16956486231E+03  0.19495645660E+03  0.00000000000E+00 0.  1.
         11    1    1    2    0    0 -0.96700782647E+01 -0.22956447943E+02 -0.51728073235E+02  0.57413434634E+02  0.00000000000E+00 0. -1.
</event>
<event>
 7    1  0.2873461E-009  0.2131147E+03  0.7561462E-02  0.1139123E+00
         -1   -1    0    0    0  501 -0.00000000000E+00  0.00000000000E+00  0.48580926339E+03  0.48580926339E+03  0.00000000000E+00 0.  1.
          1   -1    0    0  501    0  0.00000000000E+00 -0.00000000000E+00 -0.99524058784E+02  0.99524058784E+02  0.00000000000E+00 0. -1.
         25    2    1    2    0    0  0.70869200108E+02  0.17745637850E+03  0.20473875701E+03  0.30672535271E+03  0.12509705666E+03 0.  0.
          5    1    3    3  502    0  0.26426911327E+02  0.17674968341E+03  0.13538168765E+03  0.22424207005E+03  0.41800000000E+01 0. -1.
         -5    1    3    3    0  502  0.44442288781E+02  0.70669508642E+00  0.69357069357E+02  0.82483282669E+02  0.41800000000E+01 0. -1.
        -11    1    1    2    0    0  0.93405863453E+01 -0.59185392111E+02  0.20565948066E+02  0.63349154789E+02  0.00000000000E+00 0. -1.
         11    1    1    2    0    0 -0.80209786454E+02 -0.11827098638E+03  0.16098049953E+03  0.21525881467E+03  0.00000000000E+00 0.  1.
</event>
<event>
 7    1  0.2873461E-009  0.1622501E+03  0.7561462E-02  0.1186180E+00
          3   -1    0    0  501    0  0.00000000000E+00  0.00000000000E+00  0.36618510342E+02  0.36618510342E+02  0.00000000000E+00 0. -1.
         -3   -1    0    0    0  501 -0.00000000000E+00 -0.00000000000E+00 -0.83999047158E+03  0.83999047158E+03  0.00000000000E+00 0.  1.
         25    2    1    2    0    0 -0.78500542129E+02  0.11233457083E+03 -0.40162729957E+03  0.44241806563E+03  0.12509143103E+03 0.  0.
          5    1    3    3  502    0  0.12054483756E+02 -0.32013008254E+01  0.16283391557E+01  0.13254538619E+02  0.41800000000E+01 0.  1.
         -5    1    3    3    0  502 -0.90555025885E+02  0.11553587165E+03 -0.40325563873E+03  0.42916352701E+03  0.41800000000E+01 0.  1.
        -11    1    1    2    0    0  0.55342871316E+02 -0.12598882837E+03 -0.34365687919E+03  0.37018383122E+03  0.00000000000E+00 0.  1.
         11    1    1    2    0    0  0.23157670813E+02  0.13654257545E+02 -0.58087782475E+02  0.64007085072E+02  0.00000000000E+00 0. -1.
</event>
<event>
 7    1  0.2873461E-009  0.9388339E+02  0.7561462E-02  0.1293711E+00
          1   -1    0    0  501    0  0.00000000000E+00  0.00000000000E+00  0.15575820568E+03  0.15575820568E+03  0.00000000000E+00 0. -1.
         -1   -1    0    0    0  501 -0.00000000000E+00 -0.00000000000E+00 -0.89548217564E+02  0.89548217564E+02  0.00000000000E+00 0.  1.
         25    2    1    2    0    0 -0.37077211748E+02 -0.27532571461E+02  0.55187813492E+02  0.14431151045E+03  0.12508938871E+03 0.  0.
          5    1    3    3  502    0 -0.56796511848E+02  0.34843548420E+02  0.18908612278E+02  0.69389658040E+02  0.41800000000E+01 0. -1.
         -5    1    3    3    0  502  0.19719300100E+02 -0.62376119881E+02  0.36279201214E+02  0.74921852410E+02  0.41800000000E+01 0. -1.
        -11    1    1    2    0    0  0.14553624268E+02 -0.54250980107E+01  0.45606209793E+02  0.48178481083E+02  0.00000000000E+00 0. -1.
         11    1    1    2    0    0  0.22523587480E+02  0.32957669472E+02 -0.34584035170E+02  0.52816431710E+02  0.00000000000E+00 0.  1.
</event>
<event>
 7    1  0.2873461E-009  0.1318936E+03  0.7561462E-02  0.1224673E+00
         -2   -1    0    0    0  501 -0.00000000000E+00  0.00000000000E+00  0.23417376735E+03  0.23417376735E+03  0.00000000000E+00 0.  1.
          2   -1    0    0  501    0  0.00000000000E+00 -0.00000000000E+00 -0.10707662121E+03  0.10707662121E+03  0.00000000000E+00 0. -1.
         25    2    1    2    0    0 -0.13305709265E+02 -0.11309036952E+03  0.84497310338E+02  0.18908970654E+03  0.12509455660E+03 0.  0.
          5    1    3    3  502    0  0.36572540414E+02 -0.14915489782E+02 -0.13165460647E+02  0.41842852458E+02  0.41800000000E+01 0.  1.
         -5    1    3    3    0  502 -0.49878249678E+02 -0.98174879735E+02  0.97662770985E+02  0.14724685409E+03  0.41800000000E+01 0.  1.
        -11    1    1    2    0    0  0.59192741055E+01  0.52296453493E+02 -0.27249412559E+02  0.59266241138E+02  0.00000000000E+00 0. -1.
         11    1    1    2    0    0  0.73864351594E+01  0.60793916025E+02  0.69849248355E+02  0.92894440877E+02  0.00000000000E+00 0.  1.
</event>
<event>
 7    1  0.2873461E-009  0.1035024E+03  0.7561462E-02  0.1273099E+00
          1   -1    0    0  501    0  0.00000000000E+00  0.00000000000E+00  0.17345541744E+03  0.17345541744E+03  0.00000000000E+00 0. -1.
         -1   -1    0    0    0  501 -0.00000000000E+00 -0.00000000000E+00 -0.14939469159E+03  0.14939469159E+03  0.00000000000E+00 0.  1.
         25    2    1    2    0    0  0.86967963007E+02 -0.30341713427E+02  0.89094411872E+02  0.17907107160E+03  0.12507832864E+03 0.  0.
          5    1    3    3  502    0  0.53889599271E+02 -0.35859490411E+02  0.11796553217E+03  0.13462292206E+03  0.41800000000E+01 0. -1.
         -5    1    3    3    0  502  0.33078363735E+02  0.55177769843E+01 -0.28871120303E+02  0.44448149543E+02  0.41800000000E+01 0. -1.
        -11    1    1    2    0    0 -0.77412200015E+02  0.45965584121E+02 -0.79759163505E+02  0.12027887511E+03  0.00000000000E+00 0.  1.
         11    1    1    2    0    0 -0.95557629920E+01 -0.15623870694E+02  0.14725477484E+02  0.23500162318E+02  0.00000000000E+00 0. -1.
</event>
<event>
 7    1  0.2873461E-009  0.2075909E+03  0.7561462E-02  0.1143488E+00
          2   -1    0    0  501    0  0.00000000000E+00  0.00000000000E+00  0.33177132867E+03  0.33177132867E+03  0.00000000000E+00 0. -1.
         -2   -1    0    0    0  501 -0.00000000000E+00 -0.00000000000E+00 -0.18625184912E+03  0.18625184912E+03  0.00000000000E+00 0.  1.
         25    2    1    2    0    0  0.16373807468E+03  0.10379281999E+03 -0.41111529855E+02  0.23435161130E+03  0.12508962087E+03 0.  0.
          5    1    3    3  502    0  0.60231804308E+02 -0.10494770850E+02 -0.51083325771E+02  0.79780881402E+02  0.41800000000E+01 0.  1.
         -5    1    3    3    0  502  0.10350627038E+03  0.11428759084E+03  0.99717959159E+01  0.15457072990E+03  0.41800000000E+01 0.  1.
        -11    1    1    2    0    0 -0.78656826433E+02 -0.77932169840E+02  0.15241873916E+03  0.18839265243E+03  0.00000000000E+00 0. -1.
         11    1    1    2    0    0 -0.85081248251E+02 -0.25860650150E+02  0.34212270238E+02  0.95278914062E+02  0.00000000000E+00 0.  1.
</event>
<event>
 7    1  0.2995786E-009  0.9683509E+02  0.7561462E-02  0.1287096E+00
          2   -1    0    0  501    0  0.00000000000E+00  0.00000000000E+00  0.46900498812E+02  0.46900498812E+02  0.00000000000E+00 0. -1.
         -2   -1    0    0    0  501 -0.00000000000E+00 -0.00000000000E+00 -0.28463308605E+03  0.28463308605E+03  0.00000000000E+00 0.  1.
         25    2    1    2    0    0 -0.22692893629E+02 -0.15460887935E+02 -0.17599410860E+03  0.21765634013E+03  0.12508536949E+03 0.  0.
          5    1    3    3  502    0 -0.36027886674E+02  0.39022638460E+02 -0.29863381724E+02  0.61074289996E+02  0.41800000000E+01 0. -1.
         -5    1    3    3    0  502  0.13334993045E+02 -0.54483526394E+02 -0.14613072688E+03  0.15658205014E+03  0.41800000000E+01 0. -1.
        -11    1    1    2    0    0 -0.29993949372E+02  0.67777231224E+01  0.18942064131E+01  0.30808481747E+02  0.00000000000E+00 0. -1.
         11    1    1    2    0    0  0.52686843001E+02  0.86831648121E+01 -0.63632685052E+02  0.83068762983E+02  0.00000000000E+00 0.  1.
</event>
<event>
 7    1  0.2873461E-009  0.1160288E+03  0.7561462E-02  0.1249796E+00
          2   -1    0    0  501    0  0.00000000000E+00  0.00000000000E+00  0.11203422605E+03  0.11203422605E+03  0.00000000000E+00 0. -1.
         -2   -1    0    0    0  501 -0.00000000000E+00 -0.00000000000E+00 -0.20585169582E+03  0.20585169582E+03  0.00000000000E+00 0.  1.
         25    2    1    2    0    0  0.30910369821E+02  0.38444171549E+02  0.46305519644E+02  0.14221477233E+03  0.12508970793E+03 0.  0.
          5    1    3    3  502    0  0.75022112882E+02  0.30984666040E+02  0.54072619078E+01  0.81455987086E+02  0.41800000000E+01 0.  1.
         -5    1    3    3    0  502 -0.44111743061E+02  0.74595055093E+01  0.40898257736E+02  0.60758785243E+02  0.41800000000E+01 0.  1.
        -11    1    1    2    0    0 -0.58790595913E+02 -0.48495905964E+02 -0.97333975221E+02  0.12362074986E+03  0.00000000000E+00 0. -1.
         11    1    1    2    0    0  0.27880226092E+02  0.10051734415E+02 -0.42789014196E+02  0.52050399687E+02  0.00000000000E+00 0.  1.
</event>
<event>
 7    1  0.2873461E-009  0.1184780E+03  0.7561462E-02  0.1245629E+00
          2   -1    0    0  501    0  0.00000000000E+00  0.00000000000E+00  0.23921757929E+03  0.23921757929E+03  0.00000000000E+00 0.  1.
         -2   -1    0    0    0  501 -0.00000000000E+00 -0.00000000000E+00 -0.94954205287E+02  0.94954205287E+02  0.00000000000E+00 0. -1.
         25    2    1    2    0    0 -0.90086558641E+02 -0.29087341179E+02  0.12480521008E+03  0.20046293875E+03  0.12508951948E+03 0.  0.
          5    1    3    3  502    0 -0.17883683643E+02  0.14754009365E+02  0.11256963235E+03  0.11500826692E+03  0.41800000000E+01 0. -1.
         -5    1    3    3    0  502 -0.72202874998E+02 -0.43841350544E+02  0.12235577736E+02  0.85454671833E+02  0.41800000000E+01 0. -1.
        -11    1    1    2    0    0 -0.16972346838E+02 -0.26084102904E+01  0.13596662173E+02  0.21902821364E+02  0.00000000000E+00 0.  1.
         11    1    1    2    0    0  0.10705890548E+03  0.31695751470E+02  0.58615017489E+01  0.11180602446E+03  0.00000000000E+00 0. -1.
</event>
<event>
 7    1  0.2873461E-009  0.7674065E+02  0.7561462E-02  0.1338564E+00
         -2   -1    0    0    0  501 -0.00000000000E+00  0.00000000000E+00  0.56499424855E+02  0.56499424855E+02  0.00000000000E+00 0.  1.
          2   -1    0    0  501    0  0.00000000000E+00 -0.00000000000E+00 -0.16780384195E+03  0.16780384195E+03  0.00000000000E+00 0. -1.
         25    2    1    2    0    0  0.12239532880E+02  0.36845610816E+02 -0.79483734919E+02  0.15320723619E+03  0.12508951956E+03 0.  0.
          5    1    3    3  502    0  0.13612515929E+02 -0.28658410416E+02  0.17207410397E+02  0.36334177437E+02  0.41800000000E+01 0.  1.
         -5    1    3    3    0  502 -0.13729830491E+01  0.65504021232E+02 -0.96691145316E+02  0.11687305875E+03  0.41800000000E+01 0.  1.
        -11    1    1    2    0    0 -0.26767103799E+02 -0.28392139982E+02 -0.36727479992E+02  0.53586371823E+02  0.00000000000E+00 0. -1.
         11    1    1    2    0    0  0.14527570919E+02 -0.84534708343E+01  0.49067978203E+01  0.17509658786E+02  0.00000000000E+00 0.  1.
</event>
<event>
 7    1  0.2873461E-009  0.1095975E+03  0.7561462E-02  0.1261317E+00
         -1   -1    0    0    0  501 -0.00000000000E+00  0.00000000000E+00  0.45841700801E+02  0.45841700801E+02  0.00000000000E+00 0.  1.
          1   -1    0    0  501    0  0.00000000000E+00 -0.00000000000E+00 -0.52719132813E+03  0.52719132813E+03  0.00000000000E+00 0. -1.
         25    2    1    2    0    0  0.60295276492E+02 -0.62238711282E+02 -0.38700202825E+03  0.41584502688E+03  0.12508932394E+03 0.  0.
          5    1    3    3  502    0  0.42366657048E+02  0.59647696494E+01 -0.30323126897E+03  0.30626326418E+03  0.41800000000E+01 0. -1.
         -5    1    3    3    0  502  0.17928619445E+02 -0.68203480931E+02 -0.83770759278E+02  0.10958176270E+03  0.41800000000E+01 0. -1.
        -11    1    1    2    0    0 -0.10814534791E+02  0.54400230952E+02 -0.91514145881E+02  0.10701017796E+03  0.00000000000E+00 0. -1.
         11    1    1    2    0    0 -0.49480741702E+02  0.78384803298E+01 -0.28334531973E+01  0.50177824088E+02  0.00000000000E+00 0.  1.
</event>
<event>
 7    1  0.2873461E-009  0.6521824E+02  0.7561462E-02  0.1377152E+00
         -2   -1    0    0    0  501 -0.00000000000E+00  0.00000000000E+00  0.22198596810E+03  0.22198596810E+03  0.00000000000E+00 0. -1.
          2   -1    0    0  501    0  0.00000000000E+00 -0.00000000000E+00 -0.52739651094E+02  0.52739651094E+02  0.00000000000E+00 0.  1.
         25    2    1    2    0    0  0.82894715330E+01  0.10855298429E+02  0.95683860328E+02  0.15807801725E+03  0.12508679215E+03 0.  0.
          5    1    3    3  502    0 -0.19594124309E+02  0.32956844785E+02  0.11218898092E+03  0.11863356677E+03  0.41800000000E+01 0.  1.
         -5    1    3    3    0  502  0.27883595842E+02 -0.22101546356E+02 -0.16505120588E+02  0.39444450484E+02  0.41800000000E+01 0.  1.
        -11    1    1    2    0    0 -0.22382010808E+02  0.14757025715E+02 -0.96161238414E+01  0.28481468598E+02  0.00000000000E+00 0.  1.
         11    1    1    2    0    0  0.14092539275E+02 -0.25612324144E+02  0.83178580520E+02  0.88166133343E+02  0.00000000000E+00 0. -1.
</event>
<event>
 7    1  0.2873461E-009  0.1129697E+03  0.7561462E-02  0.1255167E+00
          2   -1    0    0  501    0  0.00000000000E+00  0.00000000000E+00  0.87330744480E+03  0.87330744480E+03  0.00000000000E+00 0. -1.
         -2   -1    0    0    0  501 -0.00000000000E+00 -0.00000000000E+00 -0.23621960108E+02  0.23621960108E+02  0.00000000000E+00 0.  1.
         25    2    1    2    0    0 -0.73025057267E+02  0.56474017219E+02  0.53161416757E+03  0.55388044999E+03  0.12509179076E+03 0.  0.
          5    1    3    3  502    0 -0.74988890287E+02  0.86399633375E-01  0.14647373061E+03  0.16460670488E+03  0.41800000000E+01 0.  1.
         -5    1    3    3    0  502  0.19638330193E+01  0.56387617586E+02  0.38514043696E+03  0.38927374511E+03  0.41800000000E+01 0.  1.
        -11    1    1    2    0    0  0.57736914238E+02 -0.33775111621E+02  0.30584598714E+03  0.31307519430E+03  0.00000000000E+00 0. -1.
         11    1    1    2    0    0  0.15288143029E+02 -0.22698905599E+02  0.12225329981E+02  0.29973760622E+02  0.00000000000E+00 0.  1.
</event>
<event>
 7    1  0.2873461E-009  0.9143007E+02  0.7561462E-02  0.1299425E+00
         -1   -1    0    0    0  501 -0.00000000000E+00  0.00000000000E+00  0.46810452043E+02  0.46810452043E+02  0.00000000000E+00 0.  1.
          1   -1    0    0  501    0  0.00000000000E+00 -0.00000000000E+00 -0.38841132039E+03  0.38841132039E+03  0.00000000000E+00 0. -1.
         25    2    1    2    0    0  0.59686709131E+01 -0.21112789282E+01 -0.31754938060E+03  0.34135900107E+03  0.12509306920E+03 0.  0.
          5    1    3    3  502    0 -0.38450422321E+02 -0.25882091474E+02 -0.26260450237E+03  0.26669629675E+03  0.41800000000E+01 0. -1.
         -5    1    3    3    0  502  0.44419093234E+02  0.23770812546E+02 -0.54944878231E+02  0.74662704322E+02  0.41800000000E+01 0. -1.
        -11    1    1    2    0    0 -0.14516106333E+02 -0.40128555700E+02 -0.27276860752E+02  0.50646277831E+02  0.00000000000E+00 0.  1.
         11    1    1    2    0    0  0.85474354197E+01  0.42239834628E+02  0.32253730087E+01  0.43216493526E+02  0.00000000000E+00 0. -1.
</event>
<event>
 7    1  0.2873461E-009  0.1190335E+03  0.7561462E-02  0.1244700E+00
          2   -1    0    0  501    0  0.00000000000E+00  0.00000000000E+00  0.92842049060E+03  0.92842049060E+03  0.00000000000E+00 0. -1.
         -2   -1    0    0    0  501 -0.00000000000E+00 -0.00000000000E+00 -0.19687365287E+02  0.19687365287E+02  0.00000000000E+00 0.  1.
         25    2    1    2    0    0  0.22793734288E+02 -0.78432345883E+02  0.52742332835E+03  0.54817290779E+03  0.12508789846E+03 0.  0.
          5    1    3    3  502    0 -0.42972360480E+02 -0.56884191345E+02  0.35905777294E+03  0.36609068780E+03  0.41800000000E+01 0.  1.
         -5    1    3    3    0  502  0.65766094768E+02 -0.21548154538E+02  0.16836555542E+03  0.18208221999E+03  0.41800000000E+01 0.  1.
        -11    1    1    2    0    0 -0.40164524854E+02  0.57090860270E+02  0.35522684554E+03  0.36202025796E+03  0.00000000000E+00 0. -1.
         11    1    1    2    0    0  0.17370790567E+02  0.21341485613E+02  0.26082951418E+02  0.37914690131E+02  0.00000000000E+00 0.  1.
</event>
<event>
 7    1  0.2873461E-009  0.1470653E+03  0.7561462E-02  0.1204126E+00
          2   -1    0    0  501    0  0.00000000000E+00  0.00000000000E+00  0.34803414144E+03  0.34803414144E+03  0.00000000000E+00 0. -1.
         -2   -1    0    0    0  501 -0.00000000000E+00 -0.00000000000E+00 -0.98819050790E+02  0.98819050790E+02  0.00000000000E+00 0.  1.
         25    2    1    2    0    0 -0.63117588590E+02 -0.10051732679E+03  0.24078106738E+03  0.29615873881E+03  0.12508762205E+03 0.  0.
          5    1    3    3  502    0 -0.54699493898E+02 -0.12908944107E+03  0.17867703394E+03  0.22715429401E+03  0.41800000000E+01 0.  1.
         -5    1    3    3    0  502 -0.84180946918E+01  0.28572114283E+02  0.62104033442E+02  0.69004444803E+02  0.41800000000E+01 0.  1.
        -11    1    1    2    0    0  0.21440379850E+02  0.90449237438E+01  0.39187286353E+02  0.45575694678E+02  0.00000000000E+00 0. -1.
         11    1    1    2    0    0  0.41677208741E+02  0.91472403045E+02 -0.30753263090E+02  0.10511875873E+03  0.00000000000E+00 0.  1.
</event>
<event>
 7    1  0.2873461E-009  0.9495566E+02  0.7561462E-02  0.1291276E+00
         -1   -1    0    0    0  501 -0.00000000000E+00  0.00000000000E+00  0.24974101602E+02  0.24974101602E+02  0.00000000000E+00 0.  1.
          1   -1    0    0  501    0  0.00000000000E+00 -0.00000000000E+00 -0.63780690972E+03  0.63780690972E+03  0.00000000000E+00 0. -1.
         25    2    1    2    0    0 -0.41793120307E+02  0.39403359775E+02 -0.41338180355E+03  0.43569666067E+03  0.12509106661E+03 0.  0.
          5    1    3    3  502    0  0.42571947140E+01  0.50818007077E+02 -0.58863711030E+02  0.77993605035E+02  0.41800000000E+01 0. -1.
         -5    1    3    3    0  502 -0.46050315021E+02 -0.11414647302E+02 -0.35451809252E+03  0.35770305564E+03  0.41800000000E+01 0. -1.
        -11    1    1    2    0    0 -0.18799760538E+02 -0.20103632704E+02 -0.13691923521E+02  0.30741760097E+02  0.00000000000E+00 0.  1.
         11    1    1    2    0    0  0.60592880845E+02 -0.19299727071E+02 -0.18575908104E+03  0.19634259055E+03  0.00000000000E+00 0. -1.
</event>
<event>
 7    1  0.2873461E-009  0.7523818E+02  0.7561462E-02  0.1343135E+00
          1   -1    0    0  501    0  0.00000000000E+00  0.00000000000E+00  0.24359300016E+02  0.24359300016E+02  0.00000000000E+00 0. -1.
         -1   -1    0    0    0  501 -0.00000000000E+00 -0.00000000000E+00 -0.51947580422E+03  0.51947580422E+03  0.00000000000E+00 0.  1.
         25    2    1    2    0    0  0.29231642942E+02 -0.26531092994E+01 -0.27319336224E+03  0.30188020047E+03  0.12504205023E+03 0.  0.
          5    1    3    3  502    0  0.13134187900E+02  0.35278131079E+02 -0.15572884972E+02  0.40951685809E+02  0.41800000000E+01 0. -1.
         -5    1    3    3    0  502  0.16097455043E+02 -0.37931240378E+02 -0.25762047727E+03  0.26092851466E+03  0.41800000000E+01 0. -1.
        -11    1    1    2    0    0 -0.74450483786E+01  0.32998371597E+02 -0.26440943766E+02  0.42935355835E+02  0.00000000000E+00 0. -1.
         11    1    1    2    0    0 -0.21786594564E+02 -0.30345262298E+02 -0.19548219820E+03  0.19901954793E+03  0.00000000000E+00 0.  1.
</event>
<event>
 7    1  0.2873461E-009  0.1584656E+03  0.7561462E-02  0.1190440E+00
          1   -1    0    0  501    0  0.00000000000E+00  0.00000000000E+00  0.19360704131E+03  0.19360704131E+03  0.00000000000E+00 0. -1.
         -1   -1    0    0    0  501 -0.00000000000E+00 -0.00000000000E+00 -0.14736489745E+03  0.14736489745E+03  0.00000000000E+00 0.  1.
         25    2    1    2    0    0  0.11294251432E+03 -0.63706071164E+02  0.32332982319E+02  0.18305067569E+03  0.12509057950E+03 0.  0.
          5    1    3    3  502    0  0.71353576745E+02 -0.98485583098E+02  0.40435978586E+01  0.12175617469E+03  0.41800000000E+01 0.  1.
         -5    1    3    3    0  502  0.41588937580E+02  0.34779511934E+02  0.28289384460E+02  0.61294500997E+02  0.41800000000E+01 0.  1.
        -11    1    1    2    0    0 -0.91391311238E+02  0.73417338073E+02  0.38907821376E+02  0.12351637893E+03  0.00000000000E+00 0. -1.
         11    1    1    2    0    0 -0.21551203087E+02 -0.97112669085E+01 -0.24998659831E+02  0.34404884141E+02  0.00000000000E+00 0.  1.
</event>
<event>
 7    1  0.3027089E-009  0.1717593E+03  0.7561462E-02  0.1176025E+00
         -1   -1    0    0    0  501 -0.00000000000E+00  0.00000000000E+00  0.76178035416E+02  0.76178035416E+02  0.00000000000E+00 0.  1.
          1   -1    0    0  501    0  0.00000000000E+00 -0.00000000000E+00 -0.43591886222E+03  0.43591886222E+03  0.00000000000E+00 0. -1.
         25    2    1    2    0    0  0.12758775460E+03  0.70613346591E+02 -0.20562189948E+03  0.28141049289E+03  0.12508645060E+03 0.  0.
          5    1    3    3  502    0  0.19499880208E+02 -0.35233862800E+02 -0.37200397097E+02  0.54981927578E+02  0.41800000000E+01 0. -1.
         -5    1    3    3    0  502  0.10808787439E+03  0.10584720939E+03 -0.16842150238E+03  0.22642856532E+03  0.41800000000E+01 0. -1.
        -11    1    1    2    0    0 -0.40633406886E+02 -0.45882543970E+02 -0.12309974134E+02  0.62512535219E+02  0.00000000000E+00 0. -1.
         11    1    1    2    0    0 -0.86954347716E+02 -0.24730802621E+02 -0.14180895319E+03  0.16817386952E+03  0.00000000000E+00 0.  1.
</event>
<event>
 7    1  0.2873461E-009  0.8943643E+02  0.7561462E-02  0.1304222E+00
         -3   -1    0    0    0  501 -0.00000000000E+00  0.00000000000E+00  0.50834188927E+02  0.50834188927E+02  0.00000000000E+00 0.  1.
          3   -1    0    0  501    0  0.00000000000E+00 -0.00000000000E+00 -0.32190158400E+03  0.32190158400E+03  0.00000000000E+00 0. -1.
         25    2    1    2    0    0  0.56066189051E+02 -0.29448565948E+02 -0.11924542611E+03  0.18405364522E+03  0.12508252107E+03 0.  0.
          5    1    3    3  502    0 -0.95213254896E+01  0.99591454925E+01 -0.10515841173E+03  0.10613955048E+03  0.41800000000E+01 0. -1.
         -5    1    3    3    0  502  0.65587514541E+02 -0.39407711441E+02 -0.14087014382E+02  0.77914094738E+02  0.41800000000E+01 0. -1.
        -11    1    1    2    0    0 -0.51099825737E+02 -0.65384063716E+01 -0.25970523558E+02  0.57692382877E+02  0.00000000000E+00 0.  1.
         11    1    1    2    0    0 -0.49663633140E+01  0.35986972320E+02 -0.12585144540E+03  0.13098974483E+03  0.00000000000E+00 0. -1.
</event>
<event>
 7    1  0.2873461E-009  0.2489706E+03  0.7561462E-02  0.1113957E+00
          1   -1    0    0  501    0  0.00000000000E+00  0.00000000000E+00  0.13359121627E+04  0.13359121627E+04  0.00000000000E+00 0. -1.
         -1   -1    0    0    0  501 -0.00000000000E+00 -0.00000000000E+00 -0.54046222115E+02  0.54046222115E+02  0.00000000000E+00 0.  1.
         25    2    1    2    0    0 -0.22122990224E+03  0.33701001711E+02  0.39851521505E+03  0.47385677060E+03  0.12508970885E+03 0.  0.
          5    1    3    3  502    0 -0.23607511167E+03  0.38301789865E+02  0.38262255111E+03  0.45123826796E+03  0.41800000000E+01 0.  1.
         -5    1    3    3    0  502  0.14845209428E+02 -0.46007881540E+01  0.15892663938E+02  0.22618502640E+02  0.41800000000E+01 0.  1.
        -11    1    1    2    0    0  0.13593167540E+03 -0.66418881694E+02  0.53706141480E+03  0.55796402347E+03  0.00000000000E+00 0. -1.
         11    1    1    2    0    0  0.85298226836E+02  0.32717879983E+02  0.34628931078E+03  0.35813759079E+03  0.00000000000E+00 0.  1.
</event>
<event>
 7    1  0.2873461E-009  0.2180778E+03  0.7561462E-02  0.1135324E+00
          1   -1    0    0  501    0  0.00000000000E+00  0.00000000000E+00  0.10360392393E+04  0.10360392393E+04  0.00000000000E+00 0. -1.
         -1   -1    0    0    0  501 -0.00000000000E+00 -0.00000000000E+00 -0.49624597424E+02  0.49624597424E+02  0.00000000000E+00 0.  1.
         25    2    1    2    0    0 -0.16279711427E+03 -0.10241489794E+03  0.64743794736E+03  0.68689045557E+03  0.12510351927E+03 0.  0.
          5    1    3    3  502    0 -0.18365545421E+03 -0.94138771092E+02  0.57405815372E+03  0.61004235126E+03  0.41800000000E+01 0. -1.
         -5    1    3    3    0  502  0.20858339936E+02 -0.82761268514E+01  0.73379793646E+02  0.76848104310E+02  0.41800000000E+01 0. -1.
        -11    1    1    2    0    0  0.22179712232E+02  0.53688717349E+02  0.12827034727E+03  0.14081086603E+03  0.00000000000E+00 0.  1.
         11    1    1    2    0    0  0.14061740204E+03  0.48726180594E+02  0.21070634720E+03  0.25796251507E+03  0.00000000000E+00 0. -1.
</event>
<event>
 7    1  0.4225924E-009  0.1345520E+03  0.7561462E-02  0.1220854E+00
         -3   -1    0    0    0  501 -0.00000000000E+00  0.00000000000E+00  0.32537977745E+02  0.32537977745E+02  0.00000000000E+00 0.  1.
          3   -1    0    0  501    0  0.00000000000E+00 -0.00000000000E+00 -0.68710288742E+03  0.68710288742E+03  0.00000000000E+00 0. -1.
         25    2    1    2    0    0  0.85325419206E+02  0.53961046700E+02 -0.30637347739E+03  0.34598347160E+03  0.12509050022E+03 0.  0.
          5    1    3    3  502    0  0.70940403037E+02  0.79248970254E+02 -0.13405241361E+03  0.17117377739E+03  0.41800000000E+01 0. -1.
         -5    1    3    3    0  502  0.14385016169E+02 -0.25287923554E+02 -0.17232106378E+03  0.17480969421E+03  0.41800000000E+01 0. -1.
        -11    1    1    2    0    0 -0.81732861275E+02 -0.25927835344E+01 -0.24581986758E+03  0.25906445228E+03  0.00000000000E+00 0. -1.
         11    1    1    2    0    0 -0.35925579312E+01 -0.51368263165E+02 -0.10237156470E+03  0.11459294129E+03  0.00000000000E+00 0.  1.
</event>
<event>
 7    1  0.2873461E-009  0.6469853E+02  0.7561462E-02  0.1379109E+00
          2   -1    0    0  501    0  0.00000000000E+00  0.00000000000E+00  0.40233755550E+03  0.40233755550E+03  0.00000000000E+00 0. -1.
         -2   -1    0    0    0  501 -0.00000000000E+00 -0.00000000000E+00 -0.32308747766E+02  0.32308747766E+02  0.00000000000E+00 0.  1.
         25    2    1    2    0    0  0.23688667536E+02  0.64257576969E+01  0.16194846778E+03  0.20609978964E+03  0.12508946295E+03 0.  0.
          5    1    3    3  502    0 -0.13475923616E+02  0.13236926242E+02  0.16667404127E+03  0.16779310227E+03  0.41800000000E+01 0.  1.
         -5    1    3    3    0  502  0.37164591153E+02 -0.68111685447E+01 -0.47255734981E+01  0.38306687371E+02  0.41800000000E+01 0.  1.
        -11    1    1    2    0    0 -0.10184652888E+02  0.30798284780E+02  0.24253045935E+02  0.40502737401E+02  0.00000000000E+00 0.  1.
         11    1    1    2    0    0 -0.13504014648E+02 -0.37224042477E+02  0.18382729402E+03  0.18804377623E+03  0.00000000000E+00 0. -1.
</event>
<event>
 7    1  0.2873461E-009  0.2002280E+03  0.7561462E-02  0.1149547E+00
          1   -1    0    0  501    0  0.00000000000E+00  0.00000000000E+00  0.19038984844E+03  0.19038984844E+03  0.00000000000E+00 0. -1.
         -1   -1    0    0    0  501 -0.00000000000E+00 -0.00000000000E+00 -0.35078217952E+03  0.35078217952E+03  0.00000000000E+00 0.  1.
         25    2    1    2    0    0 -0.70595731737E+02 -0.17425767190E+03 -0.22829083233E+03  0.32111312081E+03  0.12508972250E+03 0.  0.
          5    1    3    3  502    0  0.24923380128E+02 -0.45653746249E+02 -0.14932882907E+02  0.54276171710E+02  0.41800000000E+01 0. -1.
         -5    1    3    3    0  502 -0.95519111864E+02 -0.12860392565E+03 -0.21335794942E+03  0.26683694910E+03  0.41800000000E+01 0. -1.
        -11    1    1    2    0    0  0.38825876412E+02  0.98264895062E+02  0.85398289039E+02  0.13585398799E+03  0.00000000000E+00 0. -1.
         11    1    1    2    0    0  0.31769855324E+02  0.75992776839E+02 -0.17499787784E+02  0.84204919165E+02  0.00000000000E+00 0.  1.
</event>
<event>
 7    1  0.3863930E-009  0.1368517E+03  0.7561462E-02  0.1217629E+00
          2   -1    0    0  501    0  0.00000000000E+00  0.00000000000E+00  0.65212246665E+03  0.65212246665E+03  0.00000000000E+00 0. -1.
         -2   -1    0    0    0  501 -0.00000000000E+00 -0.00000000000E+00 -0.35918569927E+02  0.35918569927E+02  0.00000000000E+00 0.  1.
         25    2    1    2    0    0  0.10597048684E+03 -0.48441584506E+01  0.28970871810E+03  0.33291232309E+03  0.12508502537E+03 0.  0.
          5    1    3    3  502    0  0.74358167635E+02 -0.47708810141E+02  0.25320384320E+03  0.26820687215E+03  0.41800000000E+01 0.  1.
         -5    1    3    3    0  502  0.31612319203E+02  0.42864651690E+02  0.36504874905E+02  0.64705450943E+02  0.41800000000E+01 0.  1.
        -11    1    1    2    0    0  0.13772046207E+01  0.22930486285E+02  0.22194361672E+02  0.31942034749E+02  0.00000000000E+00 0.  1.
         11    1    1    2    0    0 -0.10734769146E+03 -0.18086327835E+02  0.30430081695E+03  0.32318667874E+03  0.00000000000E+00 0. -1.
</event>
<event>
 7    1  0.2873461E-009  0.1176971E+03  0.7561462E-02  0.1246945E+00
         -3   -1    0    0    0  501 -0.00000000000E+00  0.00000000000E+00  0.38776531987E+03  0.38776531987E+03  0.00000000000E+00 0.  1.
          3   -1    0    0  501    0  0.00000000000E+00 -0.00000000000E+00 -0.41355833250E+02  0.41355833250E+02  0.00000000000E+00 0. -1.
         25    2    1    2    0    0  0.38870668479E+02  0.15368712276E+02  0.21406804031E+03  0.25143572824E+03  0.12509066060E+03 0.  0.
          5    1    3    3  502    0  0.51267264206E+02 -0.39318663510E+02  0.16334457994E+03  0.17570775132E+03  0.41800000000E+01 0.  1.
         -5    1    3    3    0  502 -0.12396595727E+02  0.54687375785E+02  0.50723460369E+02  0.75727976916E+02  0.41800000000E+01 0.  1.
        -11    1    1    2    0    0  0.30507040509E+02  0.20068174637E+02  0.65703192696E+02  0.75168615022E+02  0.00000000000E+00 0.  1.
         11    1    1    2    0    0 -0.69377708988E+02 -0.35436886913E+02  0.66638253613E+02  0.10251680986E+03  0.00000000000E+00 0. -1.
</event>
<event>
 7    1  0.2873461E-009  0.9292111E+02  0.7561462E-02  0.1295928E+00
         -1   -1    0    0    0  501 -0.00000000000E+00  0.00000000000E+00  0.26497147278E+03  0.26497147278E+03  0.00000000000E+00 0.  1.
          1   -1    0    0  501    0  0.00000000000E+00 -0.00000000000E+00 -0.58356913496E+02  0.58356913496E+02  0.00000000000E+00 0. -1.
         25    2    1    2    0    0 -0.34949707284E+02 -0.19304703117E+02  0.17693416872E+03  0.22033430192E+03  0.12508937182E+03 0.  0.
          5    1    3    3  502    0  0.34197092636E+02 -0.45723374493E-01  0.61019470883E+01  0.34987846370E+02  0.41800000000E+01 0. -1.
         -5    1    3    3    0  502 -0.69146799920E+02 -0.19258979742E+02  0.17083222163E+03  0.18534645555E+03  0.41800000000E+01 0. -1.
        -11    1    1    2    0    0  0.55870077694E+02  0.17233427073E+02 -0.88189542277E+01  0.59128931530E+02  0.00000000000E+00 0. -1.
         11    1    1    2    0    0 -0.20920370410E+02  0.20712760439E+01  0.38499344798E+02  0.43865152826E+02  0.00000000000E+00 0.  1.
</event>
<event>
 7    1  0.2873461E-009  0.8395177E+02  0.7561462E-02  0.1318197E+00
         -1   -1    0    0    0  501 -0.00000000000E+00  0.00000000000E+00  0.88973353021E+02  0.88973353021E+02  0.00000000000E+00 0.  1.
          1   -1    0    0  501    0  0.00000000000E+00 -0.00000000000E+00 -0.23977002090E+03  0.23977002090E+03  0.00000000000E+00 0. -1.
         25    2    1    2    0    0  0.20206810325E+02 -0.22153663893E+02 -0.18556721150E+03  0.22578855064E+03  0.12508468974E+03 0.  0.
          5    1    3    3  502    0 -0.26557472527E+02  0.10325958994E+02 -0.16113775090E+03  0.16369108693E+03  0.41800000000E+01 0. -1.
         -5    1    3    3    0  502  0.46764282852E+02 -0.32479622887E+02 -0.24429460610E+02  0.62097463710E+02  0.41800000000E+01 0. -1.
        -11    1    1    2    0    0 -0.42477201653E+02 -0.92913034173E+01 -0.92475268650E+01  0.44453995687E+02  0.00000000000E+00 0. -1.
         11    1    1    2    0    0  0.22270391328E+02  0.31444967310E+02  0.44018070493E+02  0.58500827592E+02  0.00000000000E+00 0.  1.
</event>
<event>
 7    1  0.2873461E-009  0.1050473E+03  0.7561462E-02  0.1270027E+00
          2   -1    0    0  501    0  0.00000000000E+00  0.00000000000E+00  0.21681307579E+03  0.21681307579E+03  0.00000000000E+00 0. -1.
         -2   -1    0    0    0  501 -0.00000000000E+00 -0.00000000000E+00 -0.67888522053E+02  0.67888522053E+02  0.00000000000E+00 0.  1.
         25    2    1    2    0    0 -0.16257111649E+02  0.16503202461E+02  0.14097058831E+03  0.18989423597E+03  0.12510181739E+03 0.  0.
          5    1    3    3  502    0  0.51358086548E+01 -0.53006909436E+02  0.71320107258E+02  0.89107458037E+02  0.41800000000E+01 0. -1.
         -5    1    3    3    0  502 -0.21392920304E+02  0.69510111897E+02  0.69650481049E+02  0.10078677793E+03  0.41800000000E+01 0. -1.
        -11    1    1    2    0    0 -0.32490170809E+02 -0.40964419517E+00  0.24694323497E+02  0.40811623596E+02  0.00000000000E+00 0. -1.
         11    1    1    2    0    0  0.48747282458E+02 -0.16093558266E+02 -0.16740358064E+02  0.53995738284E+02  0.00000000000E+00 0.  1.
</event>
<event>
 7    1  0.2873461E-009  0.8734758E+02  0.7561462E-02  0.1309405E+00
         -1   -1    0    0    0  501 -0.00000000000E+00  0.00000000000E+00  0.11209218124E+03  0.11209218124E+03  0.00000000000E+00 0.  1.
          1   -1    0    0  501    0  0.00000000000E+00 -0.00000000000E+00 -0.11852672454E+03  0.11852672454E+03  0.00000000000E+00 0. -1.
         25    2    1    2    0    0  0.16340858442E+02  0.14765768306E+02 -0.35571682408E+02  0.13190234613E+03  0.12509129769E+03 0.  0.
          5    1    3    3  502    0  0.50866387836E+02  0.32547697341E+02 -0.60485878904E+02  0.85573103020E+02  0.41800000000E+01 0.  1.
         -5    1    3    3    0  502 -0.34525529394E+02 -0.17781929035E+02  0.24914196496E+02  0.46329243110E+02  0.41800000000E+01 0.  1.
        -11    1    1    2    0    0 -0.69491717887E+01  0.29266248804E+02  0.42212938952E+02  0.51833739230E+02  0.00000000000E+00 0.  1.
         11    1    1    2    0    0 -0.93916866535E+01 -0.44032017110E+02 -0.13075799847E+02  0.46882820421E+02  0.00000000000E+00 0. -1.
</event>
<event>
 7    1  0.2873461E-009  0.5706352E+02  0.7561462E-02  0.1410585E+00
          1   -1    0    0  501    0  0.00000000000E+00  0.00000000000E+00  0.32215461563E+03  0.32215461563E+03  0.00000000000E+00 0. -1.
         -1   -1    0    0    0  501 -0.00000000000E+00 -0.00000000000E+00 -0.47315813919E+02  0.47315813919E+02  0.00000000000E+00 0.  1.
         25    2    1    2    0    0 -0.12958759700E+00 -0.43149669251E+02  0.87856706513E+02  0.15883254356E+03  0.12508822993E+03 0.  0.
          5    1    3    3  502    0  0.41826654814E+01 -0.26372630225E+02 -0.29570387482E+02  0.40061085000E+02  0.41800000000E+01 0. -1.
         -5    1    3    3    0  502 -0.43122530784E+01 -0.16777039026E+02  0.11742709400E+03  0.11877145856E+03  0.41800000000E+01 0. -1.
        -11    1    1    2    0    0  0.26887096532E+02  0.26579807138E+02  0.17139789596E+03  0.17551820659E+03  0.00000000000E+00 0. -1.
         11    1    1    2    0    0 -0.26757508935E+02  0.16569862113E+02  0.15584199245E+02  0.35119679397E+02  0.00000000000E+00 0.  1.
</event>
<event>
 7    1  0.2873461E-009  0.1277179E+03  0.7561462E-02  0.1230882E+00
          2   -1    0    0  501    0  0.00000000000E+00  0.00000000000E+00  0.23835318008E+02  0.23835318008E+02  0.00000000000E+00 0. -1.
         -2   -1    0    0    0  501 -0.00000000000E+00 -0.00000000000E+00 -0.77033732487E+03  0.77033732487E+03  0.00000000000E+00 0.  1.
         25    2    1    2    0    0 -0.58247629746E+01 -0.79354738852E+02 -0.41171529972E+03  0.43759440722E+03  0.12509306440E+03 0.  0.
          5    1    3    3  502    0 -0.55109923528E+02 -0.64838345953E+02 -0.16663721483E+03  0.18715380986E+03  0.41800000000E+01 0.  1.
         -5    1    3    3    0  502  0.49285160553E+02 -0.14516392899E+02 -0.24507808489E+03  0.25044059736E+03  0.41800000000E+01 0.  1.
        -11    1    1    2    0    0  0.17725395529E+02  0.96336476273E+02 -0.23390200269E+03  0.25358441034E+03  0.00000000000E+00 0. -1.
         11    1    1    2    0    0 -0.11900632554E+02 -0.16981737421E+02 -0.10088470445E+03  0.10299382532E+03  0.00000000000E+00 0.  1.
</event>
<event>
 7    1  0.2873461E-009  0.1359410E+03  0.7561462E-02  0.1218897E+00
          2   -1    0    0  501    0  0.00000000000E+00  0.00000000000E+00  0.18928203192E+03  0.18928203192E+03  0.00000000000E+00 0. -1.
         -2   -1    0    0    0  501 -0.00000000000E+00 -0.00000000000E+00 -0.12873378094E+03  0.12873378094E+03  0.00000000000E+00 0.  1.
         25    2    1    2    0    0 -0.13851341822E+02  0.10551612466E+03  0.67546126373E+02  0.17758176141E+03  0.12508913048E+03 0.  0.
          5    1    3    3  502    0 -0.69304891873E+02  0.50148771314E+02  0.38531278279E+02  0.93915915092E+02  0.41800000000E+01 0. -1.
         -5    1    3    3    0  502  0.55453550050E+02  0.55367353346E+02  0.29014848094E+02  0.83665846315E+02  0.41800000000E+01 0. -1.
        -11    1    1    2    0    0 -0.24671635431E+01 -0.45460147359E+02 -0.47804491821E+02  0.66015008385E+02  0.00000000000E+00 0.  1.
         11    1    1    2    0    0  0.16318505365E+02 -0.60055977302E+02  0.40806616425E+02  0.74419043068E+02  0.00000000000E+00 0. -1.
</event>
<event>
 7    1  0.2873461E-009  0.1266499E+03  0.7561462E-02  0.1232513E+00
         -2   -1    0    0    0  501 -0.00000000000E+00  0.00000000000E+00  0.99830966350E+02  0.99830966350E+02  0.00000000000E+00 0. -1.
          2   -1    0    0  501    0  0.00000000000E+00 -0.00000000000E+00 -0.26365179172E+03  0.26365179172E+03  0.00000000000E+00 0.  1.
         25    2    1    2    0    0 -0.81896426817E+02 -0.22243663901E+02  0.79286763620E+01  0.15135607938E+03  0.12507595111E+03 0.  0.
          5    1    3    3  502    0 -0.84901001240E+02 -0.65506433852E+02  0.96888122121E+01  0.10775257941E+03  0.41800000000E+01 0. -1.
         -5    1    3    3    0  502  0.30045744230E+01  0.43262769951E+02 -0.17601358502E+01  0.43603499968E+02  0.41800000000E+01 0. -1.
        -11    1    1    2    0    0  0.21621917267E+02  0.34683259109E+02 -0.13361230983E+03  0.13972360254E+03  0.00000000000E+00 0.  1.
         11    1    1    2    0    0  0.60274509550E+02 -0.12439595208E+02 -0.38137191910E+02  0.72403076158E+02  0.00000000000E+00 0. -1.
</event>
<event>
 7    1  0.2873461E-009  0.1446354E+03  0.7561462E-02  0.1207224E+00
         -2   -1    0    0    0  501 -0.00000000000E+00  0.00000000000E+00  0.44290179843E+02  0.44290179843E+02  0.00000000000E+00 0.  1.
          2   -1    0    0  501    0  0.00000000000E+00 -0.00000000000E+00 -0.51720718052E+03  0.51720718052E+03  0.00000000000E+00 0. -1.
         25    2    1    2    0    0 -0.24162577609E+02 -0.10202852210E+03 -0.25307394588E+03  0.30114017347E+03  0.12508130362E+03 0.  0.
          5    1    3    3  502    0 -0.24455371273E+02  0.18199244732E+02 -0.10994363145E+03  0.11416808744E+03  0.41800000000E+01 0. -1.
         -5    1    3    3    0  502  0.29279366415E+00 -0.12022776683E+03 -0.14313031442E+03  0.18697208603E+03  0.41800000000E+01 0. -1.
        -11    1    1    2    0    0 -0.11663795869E+02 -0.13150812231E+02 -0.17600478298E+02  0.24874984075E+02  0.00000000000E+00 0.  1.
         11    1    1    2    0    0  0.35826373478E+02  0.11517933433E+03 -0.20224257650E+03  0.23548220282E+03  0.00000000000E+00 0. -1.
</event>
<event>
 7    1  0.2873461E-009  0.1766001E+03  0.7561462E-02  0.1171135E+00
         -2   -1    0    0    0  501 -0.00000000000E+00  0.00000000000E+00  0.87700203954E+03  0.87700203954E+03  0.00000000000E+00 0.  1.
          2   -1    0    0  501    0  0.00000000000E+00 -0.00000000000E+00 -0.51917909630E+02  0.51917909630E+02  0.00000000000E+00 0. -1.
         25    2    1    2    0    0 -0.34912087311E+02 -0.16140790148E+03  0.61295534192E+03  0.64701862669E+03  0.12508991801E+03 0.  0.
          5    1    3    3  502    0 -0.11226453249E+02 -0.66756173133E+01  0.26611347240E+03  0.26646660149E+03  0.41800000000E+01 0.  1.
         -5    1    3    3    0  502 -0.23685634062E+02 -0.15473228416E+03  0.34684186952E+03  0.38055202519E+03  0.41800000000E+01 0.  1.
        -11    1    1    2    0    0  0.60005979243E+02  0.12526433983E+03  0.18029688661E+03  0.22759358449E+03  0.00000000000E+00 0.  1.
         11    1    1    2    0    0 -0.25093891932E+02  0.36143561650E+02  0.31831901369E+02  0.54307737992E+02  0.00000000000E+00 0. -1.
</event>
<event>
 7    1  0.2873461E-009  0.1038533E+03  0.7561462E-02  0.1272395E+00
          2   -1    0    0  501    0  0.00000000000E+00  0.00000000000E+00  0.82972460281E+03  0.82972460281E+03  0.00000000000E+00 0. -1.
         -2   -1    0    0    0  501 -0.00000000000E+00 -0.00000000000E+00 -0.14653270139E+02  0.14653270139E+02  0.00000000000E+00 0.  1.
         25    2    1    2    0    0  0.72608117847E+01  0.24202725539E+02  0.49523511659E+03  0.51141448284E+03  0.12509380975E+03 0.  0.
          5    1    3    3  502    0  0.50782003923E+02  0.46700874996E+02  0.18868545070E+03  0.20094639920E+03  0.41800000000E+01 0. -1.
         -5    1    3    3    0  502 -0.43521192139E+02 -0.22498149458E+02  0.30654966590E+03  0.31046808363E+03  0.41800000000E+01 0. -1.
        -11    1    1    2    0    0  0.10470161381E+02 -0.53858238399E+02  0.15178890999E+03  0.16140076616E+03  0.00000000000E+00 0.  1.
         11    1    1    2    0    0 -0.17730973166E+02  0.29655512860E+02  0.16804730609E+03  0.17156262395E+03  0.00000000000E+00 0. -1.
</event>
<event>
 7    1  0.2873461E-009  0.1219479E+03  0.7561462E-02  0.1239918E+00
          1   -1    0    0  501    0  0.00000000000E+00  0.00000000000E+00  0.11150270839E+03  0.11150270839E+03  0.00000000000E+00 0. -1.
         -1   -1    0    0    0  501 -0.00000000000E+00 -0.00000000000E+00 -0.15025977461E+03  0.15025977461E+03  0.00000000000E+00 0.  1.
         25    2    1    2    0    0  0.33278302523E+02 -0.58325456588E+02  0.12337402802E+02  0.14250880772E+03  0.12508894621E+03 0.  0.
          5    1    3    3  502    0  0.76922503954E+02 -0.51982784178E+02 -0.89409574150E+01  0.93363240009E+02  0.41800000000E+01 0.  1.
         -5    1    3    3    0  502 -0.43644201431E+02 -0.63426724103E+01  0.21278360217E+02  0.49145567708E+02  0.41800000000E+01 0.  1.
        -11    1    1    2    0    0  0.26256372913E+02  0.32462322510E+02 -0.28381754535E+02  0.50484883795E+02  0.00000000000E+00 0. -1.
         11    1    1    2    0    0 -0.59534675436E+02  0.25863134078E+02 -0.22712714478E+02  0.68768791488E+02  0.00000000000E+00 0.  1.
</event>
<event>
 7    1  0.2873461E-009  0.1373339E+03  0.7561462E-02  0.1216962E+00
          1   -1    0    0  501    0  0.00000000000E+00  0.00000000000E+00  0.92105849431E+02  0.92105849431E+02  0.00000000000E+00 0. -1.
         -1   -1    0    0    0  501 -0.00000000000E+00 -0.00000000000E+00 -0.28685585113E+03  0.28685585113E+03  0.00000000000E+00 0.  1.
         25    2    1    2    0    0  0.11551417843E+03 -0.35184174992E+02 -0.10175179555E+03  0.20145124143E+03  0.12509085972E+03 0.  0.
          5    1    3    3  502    0 -0.11714345532E+01  0.10541222251E+02 -0.71574233827E+02  0.72476430468E+02  0.41800000000E+01 0. -1.
         -5    1    3    3    0  502  0.11668561298E+03 -0.45725397242E+02 -0.30177561727E+02  0.12897481096E+03  0.41800000000E+01 0. -1.
        -11    1    1    2    0    0 -0.85392671176E+02  0.55224550790E+02 -0.32035350242E+02  0.10662046223E+03  0.00000000000E+00 0. -1.
         11    1    1    2    0    0 -0.30121507253E+02 -0.20040375798E+02 -0.60962855900E+02  0.70889996902E+02  0.00000000000E+00 0.  1.
</event>
<event>
 7    1  0.2873461E-009  0.7729094E+02  0.7561462E-02  0.1336920E+00
          1   -1    0    0  501    0  0.00000000000E+00  0.00000000000E+00  0.19516319266E+03  0.19516319266E+03  0.00000000000E+00 0. -1.
         -1   -1    0    0    0  501 -0.00000000000E+00 -0.00000000000E+00 -0.87477060577E+02  0.87477060577E+02  0.00000000000E+00 0.  1.
         25    2    1    2    0    0 -0.13002903464E+02  0.57470347339E+02  0.10707012866E+03  0.17488065518E+03  0.12508922729E+03 0.  0.
          5    1    3    3  502    0 -0.62398353060E-01  0.44638200602E+02 -0.18079793652E+02  0.48341743711E+02  0.41800000000E+01 0.  1.
         -5    1    3    3    0  502 -0.12940505111E+02  0.12832146737E+02  0.12514992231E+03  0.12653891147E+03  0.41800000000E+01 0.  1.
        -11    1    1    2    0    0  0.33239275182E+02 -0.35139214428E+01 -0.27830847861E+02  0.43494288719E+02  0.00000000000E+00 0.  1.
         11    1    1    2    0    0 -0.20236371718E+02 -0.53956425896E+02  0.28446851286E+02  0.64265309335E+02  0.00000000000E+00 0. -1.
</event>
<event>
 7    1  0.2873461E-009  0.8484144E+02  0.7561462E-02  0.1315848E+00
         -4   -1    0    0    0  501 -0.00000000000E+00  0.00000000000E+00  0.94627319253E+02  0.94627319253E+02  0.00000000000E+00 0. -1.
          4   -1    0    0  501    0  0.00000000000E+00 -0.00000000000E+00 -0.15507778116E+03  0.15507778116E+03  0.00000000000E+00 0.  1.
         25    2    1    2    0    0  0.27076487046E+02  0.32528906215E+02 -0.64709726368E+02  0.14706278487E+03  0.12509535609E+03 0.  0.
          5    1    3    3  502    0 -0.29372801775E+02  0.25522805600E+02 -0.79088974731E+02  0.88242356121E+02  0.41800000000E+01 0.  1.
         -5    1    3    3    0  502  0.56449288821E+02  0.70061006150E+01  0.14379248363E+02  0.58820428744E+02  0.41800000000E+01 0.  1.
        -11    1    1    2    0    0  0.18256282747E+02 -0.18656924481E+02 -0.33191856253E+02  0.42226437363E+02  0.00000000000E+00 0.  1.
         11    1    1    2    0    0 -0.45332769793E+02 -0.13871981734E+02  0.37451120713E+02  0.60415878186E+02  0.00000000000E+00 0. -1.
</event>
<event>
 6    1  0.2873461E-009  0.3110537E+03  0.7561462E-02  0.1079842E+00
          2   -1    0    0  501    0  0.00000000000E+00  0.00000000000E+00  0.84765813181E+03  0.84765813181E+03  0.00000000000E+00 0. -1.
         -2   -1    0    0    0  501 -0.00000000000E+00 -0.00000000000E+00 -0.13017135219E+03  0.13017135219E+03  0.00000000000E+00 0.  1.
          5    1    1    2  502    0  0.62350778722E+02  0.53843515552E+01  0.19135309526E+03  0.20137052990E+03  0.41800000000E+01 0.  1.
         -5    1    1    2    0  502  0.24003367376E+03 -0.62648431700E+02  0.26590728984E+03  0.36368275973E+03  0.41800000000E+01 0.  1.
        -11    1    1    2    0    0 -0.48987067036E+02 -0.79322183358E+01  0.97740525030E+01  0.50578502615E+02  0.00000000000E+00 0.  1.
         11    1    1    2    0    0 -0.25339738545E+03  0.65196298481E+02  0.25045234202E+03  0.36219769175E+03  0.00000000000E+00 0. -1.
</event>
<event>
 7    1  0.2873461E-009  0.1413434E+03  0.7561462E-02  0.1211533E+00
         -2   -1    0    0    0  501 -0.00000000000E+00  0.00000000000E+00  0.21407595747E+02  0.21407595747E+02  0.00000000000E+00 0.  1.
          2   -1    0    0  501    0  0.00000000000E+00 -0.00000000000E+00 -0.96271152641E+03  0.96271152641E+03  0.00000000000E+00 0. -1.
         25    2    1    2    0    0 -0.13473989264E+02 -0.89822590654E+02 -0.43376645393E+03  0.46049066370E+03  0.12509463865E+03 0.  0.
          5    1    3    3  502    0  0.62740062167E+01  0.31096954690E+02 -0.89443779973E+02  0.94994978398E+02  0.41800000000E+01 0.  1.
         -5    1    3    3    0  502 -0.19747995480E+02 -0.12091954534E+03 -0.34432267396E+03  0.36549568530E+03  0.41800000000E+01 0.  1.
        -11    1    1    2    0    0 -0.15493978240E+02  0.97018428211E+02 -0.36441985092E+03  0.37743140637E+03  0.00000000000E+00 0.  1.
         11    1    1    2    0    0  0.28967967504E+02 -0.71958375576E+01 -0.14311762581E+03  0.14619705208E+03  0.00000000000E+00 0. -1.
</event>
<event>
 7    1  0.2873462E-009  0.8918915E+02  0.7561462E-02  0.1304827E+00
          1   -1    0    0  501    0  0.00000000000E+00  0.00000000000E+00  0.24029328015E+03  0.24029328015E+03  0.00000000000E+00 0. -1.
         -1   -1    0    0    0  501 -0.00000000000E+00 -0.00000000000E+00 -0.61691315075E+02  0.61691315075E+02  0.00000000000E+00 0.  1.
         25    2    1    2    0    0 -0.15760548131E+02 -0.24223746538E+02  0.16028941576E+03  0.20536643177E+03  0.12508992653E+03 0.  0.
          5    1    3    3  502    0  0.54803748927E+02 -0.54333641416E+01  0.67619497488E+02  0.87308883757E+02  0.41800000000E+01 0. -1.
         -5    1    3    3    0  502 -0.70564297058E+02 -0.18790382397E+02  0.92669918273E+02  0.11805754801E+03  0.41800000000E+01 0. -1.
        -11    1    1    2    0    0 -0.68246303496E+01  0.26444145345E+02 -0.31613333397E+02  0.41776443732E+02  0.00000000000E+00 0.  1.
         11    1    1    2    0    0  0.22585178481E+02 -0.22203988067E+01  0.49925882714E+02  0.54841719727E+02  0.00000000000E+00 0. -1.
</event>
<event>
 7    1  0.2873461E-009  0.1318291E+03  0.7561462E-02  0.1224767E+00
          1   -1    0    0  501    0  0.00000000000E+00  0.00000000000E+00  0.44977942616E+03  0.44977942616E+03  0.00000000000E+00 0. -1.
         -1   -1    0    0    0  501 -0.00000000000E+00 -0.00000000000E+00 -0.57833250526E+02  0.57833250526E+02  0.00000000000E+00 0.  1.
         25    2    1    2    0    0 -0.98004869664E+02  0.65372605945E+02  0.19206363991E+03  0.25771100820E+03  0.12509192575E+03 0.  0.
          5    1    3    3  502    0 -0.39982728304E+02 -0.78265189957E+01 -0.33384285448E+01  0.41091245629E+02  0.41800000000E+01 0. -1.
         -5    1    3    3    0  502 -0.58022141360E+02  0.73199124941E+02  0.19540206846E+03  0.21661976258E+03  0.41800000000E+01 0. -1.
        -11    1    1    2    0    0  0.32766926823E+02  0.51098393805E+01  0.12147304245E+03  0.12591855302E+03  0.00000000000E+00 0. -1.
         11    1    1    2    0    0  0.65237942841E+02 -0.70482445326E+02  0.78409493267E+02  0.12398311546E+03  0.00000000000E+00 0.  1.
</event>
<event>
 7    1  0.2873461E-009  0.1181900E+03  0.7561462E-02  0.1246113E+00
         -2   -1    0    0    0  501 -0.00000000000E+00  0.00000000000E+00  0.22225203768E+02  0.22225203768E+02  0.00000000000E+00 0.  1.
          2   -1    0    0  501    0  0.00000000000E+00 -0.00000000000E+00 -0.65959778426E+03  0.65959778426E+03  0.00000000000E+00 0. -1.
         25    2    1    2    0    0 -0.12544153290E+02  0.50474946495E+02 -0.37797145681E+03  0.40151534221E+03  0.12508825628E+03 0.  0.
          5    1    3    3  502    0  0.53604185960E+02  0.39925290634E+02 -0.21742952322E+03  0.22750935707E+03  0.41800000000E+01 0. -1.
         -5    1    3    3    0  502 -0.66148339250E+02  0.10549655861E+02 -0.16054193359E+03  0.17400598514E+03  0.41800000000E+01 0. -1.
        -11    1    1    2    0    0 -0.37434795145E+02 -0.31189261058E+02 -0.16172236238E+03  0.16890309763E+03  0.00000000000E+00 0. -1.
         11    1    1    2    0    0  0.49978948435E+02 -0.19285685437E+02 -0.97678761293E+02  0.11140454819E+03  0.00000000000E+00 0.  1.
</event>
<event>
 7    1  0.2873461E-009  0.2834060E+03  0.7561462E-02  0.1093843E+00
         -2   -1    0    0    0  501 -0.00000000000E+00  0.00000000000E+00  0.10219618770E+03  0.10219618770E+03  0.00000000000E+00 0.  1.
          2   -1    0    0  501    0  0.00000000000E+00 -0.00000000000E+00 -0.84301242640E+03  0.84301242640E+03  0.00000000000E+00 0. -1.
         25    2    1    2    0    0  0.10536281330E+03  0.24581785101E+03 -0.30504656938E+03  0.42453439993E+03  0.12509320098E+03 0.  0.
          5    1    3    3  502    0  0.52708783343E+02  0.22531120230E+03 -0.20316003683E+03  0.30795263709E+03  0.41800000000E+01 0. -1.
         -5    1    3    3    0  502  0.52654029958E+02  0.20506648702E+02 -0.10188653255E+03  0.11658176284E+03  0.41800000000E+01 0. -1.
        -11    1    1    2    0    0 -0.98885794312E+02 -0.13308878755E+03 -0.20416151211E+03  0.26300750696E+03  0.00000000000E+00 0.  1.
         11    1    1    2    0    0 -0.64770189891E+01 -0.11272906345E+03 -0.23160815721E+03  0.25766670722E+03  0.00000000000E+00 0. -1.
</event>
<event>
 7    1  0.2873461E-009  0.3866587E+03  0.7561462E-02  0.1048500E+00
          1   -1    0    0  501    0  0.00000000000E+00  0.00000000000E+00  0.13109935227E+04  0.13109935227E+04  0.00000000000E+00 0. -1.
         -1   -1    0    0    0  501 -0.00000000000E+00 -0.00000000000E+00 -0.12445293465E+03  0.12445293465E+03  0.00000000000E+00 0.  1.
         25    2    1    2    0    0 -0.27757128793E+03  0.25414110047E+03  0.42399197510E+03  0.58056034614E+03  0.12509037427E+03 0.  0.
          5    1    3    3  502    0 -0.24576256000E+03  0.26452000162E+03  0.37072401319E+03  0.51751698862E+03  0.41800000000E+01 0. -1.
         -5    1    3    3    0  502 -0.31808727936E+02 -0.10378901152E+02  0.53267961912E+02  0.63043357527E+02  0.41800000000E+01 0. -1.
        -11    1    1    2    0    0  0.23222230027E+03 -0.23117903380E+03  0.58859485958E+03  0.67365781458E+03  0.00000000000E+00 0.  1.
         11    1    1    2    0    0  0.45348987667E+02 -0.22962066665E+02  0.17395375335E+03  0.18122829661E+03  0.00000000000E+00 0. -1.
</event>
<event>
 7    1  0.2873461E-009  0.9347482E+02  0.7561462E-02  0.1294649E+00
         -1   -1    0    0    0  501 -0.00000000000E+00  0.00000000000E+00  0.14172279720E+03  0.14172279720E+03  0.00000000000E+00 0.  1.
          1   -1    0    0  501    0  0.00000000000E+00 -0.00000000000E+00 -0.10699549261E+03  0.10699549261E+03  0.00000000000E+00 0. -1.
         25    2    1    2    0    0 -0.16706646410E+02 -0.53764893181E+02  0.33879583741E+01  0.13722003201E+03  0.12509229853E+03 0.  0.
          5    1    3    3  502    0  0.33755227453E+02 -0.62484225450E+02 -0.28623043299E+02  0.76684058436E+02  0.41800000000E+01 0. -1.
         -5    1    3    3    0  502 -0.50461873863E+02  0.87193322690E+01  0.32011001673E+02  0.60535973579E+02  0.41800000000E+01 0. -1.
        -11    1    1    2    0    0  0.26016123652E+02  0.42288504156E+02  0.60825184640E+02  0.78516618369E+02  0.00000000000E+00 0.  1.
         11    1    1    2    0    0 -0.93094772422E+01  0.11476389025E+02 -0.29485838420E+02  0.32981639421E+02  0.00000000000E+00 0. -1.
</event>
<event>
 7    1  0.2873461E-009  0.1509359E+03  0.7561462E-02  0.1199328E+00
         -2   -1    0    0    0  501 -0.00000000000E+00  0.00000000000E+00  0.69050126858E+02  0.69050126858E+02  0.00000000000E+00 0.  1.
          2   -1    0    0  501    0  0.00000000000E+00 -0.00000000000E+00 -0.48278217064E+03  0.48278217064E+03  0.00000000000E+00 0. -1.
         25    2    1    2    0    0  0.33981018786E+00  0.81090533484E+02 -0.33494406628E+03  0.36662173485E+03  0.12509268099E+03 0.  0.
          5    1    3    3  502    0 -0.39341945907E+02 -0.13876371463E+02 -0.61616143167E+02  0.74527604895E+02  0.41800000000E+01 0. -1.
         -5    1    3    3    0  502  0.39681756094E+02  0.94966904947E+02 -0.27332792312E+03  0.29209412996E+03  0.41800000000E+01 0. -1.
        -11    1    1    2    0    0  0.25598551063E+02  0.31960408204E+02  0.62043359927E+01  0.41415544114E+02  0.00000000000E+00 0.  1.
         11    1    1    2    0    0 -0.25938361251E+02 -0.11305094169E+03 -0.84992313489E+02  0.14379501853E+03  0.00000000000E+00 0. -1.
</event>
<event>
 7    1  0.2873461E-009  0.8175211E+02  0.7561462E-02  0.1324151E+00
          2   -1    0    0  501    0  0.00000000000E+00  0.00000000000E+00  0.10841649943E+04  0.10841649943E+04  0.00000000000E+00 0. -1.
         -2   -1    0    0    0  501 -0.00000000000E+00 -0.00000000000E+00 -0.17033216518E+02  0.17033216518E+02  0.00000000000E+00 0.  1.
         25    2    1    2    0    0  0.55655479610E+02 -0.90872630270E+01  0.81927331365E+03  0.83068434961E+03  0.12509042916E+03 0.  0.
          5    1    3    3  502    0  0.36097147749E+02  0.98804838332E+01  0.78839152701E+03  0.78929037768E+03  0.41800000000E+01 0. -1.
         -5    1    3    3    0  502  0.19558331861E+02 -0.18967746860E+02  0.30881786643E+02  0.41393971933E+02  0.41800000000E+01 0. -1.
        -11    1    1    2    0    0 -0.70015682425E+02 -0.13704274653E+02  0.22196450813E+03  0.23314854878E+03  0.00000000000E+00 0. -1.
         11    1    1    2    0    0  0.14360202815E+02  0.22791537680E+02  0.25893955972E+02  0.37365312398E+02  0.00000000000E+00 0.  1.
</event>
<event>
 7    1  0.2873461E-009  0.9998177E+02  0.7561462E-02  0.1280334E+00
         -1   -1    0    0    0  501 -0.00000000000E+00  0.00000000000E+00  0.19637972216E+03  0.19637972216E+03  0.00000000000E+00 0.  1.
          1   -1    0    0  501    0  0.00000000000E+00 -0.00000000000E+00 -0.84842303736E+02  0.84842303736E+02  0.00000000000E+00 0. -1.
         25    2    1    2    0    0  0.21792150555E+02 -0.64340465295E+02  0.48971609332E+02  0.15053280036E+03  0.12508921681E+03 0.  0.
          5    1    3    3  502    0  0.36519513113E+02 -0.68502827784E+02  0.82550499123E+02  0.11339475102E+03  0.41800000000E+01 0. -1.
         -5    1    3    3    0  502 -0.14727362558E+02  0.41623624885E+01 -0.33578889791E+02  0.37138049343E+02  0.41800000000E+01 0. -1.
        -11    1    1    2    0    0 -0.53203619069E+02  0.38305549272E+02  0.61480506864E+02  0.89876542609E+02  0.00000000000E+00 0.  1.
         11    1    1    2    0    0  0.31411468514E+02  0.26034916024E+02  0.10853022237E+01  0.40812682924E+02  0.00000000000E+00 0. -1.
</event>
<event>
 7    1  0.2873461E-009  0.1573027E+03  0.7561462E-02  0.1191776E+00
         -2   -1    0    0    0  501 -0.00000000000E+00  0.00000000000E+00  0.17284174652E+03  0.17284174652E+03  0.00000000000E+00 0. -1.
          2   -1    0    0  501    0  0.00000000000E+00 -0.00000000000E+00 -0.24404526372E+03  0.24404526372E+03  0.00000000000E+00 0.  1.
         25    2    1    2    0    0  0.88848299328E+02  0.11355070801E+03 -0.13628424531E+03  0.23453624376E+03  0.12508425374E+03 0.  0.
          5    1    3    3  502    0 -0.69540086410E+01 -0.34702597591E+01  0.17005829939E+02  0.19159112477E+02  0.41800000000E+01 0.  1.
         -5    1    3    3    0  502  0.95802307969E+02  0.11702096777E+03 -0.15329007525E+03  0.21537713129E+03  0.41800000000E+01 0.  1.
        -11    1    1    2    0    0 -0.44327971467E+02 -0.15770627396E+02  0.57993585915E+02  0.74678897622E+02  0.00000000000E+00 0. -1.
         11    1    1    2    0    0 -0.44520327861E+02 -0.97780080612E+02  0.70871422025E+01  0.10767186885E+03  0.00000000000E+00 0.  1.
</event>
<event>
 7    1  0.2873461E-009  0.1294987E+03  0.7561462E-02  0.1228202E+00
          1   -1    0    0  501    0  0.00000000000E+00  0.00000000000E+00  0.10966536357E+03  0.10966536357E+03  0.00000000000E+00 0. -1.
         -1   -1    0    0    0  501 -0.00000000000E+00 -0.00000000000E+00 -0.17282271023E+03  0.17282271023E+03  0.00000000000E+00 0.  1.
         25    2    1    2    0    0  0.74334902706E+01 -0.74774811161E+02  0.24163167907E+01  0.14594253675E+03  0.12508739459E+03 0.  0.
          5    1    3    3  502    0  0.49962825162E+01  0.32889982595E+02 -0.15069631979E+02  0.36759760637E+02  0.41800000000E+01 0. -1.
         -5    1    3    3    0  502  0.24372077544E+01 -0.10766479376E+03  0.17485948770E+02  0.10918277612E+03  0.41800000000E+01 0. -1.
        -11    1    1    2    0    0  0.25400847836E+01  0.95058208241E+02 -0.62358956530E+02  0.11371523400E+03  0.00000000000E+00 0.  1.
         11    1    1    2    0    0 -0.99735750542E+01 -0.20283397080E+02 -0.32147069155E+01  0.22830303043E+02  0.00000000000E+00 0. -1.
</event>
<event>
 7    1  0.2873461E-009  0.1271065E+03  0.7561462E-02  0.1231813E+00
         -1   -1    0    0    0  501 -0.00000000000E+00  0.00000000000E+00  0.47036536394E+02  0.47036536394E+02  0.00000000000E+00 0.  1.
          1   -1    0    0  501    0  0.00000000000E+00 -0.00000000000E+00 -0.38797156587E+03  0.38797156587E+03  0.00000000000E+00 0. -1.
         25    2    1    2    0    0  0.71143492727E+02 -0.30771799783E+02 -0.20716501197E+03  0.25411259658E+03  0.12509024477E+03 0.  0.
          5    1    3    3  502    0 -0.29963255624E+02 -0.26439492479E+02 -0.94078520085E+02  0.10229899213E+03  0.41800000000E+01 0. -1.
         -5    1    3    3    0  502  0.10110674835E+03 -0.43323073049E+01 -0.11308649188E+03  0.15181360445E+03  0.41800000000E+01 0. -1.
        -11    1    1    2    0    0 -0.72003386016E+02 -0.93586098279E+01 -0.11633109607E+03  0.13713130601E+03  0.00000000000E+00 0. -1.
         11    1    1    2    0    0  0.85989328931E+00  0.40130409611E+02 -0.17438921440E+02  0.43764199673E+02  0.00000000000E+00 0.  1.
</event>
<event>
 7    1  0.2873461E-009  0.1000493E+03  0.7561462E-02  0.1280192E+00
          3   -1    0    0  501    0  0.00000000000E+00  0.00000000000E+00  0.43521902194E+03  0.43521902194E+03  0.00000000000E+00 0. -1.
         -3   -1    0    0    0  501 -0.00000000000E+00 -0.00000000000E+00 -0.36174694066E+02  0.36174694066E+02  0.00000000000E+00 0.  1.
         25    2    1    2    0    0 -0.14527119557E+02 -0.32051675280E+02  0.32355699469E+03  0.34867679491E+03  0.12509209171E+03 0.  0.
          5    1    3    3  502    0  0.15668401374E+02 -0.61751334700E+02  0.28220258372E+03  0.28933457587E+03  0.41800000000E+01 0. -1.
         -5    1    3    3    0  502 -0.30195520931E+02  0.29699659419E+02  0.41354410973E+02  0.59342219042E+02  0.41800000000E+01 0. -1.
        -11    1    1    2    0    0 -0.29687516260E+02 -0.11306413965E+02  0.40894746413E+02  0.51783818927E+02  0.00000000000E+00 0.  1.
         11    1    1    2    0    0  0.44214635816E+02  0.43358089246E+02  0.34592586773E+02  0.70933102167E+02  0.00000000000E+00 0. -1.
</event>
<event>
 7    1  0.2873461E-009  0.3495664E+03  0.7561462E-02  0.1062793E+00
         -1   -1    0    0    0  501 -0.00000000000E+00  0.00000000000E+00  0.85769607482E+02  0.85769607482E+02  0.00000000000E+00 0.  1.
          1   -1    0    0  501    0  0.00000000000E+00 -0.00000000000E+00 -0.16739491655E+04  0.16739491655E+04  0.00000000000E+00 0. -1.
         25    2    1    2    0    0 -0.24246218630E+03 -0.23678282889E+03 -0.11047708220E+04  0.11623339479E+04  0.12509043780E+03 0.  0.
          5    1    3    3  502    0 -0.18754611029E+03 -0.23943841772E+03 -0.88759928238E+03  0.93827195304E+03  0.41800000000E+01 0.  1.
         -5    1    3    3    0  502 -0.54916076006E+02  0.26555888352E+01 -0.21717153959E+03  0.22406199491E+03  0.41800000000E+01 0.  1.
        -11    1    1    2    0    0  0.18746178346E+03  0.19700450319E+03 -0.31698328562E+03  0.41764949167E+03  0.00000000000E+00 0. -1.
         11    1    1    2    0    0  0.55000402835E+02  0.39778325699E+02 -0.16642545041E+03  0.17973533335E+03  0.00000000000E+00 0.  1.
</event>
<event>
 7    1  0.2873461E-009  0.9844406E+02  0.7561462E-02  0.1283602E+00
          1   -1    0    0  501    0  0.00000000000E+00  0.00000000000E+00  0.77731075616E+02  0.77731075616E+02  0.00000000000E+00 0. -1.
         -1   -1    0    0    0  501 -0.00000000000E+00 -0.00000000000E+00 -0.18886009002E+03  0.18886009002E+03  0.00000000000E+00 0.  1.
         25    2    1    2    0    0  0.34728729686E+02  0.36632304211E+02 -0.84537684014E+02  0.15919956027E+03  0.12509943882E+03 0.  0.
          5    1    3    3  502    0 -0.10352951825E+01 -0.28620823979E+02 -0.79380961379E+02  0.84492797508E+02  0.41800000000E+01 0. -1.
         -5    1    3    3    0  502  0.35764024868E+02  0.65253128190E+02 -0.51567226348E+01  0.74706762757E+02  0.41800000000E+01 0. -1.
        -11    1    1    2    0    0 -0.29284611027E+02  0.20677376063E+02 -0.33927878160E+02  0.49358314804E+02  0.00000000000E+00 0.  1.
         11    1    1    2    0    0 -0.54441186583E+01 -0.57309680275E+02  0.73365477669E+01  0.58033290569E+02  0.00000000000E+00 0. -1.
</event>
<event>
 7    1  0.2873461E-009  0.1828057E+03  0.7561462E-02  0.1165115E+00
          2   -1    0    0  501    0  0.00000000000E+00  0.00000000000E+00  0.40072634345E+03  0.40072634345E+03  0.00000000000E+00 0. -1.
         -2   -1    0    0    0  501 -0.00000000000E+00 -0.00000000000E+00 -0.90471206198E+02  0.90471206198E+02  0.00000000000E+00 0.  1.
         25    2    1    2    0    0  0.68273119046E+02  0.14412497159E+03  0.12498874741E+03  0.23812327728E+03  0.12508909618E+03 0.  0.
          5    1    3    3  502    0 -0.11591966151E+02 -0.16881251978E+02  0.36114452140E+01  0.21210027914E+02  0.41800000000E+01 0. -1.
         -5    1    3    3    0  502  0.79865085198E+02  0.16100622357E+03  0.12137730220E+03  0.21691324937E+03  0.41800000000E+01 0. -1.
        -11    1    1    2    0    0 -0.29238017369E+02 -0.10751593354E+03  0.87701551741E+02  0.14179597950E+03  0.00000000000E+00 0.  1.
         11    1    1    2    0    0 -0.39035101677E+02 -0.36609038051E+02  0.97564838094E+02  0.11127829286E+03  0.00000000000E+00 0. -1.
</event>
<event>
 7    1  0.2873461E-009  0.8732458E+02  0.7561462E-02  0.1309463E+00
         -2   -1    0    0    0  501 -0.00000000000E+00  0.00000000000E+00  0.96269597808E+02  0.96269597808E+02  0.00000000000E+00 0.  1.
          2   -1    0    0  501    0  0.00000000000E+00 -0.00000000000E+00 -0.24098409851E+03  0.24098409851E+03  0.00000000000E+00 0. -1.
         25    2    1    2    0    0  0.79097484995E+01 -0.55117029892E+02  0.24171806187E+02  0.13903667331E+03  0.12508584734E+03 0.  0.
          5    1    3    3  502    0  0.27816143505E+02 -0.32272924982E+02  0.71115610400E+02  0.83007119989E+02  0.41800000000E+01 0. -1.
         -5    1    3    3    0  502 -0.19906395006E+02 -0.22844104910E+02 -0.46943804213E+02  0.56029553320E+02  0.41800000000E+01 0. -1.
        -11    1    1    2    0    0  0.36292449910E+02  0.41210141578E+02 -0.11286570391E+03  0.12551527719E+03  0.00000000000E+00 0.  1.
         11    1    1    2    0    0 -0.44202198410E+02  0.13906888314E+02 -0.56020602980E+02  0.72701745818E+02  0.00000000000E+00 0. -1.
</event>
<event>
 7    1  0.2873461E-009  0.1451963E+03  0.7561462E-02  0.1206503E+00
         -2   -1    0    0    0  501 -0.00000000000E+00  0.00000000000E+00  0.67058108520E+02  0.67058108520E+02  0.00000000000E+00 0.  1.
          2   -1    0    0  501    0  0.00000000000E+00 -0.00000000000E+00 -0.45851947666E+03  0.45851947666E+03  0.00000000000E+00 0. -1.
         25    2    1    2    0    0  0.11346336767E+03  0.73779328205E+02 -0.21071454553E+03  0.27993582779E+03  0.12508446309E+03 0.  0.
          5    1    3    3  502    0  0.24981444745E+02 -0.15162897701E+02 -0.12376086329E+03  0.12723289563E+03  0.41800000000E+01 0. -1.
         -5    1    3    3    0  502  0.88481922921E+02  0.88942225907E+02 -0.86953682246E+02  0.15270293216E+03  0.41800000000E+01 0. -1.
        -11    1    1    2    0    0 -0.35151357989E+02 -0.22386709962E+02 -0.13521622088E+03  0.14149278830E+03  0.00000000000E+00 0.  1.
         11    1    1    2    0    0 -0.78312009677E+02 -0.51392618244E+02 -0.45530601719E+02  0.10414896909E+03  0.00000000000E+00 0. -1.
</event>
<event>
 7    1  0.2873461E-009  0.9776379E+02  0.7561462E-02  0.1285070E+00
          2   -1    0    0  501    0  0.00000000000E+00  0.00000000000E+00  0.33298087682E+02  0.33298087682E+02  0.00000000000E+00 0. -1.
         -2   -1    0    0    0  501 -0.00000000000E+00 -0.00000000000E+00 -0.43862953961E+03  0.43862953961E+03  0.00000000000E+00 0.  1.
         25    2    1    2    0    0 -0.20068310240E-01 -0.50058628282E+02 -0.24921441847E+03  0.28330589350E+03  0.12509410959E+03 0.  0.
          5    1    3    3  502    0  0.23299148923E+02  0.24974971073E+02 -0.17517355735E+02  0.38612558483E+02  0.41800000000E+01 0. -1.
         -5    1    3    3    0  502 -0.23319217233E+02 -0.75033599355E+02 -0.23169706273E+03  0.24469333502E+03  0.41800000000E+01 0. -1.
        -11    1    1    2    0    0  0.26543276263E+02  0.49190522547E+02 -0.15176368786E+03  0.16172961997E+03  0.00000000000E+00 0.  1.
         11    1    1    2    0    0 -0.26523207953E+02  0.86810573407E+00 -0.43533456034E+01  0.26892113819E+02  0.00000000000E+00 0. -1.
</event>
<event>
 7    1  0.2873461E-009  0.1429212E+03  0.7561462E-02  0.1209452E+00
         -1   -1    0    0    0  501 -0.00000000000E+00  0.00000000000E+00  0.55062141499E+02  0.55062141499E+02  0.00000000000E+00 0.  1.
          1   -1    0    0  501    0  0.00000000000E+00 -0.00000000000E+00 -0.10444362596E+04  0.10444362596E+04  0.00000000000E+00 0. -1.
         25    2    1    2    0    0 -0.98858885609E+02 -0.11343873485E+02 -0.94291427563E+03  0.95636627834E+03  0.12508942573E+03 0.  0.
          5    1    3    3  502    0 -0.47408628965E+02  0.51156464848E+02 -0.59731443920E+03  0.60138720777E+03  0.41800000000E+01 0. -1.
         -5    1    3    3    0  502 -0.51450256644E+02 -0.62500338333E+02 -0.34559983643E+03  0.35497907057E+03  0.41800000000E+01 0. -1.
        -11    1    1    2    0    0  0.58900829106E+01 -0.31854765926E+02 -0.61310259708E+01  0.32969814503E+02  0.00000000000E+00 0. -1.
         11    1    1    2    0    0  0.92968802699E+02  0.43198639411E+02 -0.40328816516E+02  0.11016230827E+03  0.00000000000E+00 0.  1.
</event>
<event>
 7    1  0.2873461E-009  0.1222329E+03  0.7561462E-02  0.1239458E+00
          3   -1    0    0  501    0  0.00000000000E+00  0.00000000000E+00  0.11326247641E+03  0.11326247641E+03  0.00000000000E+00 0.  1.
         -3   -1    0    0    0  501 -0.00000000000E+00 -0.00000000000E+00 -0.25716546605E+03  0.25716546605E+03  0.00000000000E+00 0. -1.
         25    2    1    2    0    0 -0.29236453713E+02 -0.86868933822E+02  0.22327450494E+02  0.15667431111E+03  0.12508933938E+03 0.  0.
          5    1    3    3  502    0 -0.13083098801E+02  0.30897198961E+02  0.16412125379E+02  0.37585032091E+02  0.41800000000E+01 0. -1.
         -5    1    3    3    0  502 -0.16153354912E+02 -0.11776613278E+03  0.59153251151E+01  0.11908927902E+03  0.41800000000E+01 0. -1.
        -11    1    1    2    0    0  0.12227315900E+02  0.31554081093E+02  0.38864719751E+01  0.34062764892E+02  0.00000000000E+00 0.  1.
         11    1    1    2    0    0  0.17009137813E+02  0.55314852729E+02 -0.17011691212E+03  0.17969086646E+03  0.00000000000E+00 0. -1.
</event>
<event>
 7    1  0.2873461E-009  0.1320160E+03  0.7561462E-02  0.1224495E+00
         -2   -1    0    0    0  501 -0.00000000000E+00  0.00000000000E+00  0.98165896954E+02  0.98165896954E+02  0.00000000000E+00 0.  1.
          2   -1    0    0  501    0  0.00000000000E+00 -0.00000000000E+00 -0.18917651073E+03  0.18917651073E+03  0.00000000000E+00 0. -1.
         25    2    1    2    0    0 -0.71853132670E+02 -0.26796972595E+02 -0.19168137496E+02  0.14797419210E+03  0.12509194065E+03 0.  0.
          5    1    3    3  502    0 -0.86518676068E+02  0.26378842358E+02 -0.41022215983E+01  0.90640086357E+02  0.41800000000E+01 0. -1.
         -5    1    3    3    0  502  0.14665543399E+02 -0.53175814953E+02 -0.15065915897E+02  0.57334105739E+02  0.41800000000E+01 0. -1.
        -11    1    1    2    0    0  0.73735747427E+02 -0.15897132795E+02 -0.35946452463E+02  0.83557325976E+02  0.00000000000E+00 0.  1.
         11    1    1    2    0    0 -0.18826147568E+01  0.42694105390E+02 -0.35896023818E+02  0.55810889612E+02  0.00000000000E+00 0. -1.
</event>
<event>
 7    1  0.2873461E-009  0.9812901E+02  0.7561462E-02  0.1284280E+00
         -3   -1    0    0    0  501 -0.00000000000E+00  0.00000000000E+00  0.56114064935E+03  0.56114064935E+03  0.00000000000E+00 0.  1.
          3   -1    0    0  501    0  0.00000000000E+00 -0.00000000000E+00 -0.26520180459E+02  0.26520180459E+02  0.00000000000E+00 0. -1.
         25    2    1    2    0    0  0.10602668239E+02  0.27203716082E+02  0.23037496666E+03  0.26376726587E+03  0.12509231207E+03 0.  0.
          5    1    3    3  502    0  0.30967339188E+02  0.49985538659E+02  0.40779419213E+02  0.71679589862E+02  0.41800000000E+01 0.  1.
         -5    1    3    3    0  502 -0.20364670949E+02 -0.22781822577E+02  0.18959554745E+03  0.19208767601E+03  0.41800000000E+01 0.  1.
        -11    1    1    2    0    0  0.43621748894E+02 -0.28710178497E+02  0.10322880998E+03  0.11568629363E+03  0.00000000000E+00 0.  1.
         11    1    1    2    0    0 -0.54224417133E+02  0.15064624147E+01  0.20101669225E+03  0.20820727030E+03  0.00000000000E+00 0. -1.
</event>
<event>
 7    1  0.2873461E-009  0.1131823E+03  0.7561462E-02  0.1254788E+00
         -2   -1    0    0    0  501 -0.00000000000E+00  0.00000000000E+00  0.24156541369E+02  0.24156541369E+02  0.00000000000E+00 0. -1.
          2   -1    0    0  501    0  0.00000000000E+00 -0.00000000000E+00 -0.61220824824E+03  0.61220824824E+03  0.00000000000E+00 0.  1.
         25    2    1    2    0    0  0.42667267211E+02 -0.26705784574E+02 -0.28604515662E+03  0.31623336230E+03  0.12509201887E+03 0.  0.
          5    1    3    3  502    0  0.77294847092E+02 -0.45303982580E+02 -0.23594698782E+03  0.25241909136E+03  0.41800000000E+01 0. -1.
         -5    1    3    3    0  502 -0.34627579881E+02  0.18598198007E+02 -0.50098168802E+02  0.63814270934E+02  0.41800000000E+01 0. -1.
        -11    1    1    2    0    0 -0.47297824279E+02  0.52659855243E+02 -0.26749872833E+03  0.27670510331E+03  0.00000000000E+00 0.  1.
         11    1    1    2    0    0  0.46305570680E+01 -0.25954070669E+02 -0.34507821914E+02  0.43426324002E+02  0.00000000000E+00 0. -1.
</event>
<event>
 7    1  0.2873461E-009  0.1362828E+03  0.7561462E-02  0.1218420E+00
          1   -1    0    0  501    0  0.00000000000E+00  0.00000000000E+00  0.65028914204E+02  0.65028914204E+02  0.00000000000E+00 0. -1.
         -1   -1    0    0    0  501 -0.00000000000E+00 -0.00000000000E+00 -0.72807947719E+03  0.72807947719E+03  0.00000000000E+00 0.  1.
         25    2    1    2    0    0 -0.55500779352E+02  0.10497298413E+03 -0.79056733464E+02  0.18973140669E+03  0.12509346775E+03 0.  0.
          5    1    3    3  502    0 -0.10125326892E+02  0.67254163249E+01 -0.80401580631E+02  0.81422601515E+02  0.41800000000E+01 0.  1.
         -5    1    3    3    0  502 -0.45375452460E+02  0.98247567803E+02  0.13448471670E+01  0.10830880518E+03  0.41800000000E+01 0.  1.
        -11    1    1    2    0    0  0.16934703570E+02 -0.11108097554E+03 -0.44932278446E+03  0.46315951027E+03  0.00000000000E+00 0. -1.
         11    1    1    2    0    0  0.38566075782E+02  0.61079914083E+01 -0.13467104506E+03  0.14021747443E+03  0.00000000000E+00 0.  1.
</event>
<event>
 7    1  0.2873461E-009  0.3921688E+03  0.7561462E-02  0.1046526E+00
          1   -1    0    0  501    0  0.00000000000E+00  0.00000000000E+00  0.20685230866E+03  0.20685230866E+03  0.00000000000E+00 0. -1.
         -1   -1    0    0    0  501 -0.00000000000E+00 -0.00000000000E+00 -0.90677797036E+03  0.90677797036E+03  0.00000000000E+00 0.  1.
         25    2    1    2    0    0 -0.35156988893E+03 -0.14897577713E+03 -0.13080487023E+03  0.42255545726E+03  0.12509209173E+03 0.  0.
          5    1    3    3  502    0 -0.31959604333E+03 -0.16612175731E+03 -0.97619492909E+02  0.37320919999E+03  0.41800000000E+01 0.  1.
         -5    1    3    3    0  502 -0.31973845600E+02  0.17145980178E+02 -0.33185377318E+02  0.49346257269E+02  0.41800000000E+01 0.  1.
        -11    1    1    2    0    0  0.17771146963E+03  0.11135864836E+03 -0.25579619080E+03  0.33077757819E+03  0.00000000000E+00 0. -1.
         11    1    1    2    0    0  0.17385841930E+03  0.37617128766E+02 -0.31332460067E+03  0.36029724357E+03  0.00000000000E+00 0.  1.
</event>
<event>
 7    1  0.2873461E-009  0.9248393E+02  0.7561462E-02  0.1296946E+00
          3   -1    0    0  501    0  0.00000000000E+00  0.00000000000E+00  0.61282655848E+02  0.61282655848E+02  0.00000000000E+00 0. -1.
         -3   -1    0    0    0  501 -0.00000000000E+00 -0.00000000000E+00 -0.29940462269E+03  0.29940462269E+03  0.00000000000E+00 0.  1.
         25    2    1    2    0    0  0.54971198926E+02  0.33106931875E+02 -0.20152089590E+03  0.24571576628E+03  0.12509062581E+03 0.  0.
          5    1    3    3  502    0  0.61148431457E+02 -0.87268950917E+01 -0.29600757192E+02  0.68621910451E+02  0.41800000000E+01 0.  1.
         -5    1    3    3    0  502 -0.61772325312E+01  0.41833826967E+02 -0.17192013871E+03  0.17709385583E+03  0.41800000000E+01 0.  1.
        -11    1    1    2    0    0 -0.40298141803E+02  0.41611908771E+01 -0.57073314341E+02  0.69990134678E+02  0.00000000000E+00 0.  1.
         11    1    1    2    0    0 -0.14673057122E+02 -0.37268122752E+02  0.20472243400E+02  0.44981377576E+02  0.00000000000E+00 0. -1.
</event>
<event>
 7    1  0.2873461E-009  0.6839444E+02  0.7561462E-02  0.1365640E+00
         -2   -1    0    0    0  501 -0.00000000000E+00  0.00000000000E+00  0.44334614493E+02  0.44334614493E+02  0.00000000000E+00 0.  1.
          2   -1    0    0  501    0  0.00000000000E+00 -0.00000000000E+00 -0.26418716485E+03  0.26418716485E+03  0.00000000000E+00 0. -1.
         25    2    1    2    0    0  0.25120785078E+01  0.52343082376E+01 -0.14544647664E+03  0.19192957064E+03  0.12509426044E+03 0.  0.
          5    1    3    3  502    0  0.44685369067E+02  0.15849153574E+02 -0.14003961397E+03  0.14790721334E+03  0.41800000000E+01 0. -1.
         -5    1    3    3    0  502 -0.42173290559E+02 -0.10614845336E+02 -0.54068626761E+01  0.44022357299E+02  0.41800000000E+01 0. -1.
        -11    1    1    2    0    0  0.63243132991E+01 -0.23968867370E+02 -0.88258197204E+02  0.91673403533E+02  0.00000000000E+00 0. -1.
         11    1    1    2    0    0 -0.88363918070E+01  0.18734559133E+02  0.13852123489E+02  0.24918805172E+02  0.00000000000E+00 0.  1.
</event>
<event>
 7    1  0.2873461E-009  0.1061688E+03  0.7561462E-02  0.1267834E+00
         -1   -1    0    0    0  501 -0.00000000000E+00  0.00000000000E+00  0.84463806154E+02  0.84463806154E+02  0.00000000000E+00 0.  1.
          1   -1    0    0  501    0  0.00000000000E+00 -0.00000000000E+00 -0.24139767142E+03  0.24139767142E+03  0.00000000000E+00 0. -1.
         25    2    1    2    0    0  0.80346996228E+02 -0.20906511497E+02 -0.12974031230E+03  0.19842682000E+03  0.12509169530E+03 0.  0.
          5    1    3    3  502    0  0.98206690413E+02 -0.36041437648E+02 -0.51545553138E+02  0.11669599701E+03  0.41800000000E+01 0.  1.
         -5    1    3    3    0  502 -0.17859694186E+02  0.15134926151E+02 -0.78194759161E+02  0.81730822988E+02  0.41800000000E+01 0.  1.
        -11    1    1    2    0    0 -0.21024272387E+02  0.18599127119E+00 -0.54879028365E+02  0.58768719371E+02  0.00000000000E+00 0. -1.
         11    1    1    2    0    0 -0.59322723841E+02  0.20720520226E+02  0.27685475396E+02  0.68665938210E+02  0.00000000000E+00 0.  1.
</event>
<event>
 7    1  0.2873461E-009  0.1030473E+03  0.7561462E-02  0.1274015E+00
          2   -1    0    0  501    0  0.00000000000E+00  0.00000000000E+00  0.54600658659E+02  0.54600658659E+02  0.00000000000E+00 0. -1.
         -2   -1    0    0    0  501 -0.00000000000E+00 -0.00000000000E+00 -0.27967300120E+03  0.27967300120E+03  0.00000000000E+00 0.  1.
         25    2    1    2    0    0  0.40458521846E+02 -0.18084919311E+02 -0.73604554854E+02  0.15175397373E+03  0.12509069410E+03 0.  0.
          5    1    3    3  502    0  0.25972025368E+02  0.43096445500E+02  0.53095202751E+01  0.50769214313E+02  0.41800000000E+01 0. -1.
         -5    1    3    3    0  502  0.14486496478E+02 -0.61181364811E+02 -0.78914075129E+02  0.10098475941E+03  0.41800000000E+01 0. -1.
        -11    1    1    2    0    0 -0.45357749235E+02 -0.23248805272E+02 -0.11988769545E+03  0.13027237575E+03  0.00000000000E+00 0.  1.
         11    1    1    2    0    0  0.48992273895E+01  0.41333724583E+02 -0.31580092239E+02  0.52247310388E+02  0.00000000000E+00 0. -1.
</event>
<event>
 7    1  0.2873461E-009  0.1053960E+03  0.7561462E-02  0.1269341E+00
          1   -1    0    0  501    0  0.00000000000E+00  0.00000000000E+00  0.27583371705E+03  0.27583371705E+03  0.00000000000E+00 0. -1.
         -1   -1    0    0    0  501 -0.00000000000E+00 -0.00000000000E+00 -0.70568683028E+02  0.70568683028E+02  0.00000000000E+00 0.  1.
         25    2    1    2    0    0 -0.77827650639E+02  0.39305714557E+02  0.10787341667E+03  0.18677819703E+03  0.12508932192E+03 0.  0.
          5    1    3    3  502    0 -0.33368870892E+02 -0.20965725696E+02 -0.15366723761E+02  0.42504726769E+02  0.41800000000E+01 0. -1.
         -5    1    3    3    0  502 -0.44458779748E+02  0.60271440253E+02  0.12324014043E+03  0.14427347026E+03  0.41800000000E+01 0. -1.
        -11    1    1    2    0    0  0.47302411346E+02 -0.44782407817E+02  0.87613654624E+01  0.65724757085E+02  0.00000000000E+00 0.  1.
         11    1    1    2    0    0  0.30525239293E+02  0.54766932608E+01  0.88630251884E+02  0.93899445962E+02  0.00000000000E+00 0. -1.
</event>
<event>
 7    1  0.2873461E-009  0.8789502E+02  0.7561462E-02  0.1308031E+00
          1   -1    0    0  501    0  0.00000000000E+00  0.00000000000E+00  0.41920715964E+02  0.41920715964E+02  0.00000000000E+00 0. -1.
         -1   -1    0    0    0  501 -0.00000000000E+00 -0.00000000000E+00 -0.34759916823E+03  0.34759916823E+03  0.00000000000E+00 0.  1.
         25    2    1    2    0    0  0.23227146421E+02 -0.47183820082E+02 -0.18540602834E+03  0.22975799320E+03  0.12509007510E+03 0.  0.
          5    1    3    3  502    0  0.10068809081E+02 -0.59067063002E+02 -0.19933735431E+02  0.63286057361E+02  0.41800000000E+01 0.  1.
         -5    1    3    3    0  502  0.13158337340E+02  0.11883242920E+02 -0.16547229291E+03  0.16647193584E+03  0.41800000000E+01 0.  1.
        -11    1    1    2    0    0 -0.42667843279E+01  0.68699208136E+02 -0.53784822567E+02  0.87353270033E+02  0.00000000000E+00 0. -1.
         11    1    1    2    0    0 -0.18960362093E+02 -0.21515388053E+02 -0.66487601358E+02  0.72408620952E+02  0.00000000000E+00 0.  1.
</event>
<event>
 7    1  0.2873461E-009  0.1112358E+03  0.7561462E-02  0.1258298E+00
         -2   -1    0    0    0  501 -0.00000000000E+00  0.00000000000E+00  0.24029353160E+02  0.24029353160E+02  0.00000000000E+00 0. -1.
          2   -1    0    0  501    0  0.00000000000E+00 -0.00000000000E+00 -0.94075783087E+03  0.94075783087E+03  0.00000000000E+00 0.  1.
         25    2    1    2    0    0  0.80676402957E+00 -0.90691715143E+02 -0.33306126936E+03  0.36715480175E+03  0.12508877343E+03 0.  0.
          5    1    3    3  502    0  0.11543207877E+02 -0.71823241800E+02 -0.33692301548E+03  0.34471207474E+03  0.41800000000E+01 0. -1.
         -5    1    3    3    0  502 -0.10736443848E+02 -0.18868473344E+02  0.38617461190E+01  0.22442727016E+02  0.41800000000E+01 0. -1.
        -11    1    1    2    0    0  0.22134002177E+02 -0.99556846554E+01 -0.85251110660E+02  0.88638488131E+02  0.00000000000E+00 0. -1.
         11    1    1    2    0    0 -0.22940766207E+02  0.10064739980E+03 -0.49841609769E+03  0.50899389414E+03  0.00000000000E+00 0.  1.
</event>
<event>
 7    1  0.2873461E-009  0.1641264E+03  0.7561462E-02  0.1184115E+00
          2   -1    0    0  501    0  0.00000000000E+00  0.00000000000E+00  0.93887406951E+03  0.93887406951E+03  0.00000000000E+00 0. -1.
         -2   -1    0    0    0  501 -0.00000000000E+00 -0.00000000000E+00 -0.34374349527E+02  0.34374349527E+02  0.00000000000E+00 0.  1.
         25    2    1    2    0    0  0.10987836475E+03 -0.85594050867E+02  0.42305960336E+03  0.46263209524E+03  0.12509768569E+03 0.  0.
          5    1    3    3  502    0  0.93190012802E+02 -0.11431682724E+03  0.28939289988E+03  0.32483601767E+03  0.41800000000E+01 0.  1.
         -5    1    3    3    0  502  0.16688351947E+02  0.28722776374E+02  0.13366670348E+03  0.13779607757E+03  0.41800000000E+01 0.  1.
        -11    1    1    2    0    0 -0.16881436452E+02  0.40487234553E+02  0.48006732220E+02  0.65029573249E+02  0.00000000000E+00 0.  1.
         11    1    1    2    0    0 -0.92996928297E+02  0.45106816314E+02  0.43343338440E+03  0.44558675055E+03  0.00000000000E+00 0. -1.
</event>
<event>
 7    1  0.2873461E-009  0.1271687E+03  0.7561462E-02  0.1231718E+00
          2   -1    0    0  501    0  0.00000000000E+00  0.00000000000E+00  0.19802478198E+03  0.19802478198E+03  0.00000000000E+00 0. -1.
         -2   -1    0    0    0  501 -0.00000000000E+00 -0.00000000000E+00 -0.11254630733E+03  0.11254630733E+03  0.00000000000E+00 0.  1.
         25    2    1    2    0    0 -0.87409766596E+02  0.52027230478E+02  0.23338659322E+02  0.16290874940E+03  0.12508903871E+03 0.  0.
          5    1    3    3  502    0 -0.11429576249E+03  0.43190139140E+02  0.41401570613E+02  0.12907545038E+03  0.41800000000E+01 0. -1.
         -5    1    3    3    0  502  0.26885995891E+02  0.88370913375E+01 -0.18062911292E+02  0.33833299022E+02  0.41800000000E+01 0. -1.
        -11    1    1    2    0    0  0.40289936839E+02 -0.35008649731E+02 -0.15215008822E+02  0.55501180707E+02  0.00000000000E+00 0.  1.
         11    1    1    2    0    0  0.47119829757E+02 -0.17018580746E+02  0.77354824151E+02  0.92161159207E+02  0.00000000000E+00 0. -1.
</event>
<event>
 7    1  0.2873461E-009  0.1049256E+03  0.7561462E-02  0.1270266E+00
         -1   -1    0    0    0  501 -0.00000000000E+00  0.00000000000E+00  0.15389349239E+02  0.15389349239E+02  0.00000000000E+00 0.  1.
          1   -1    0    0  501    0  0.00000000000E+00 -0.00000000000E+00 -0.10507405335E+04  0.10507405335E+04  0.00000000000E+00 0. -1.
         25    2    1    2    0    0 -0.11230458603E+01 -0.73976972329E+01 -0.85546680796E+03  0.86459290264E+03  0.12506574519E+03 0.  0.
          5    1    3    3  502    0 -0.12157543856E+02 -0.64816883829E+02 -0.41122689736E+03  0.41650218225E+03  0.41800000000E+01 0.  1.
         -5    1    3    3    0  502  0.11034497995E+02  0.57419186596E+02 -0.44423991060E+03  0.44809072039E+03  0.41800000000E+01 0.  1.
        -11    1    1    2    0    0 -0.36233387925E+02 -0.17521484665E+02 -0.50468243579E+02  0.64551564159E+02  0.00000000000E+00 0.  1.
         11    1    1    2    0    0  0.37356433785E+02  0.24919181897E+02 -0.12941613271E+03  0.13698541593E+03  0.00000000000E+00 0. -1.
</event>
<event>
 7    1  0.2873461E-009  0.1572019E+03  0.7561462E-02  0.1191892E+00
         -2   -1    0    0    0  501 -0.00000000000E+00  0.00000000000E+00  0.26803616951E+02  0.26803616951E+02  0.00000000000E+00 0. -1.
          2   -1    0    0  501    0  0.00000000000E+00 -0.00000000000E+00 -0.11596991374E+04  0.11596991374E+04  0.00000000000E+00 0.  1.
         25    2    1    2    0    0  0.10612048226E+03 -0.64941116928E+02 -0.80495248580E+03  0.82405694148E+03  0.12506971247E+03 0.  0.
          5    1    3    3  502    0  0.12708156529E+03 -0.35427976419E+02 -0.71360221112E+03  0.72570686497E+03  0.41800000000E+01 0.  1.
         -5    1    3    3    0  502 -0.20961083032E+02 -0.29513140509E+02 -0.91350274682E+02  0.98350076507E+02  0.41800000000E+01 0.  1.
        -11    1    1    2    0    0 -0.92677149954E+02  0.82347823441E+02 -0.31062645472E+03  0.33445330394E+03  0.00000000000E+00 0.  1.
         11    1    1    2    0    0 -0.13443332307E+02 -0.17406706514E+02 -0.17316579910E+02  0.27992508908E+02  0.00000000000E+00 0. -1.
</event>
<event>
 7    1  0.2873461E-009  0.1093548E+03  0.7561462E-02  0.1261769E+00
          3   -1    0    0  501    0  0.00000000000E+00  0.00000000000E+00  0.12091428393E+03  0.12091428393E+03  0.00000000000E+00 0. -1.
         -3   -1    0    0    0  501 -0.00000000000E+00 -0.00000000000E+00 -0.14531756803E+03  0.14531756803E+03  0.00000000000E+00 0.  1.
         25    2    1    2    0    0  0.36411436354E+02 -0.62000843159E+02 -0.38795644123E+02  0.14941069261E+03  0.12509418776E+03 0.  0.
          5    1    3    3  502    0  0.57260296982E+02 -0.57126800572E+02 -0.72871991000E+02  0.10894958663E+03  0.41800000000E+01 0. -1.
         -5    1    3    3    0  502 -0.20848860628E+02 -0.48740425868E+01  0.34076346876E+02  0.40461105979E+02  0.41800000000E+01 0. -1.
        -11    1    1    2    0    0 -0.31331306471E+02 -0.17736661829E+02  0.56749376029E+01  0.36447837450E+02  0.00000000000E+00 0. -1.
         11    1    1    2    0    0 -0.50801298831E+01  0.79737504988E+02  0.87174224213E+01  0.80373321911E+02  0.00000000000E+00 0.  1.
</event>
<event>
 7    1  0.2873461E-009  0.2586092E+03  0.7561462E-02  0.1107982E+00
         -2   -1    0    0    0  501 -0.00000000000E+00  0.00000000000E+00  0.15625507477E+03  0.15625507477E+03  0.00000000000E+00 0.  1.
          2   -1    0    0  501    0  0.00000000000E+00 -0.00000000000E+00 -0.47123250329E+03  0.47123250329E+03  0.00000000000E+00 0. -1.
         25    2    1    2    0    0 -0.18724477821E+03 -0.14610387507E+03 -0.75817779241E+02  0.27892597101E+03  0.12507762542E+03 0.  0.
          5    1    3    3  502    0 -0.42307158723E+02  0.18711132567E+02  0.69951198111E+00  0.46453889807E+02  0.41800000000E+01 0. -1.
         -5    1    3    3    0  502 -0.14493761948E+03 -0.16481500764E+03 -0.76517291222E+02  0.23247208120E+03  0.41800000000E+01 0. -1.
        -11    1    1    2    0    0  0.91482972179E+02  0.21279470166E+02 -0.67184867946E+02  0.11548054611E+03  0.00000000000E+00 0.  1.
         11    1    1    2    0    0  0.95761806028E+02  0.12482440490E+03 -0.17197478133E+03  0.23308106093E+03  0.00000000000E+00 0. -1.
</event>
<event>
 7    1  0.2873461E-009  0.1389929E+03  0.7561462E-02  0.1214691E+00
         -1   -1    0    0    0  501 -0.00000000000E+00  0.00000000000E+00  0.61719133998E+03  0.61719133998E+03  0.00000000000E+00 0.  1.
          1   -1    0    0  501    0  0.00000000000E+00 -0.00000000000E+00 -0.49506248468E+02  0.49506248468E+02  0.00000000000E+00 0. -1.
         25    2    1    2    0    0  0.11909767807E+03 -0.46524882124E+02  0.20949362564E+03  0.27547252747E+03  0.12509481453E+03 0.  0.
          5    1    3    3  502    0  0.57889208829E+02 -0.20692222822E+02  0.19870060737E+03  0.20803541129E+03  0.41800000000E+01 0. -1.
         -5    1    3    3    0  502  0.61208469246E+02 -0.25832659302E+02  0.10793018278E+02  0.67437116172E+02  0.41800000000E+01 0. -1.
        -11    1    1    2    0    0 -0.50852557947E+02  0.61631507502E+02  0.24964838710E+03  0.26212352536E+03  0.00000000000E+00 0.  1.
         11    1    1    2    0    0 -0.68245120128E+02 -0.15106625378E+02  0.10854307877E+03  0.12910153562E+03  0.00000000000E+00 0. -1.
</event>
<event>
 7    1  0.2873461E-009  0.1078677E+03  0.7561462E-02  0.1264570E+00
         -1   -1    0    0    0  501 -0.00000000000E+00  0.00000000000E+00  0.13999348129E+02  0.13999348129E+02  0.00000000000E+00 0.  1.
          1   -1    0    0  501    0  0.00000000000E+00 -0.00000000000E+00 -0.14197347729E+04  0.14197347729E+04  0.00000000000E+00 0. -1.
         25    2    1    2    0    0  0.13463007585E+02 -0.76793875693E+02 -0.10066908952E+04  0.10174246224E+04  0.12509097378E+03 0.  0.
          5    1    3    3  502    0  0.15760306935E+02 -0.10147644646E+03 -0.51857880637E+03  0.52866559116E+03  0.41800000000E+01 0.  1.
         -5    1    3    3    0  502 -0.22972993497E+01  0.24682570769E+02 -0.48811208886E+03  0.48875903120E+03  0.41800000000E+01 0.  1.
        -11    1    1    2    0    0  0.36433699277E+00  0.73633291940E+02 -0.39464965806E+03  0.40146026831E+03  0.00000000000E+00 0. -1.
         11    1    1    2    0    0 -0.13827344578E+02  0.31605837532E+01 -0.43948715116E+01  0.14849230396E+02  0.00000000000E+00 0.  1.
</event>
<event>
 7    1  0.2873461E-009  0.8446891E+02  0.7561462E-02  0.1316827E+00
         -1   -1    0    0    0  501 -0.00000000000E+00  0.00000000000E+00  0.29799319962E+03  0.29799319962E+03  0.00000000000E+00 0.  1.
          1   -1    0    0  501    0  0.00000000000E+00 -0.00000000000E+00 -0.67090691209E+02  0.67090691209E+02  0.00000000000E+00 0. -1.
         25    2    1    2    0    0  0.34137997321E+02  0.42593736597E+02  0.19909175525E+03  0.24137979640E+03  0.12508816827E+03 0.  0.
          5    1    3    3  502    0  0.27236237806E+02 -0.25309738881E+02  0.77809856807E+01  0.38215332920E+02  0.41800000000E+01 0. -1.
         -5    1    3    3    0  502  0.69017595152E+01  0.67903475478E+02  0.19131076957E+03  0.20316446348E+03  0.41800000000E+01 0. -1.
        -11    1    1    2    0    0 -0.22225692186E+02 -0.45711409362E+02  0.68331803493E+02  0.85163077137E+02  0.00000000000E+00 0.  1.
         11    1    1    2    0    0 -0.11912305135E+02  0.31176727644E+01 -0.36521050330E+02  0.38541017297E+02  0.00000000000E+00 0. -1.
</event>
<event>
 7    1  0.3217502E-009  0.2197312E+03  0.7561462E-02  0.1134084E+00
          2   -1    0    0  501    0  0.00000000000E+00  0.00000000000E+00  0.86001093827E+03  0.86001093827E+03  0.00000000000E+00 0. -1.
         -2   -1    0    0    0  501 -0.00000000000E+00 -0.00000000000E+00 -0.65649610124E+02  0.65649610124E+02  0.00000000000E+00 0.  1.
         25    2    1    2    0    0 -0.13916314068E+03  0.14178989392E+03  0.27144582336E+03  0.35888933126E+03  0.12509181960E+03 0.  0.
          5    1    3    3  502    0 -0.47777149176E+02  0.12733729921E+03  0.20009058733E+03  0.24197346816E+03  0.41800000000E+01 0. -1.
         -5    1    3    3    0  502 -0.91385991502E+02  0.14452594714E+02  0.71355236033E+02  0.11691586311E+03  0.41800000000E+01 0. -1.
        -11    1    1    2    0    0  0.80076977353E+02 -0.32269689197E+02  0.29152839254E+03  0.30404351464E+03  0.00000000000E+00 0.  1.
         11    1    1    2    0    0  0.59086163324E+02 -0.10952020473E+03  0.23138711224E+03  0.26272770248E+03  0.00000000000E+00 0. -1.
</event>
<event>
 7    1  0.2873461E-009  0.1073266E+03  0.7561462E-02  0.1265602E+00
          2   -1    0    0  501    0  0.00000000000E+00  0.00000000000E+00  0.50350604488E+02  0.50350604488E+02  0.00000000000E+00 0. -1.
         -2   -1    0    0    0  501 -0.00000000000E+00 -0.00000000000E+00 -0.29962710286E+03  0.29962710286E+03  0.00000000000E+00 0.  1.
         25    2    1    2    0    0 -0.36706245555E+00 -0.48292778623E+02 -0.97776434396E+02  0.16595195498E+03  0.12508993979E+03 0.  0.
          5    1    3    3  502    0  0.46807810159E+02  0.11305516422E+02 -0.92771243110E+01  0.49217103012E+02  0.41800000000E+01 0.  1.
         -5    1    3    3    0  502 -0.47174872615E+02 -0.59598295045E+02 -0.88499310085E+02  0.11673485197E+03  0.41800000000E+01 0.  1.
        -11    1    1    2    0    0 -0.23519712587E+02  0.59373510460E+02 -0.14257211938E+03  0.15622163694E+03  0.00000000000E+00 0.  1.
         11    1    1    2    0    0  0.23886775043E+02 -0.11080731837E+02 -0.89279445982E+01  0.27804115428E+02  0.00000000000E+00 0. -1.
</event>
<event>
 7    1  0.3638348E-009  0.1075129E+03  0.7561462E-02  0.1265246E+00
         -2   -1    0    0    0  501 -0.00000000000E+00  0.00000000000E+00  0.21553356509E+02  0.21553356509E+02  0.00000000000E+00 0.  1.
          2   -1    0    0  501    0  0.00000000000E+00 -0.00000000000E+00 -0.81687319150E+03  0.81687319150E+03  0.00000000000E+00 0. -1.
         25    2    1    2    0    0  0.51806589331E+02  0.53770185135E+02 -0.48732856249E+03  0.50863592895E+03  0.12508487078E+03 0.  0.
          5    1    3    3  502    0  0.56841021223E+01  0.71625012906E+02 -0.41322428723E+03  0.41944515189E+03  0.41800000000E+01 0. -1.
         -5    1    3    3    0  502  0.46122487209E+02 -0.17854827771E+02 -0.74104275259E+02  0.89190777061E+02  0.41800000000E+01 0. -1.
        -11    1    1    2    0    0  0.83214900722E+01 -0.25792223435E+02 -0.18532933626E+02  0.32832234397E+02  0.00000000000E+00 0.  1.
         11    1    1    2    0    0 -0.60128079403E+02 -0.27977961700E+02 -0.28945833888E+03  0.29695838466E+03  0.00000000000E+00 0. -1.
</event>
<event>
 7    1  0.2873461E-009  0.7434124E+02  0.7561462E-02  0.1345923E+00
          3   -1    0    0  501    0  0.00000000000E+00  0.00000000000E+00  0.19420030311E+03  0.19420030311E+03  0.00000000000E+00 0. -1.
         -3   -1    0    0    0  501 -0.00000000000E+00 -0.00000000000E+00 -0.65470023468E+02  0.65470023468E+02  0.00000000000E+00 0.  1.
         25    2    1    2    0    0  0.10724332501E+02  0.35888497181E+02  0.72476880160E+02  0.14934516827E+03  0.12509230827E+03 0.  0.
          5    1    3    3  502    0  0.41764200128E+02  0.59459875124E+01  0.92395316308E+02  0.10165613634E+03  0.41800000000E+01 0.  1.
         -5    1    3    3    0  502 -0.31039867627E+02  0.29942509669E+02 -0.19918436148E+02  0.47689031927E+02  0.41800000000E+01 0.  1.
        -11    1    1    2    0    0  0.12964351163E+02  0.64236116385E+01  0.59970319462E+02  0.61690975060E+02  0.00000000000E+00 0. -1.
         11    1    1    2    0    0 -0.23688683664E+02 -0.42312108820E+02 -0.37169199779E+01  0.48634183252E+02  0.00000000000E+00 0.  1.
</event>
<event>
 7    1  0.2873461E-009  0.1183496E+03  0.7561462E-02  0.1245845E+00
         -2   -1    0    0    0  501 -0.00000000000E+00  0.00000000000E+00  0.36726940837E+02  0.36726940837E+02  0.00000000000E+00 0.  1.
          2   -1    0    0  501    0  0.00000000000E+00 -0.00000000000E+00 -0.66904286696E+03  0.66904286696E+03  0.00000000000E+00 0. -1.
         25    2    1    2    0    0  0.55687735386E+02  0.34574903933E+02 -0.13241933323E+03  0.19359446677E+03  0.12508952753E+03 0.  0.
          5    1    3    3  502    0 -0.23123372608E+02 -0.18720645617E+02  0.53998262484E+00  0.30048575912E+02  0.41800000000E+01 0. -1.
         -5    1    3    3    0  502  0.78811107994E+02  0.53295549550E+02 -0.13295931585E+03  0.16354589086E+03  0.41800000000E+01 0. -1.
        -11    1    1    2    0    0 -0.10874544078E+02 -0.59268184408E+02 -0.26248407615E+03  0.26931183343E+03  0.00000000000E+00 0.  1.
         11    1    1    2    0    0 -0.44813191308E+02  0.24693280475E+02 -0.23741251674E+03  0.24286350760E+03  0.00000000000E+00 0. -1.
</event>
<event>
 7    1  0.2873461E-009  0.1177355E+03  0.7561462E-02  0.1246880E+00
         -1   -1    0    0    0  501 -0.00000000000E+00  0.00000000000E+00  0.23618258022E+02  0.23618258022E+02  0.00000000000E+00 0.  1.
          1   -1    0    0  501    0  0.00000000000E+00 -0.00000000000E+00 -0.88678487429E+03  0.88678487429E+03  0.00000000000E+00 0. -1.
         25    2    1    2    0    0  0.59780455819E+02  0.38883947613E+00 -0.73248433708E+03  0.74548983362E+03  0.12509170185E+03 0.  0.
          5    1    3    3  502    0 -0.36059212353E+02  0.15666397962E+02 -0.27313009549E+03  0.27597685462E+03  0.41800000000E+01 0. -1.
         -5    1    3    3    0  502  0.95839668172E+02 -0.15277558486E+02 -0.45935424159E+03  0.46951297900E+03  0.41800000000E+01 0. -1.
        -11    1    1    2    0    0 -0.52494926103E+02 -0.35216188106E+02 -0.97887268671E+02  0.11652387970E+03  0.00000000000E+00 0.  1.
         11    1    1    2    0    0 -0.72855297157E+01  0.34827348630E+02 -0.32795010516E+02  0.48389418994E+02  0.00000000000E+00 0. -1.
</event>
<event>
 7    1  0.2873461E-009  0.2868203E+03  0.7561462E-02  0.1092021E+00
         -2   -1    0    0    0  501 -0.00000000000E+00  0.00000000000E+00  0.40470060731E+02  0.40470060731E+02  0.00000000000E+00 0.  1.
          2   -1    0    0  501    0  0.00000000000E+00 -0.00000000000E+00 -0.21929848645E+04  0.21929848645E+04  0.00000000000E+00 0. -1.
         25    2    1    2    0    0  0.27644012344E+03  0.12184248353E+02 -0.10485460610E+04  0.10916342081E+04  0.12509518205E+03 0.  0.
          5    1    3    3  502    0  0.18646297421E+03 -0.28513157820E+02 -0.50333504320E+03  0.53753611882E+03  0.41800000000E+01 0. -1.
         -5    1    3    3    0  502  0.89977149230E+02  0.40697406173E+02 -0.54521101778E+03  0.55409808930E+03  0.41800000000E+01 0. -1.
        -11    1    1    2    0    0 -0.21243957518E+03 -0.40283290030E+02 -0.72891802615E+03  0.76031230781E+03  0.00000000000E+00 0.  1.
         11    1    1    2    0    0 -0.64000548260E+02  0.28099041677E+02 -0.37505071661E+03  0.38150840928E+03  0.00000000000E+00 0. -1.
</event>
<event>
 7    1  0.2873461E-009  0.1020534E+03  0.7561462E-02  0.1276036E+00
          4   -1    0    0  501    0  0.00000000000E+00  0.00000000000E+00  0.35728325488E+02  0.35728325488E+02  0.00000000000E+00 0. -1.
         -4   -1    0    0    0  501 -0.00000000000E+00 -0.00000000000E+00 -0.49029309704E+03  0.49029309704E+03  0.00000000000E+00 0.  1.
         25    2    1    2    0    0  0.23434331408E+02  0.42188771901E+02 -0.36898632860E+03  0.39259143544E+03  0.12509222247E+03 0.  0.
          5    1    3    3  502    0 -0.28735756584E+02 -0.24276304502E+02 -0.50793273620E+02  0.63344389742E+02  0.41800000000E+01 0.  1.
         -5    1    3    3    0  502  0.52170087991E+02  0.66465076403E+02 -0.31819305498E+03  0.32924704570E+03  0.41800000000E+01 0.  1.
        -11    1    1    2    0    0  0.13755658826E+02  0.10403574507E+02 -0.62772558412E+02  0.65098745009E+02  0.00000000000E+00 0.  1.
         11    1    1    2    0    0 -0.37189990233E+02 -0.52592346408E+02 -0.22805884535E+02  0.68331242076E+02  0.00000000000E+00 0. -1.
</event>
<event>
 7    1  0.2873461E-009  0.5759101E+02  0.7561462E-02  0.1408228E+00
         -1   -1    0    0    0  501 -0.00000000000E+00  0.00000000000E+00  0.25290541371E+02  0.25290541371E+02  0.00000000000E+00 0.  1.
          1   -1    0    0  501    0  0.00000000000E+00 -0.00000000000E+00 -0.36449531841E+03  0.36449531841E+03  0.00000000000E+00 0. -1.
         25    2    1    2    0    0 -0.33113492608E+02 -0.15126283570E+00 -0.26123204255E+03  0.29152409471E+03  0.12509033323E+03 0.  0.
          5    1    3    3  502    0  0.92685345862E+01  0.69098704719E+01  0.10632535886E+02  0.16253469250E+02  0.41800000000E+01 0.  1.
         -5    1    3    3    0  502 -0.42382027194E+02 -0.70611333076E+01 -0.27186457843E+03  0.27527062546E+03  0.41800000000E+01 0.  1.
        -11    1    1    2    0    0 -0.12974256412E+02  0.37113456803E+01 -0.19758171293E+02  0.23926778910E+02  0.00000000000E+00 0.  1.
         11    1    1    2    0    0  0.46087749020E+02 -0.35600828446E+01 -0.58214563201E+02  0.74334986166E+02  0.00000000000E+00 0. -1.
</event>
<event>
 7    1  0.2873461E-009  0.7714043E+02  0.7561462E-02  0.1337368E+00
          3   -1    0    0  501    0  0.00000000000E+00  0.00000000000E+00  0.10166442555E+03  0.10166442555E+03  0.00000000000E+00 0. -1.
         -3   -1    0    0    0  501 -0.00000000000E+00 -0.00000000000E+00 -0.16201991787E+03  0.16201991787E+03  0.00000000000E+00 0.  1.
         25    2    1    2    0    0  0.28046128471E+02  0.37447436582E+02  0.20741290814E+02  0.13515140069E+03  0.12508718613E+03 0.  0.
          5    1    3    3  502    0 -0.25518811937E+02  0.25496951234E+02 -0.39428890700E+02  0.53604235903E+02  0.41800000000E+01 0. -1.
         -5    1    3    3    0  502  0.53564940408E+02  0.11950485348E+02  0.60170181514E+02  0.81547164785E+02  0.41800000000E+01 0. -1.
        -11    1    1    2    0    0  0.10136761978E+02 -0.10795087814E+01  0.15458485857E+02  0.18517129032E+02  0.00000000000E+00 0. -1.
         11    1    1    2    0    0 -0.38182890449E+02 -0.36367927801E+02 -0.96555268985E+02  0.11001581370E+03  0.00000000000E+00 0.  1.
</event>
<event>
 7    1  0.2873461E-009  0.9731538E+02  0.7561462E-02  0.1286045E+00
         -1   -1    0    0    0  501 -0.00000000000E+00  0.00000000000E+00  0.28602219022E+03  0.28602219022E+03  0.00000000000E+00 0.  1.
          1   -1    0    0  501    0  0.00000000000E+00 -0.00000000000E+00 -0.46916503544E+02  0.46916503544E+02  0.00000000000E+00 0. -1.
         25    2    1    2    0    0 -0.49342265271E+02  0.21542538539E+02  0.10669463373E+03  0.17300354240E+03  0.12509092976E+03 0.  0.
          5    1    3    3  502    0 -0.28607835632E+02  0.57274274649E+02  0.11402800537E+03  0.13083810303E+03  0.41800000000E+01 0.  1.
         -5    1    3    3    0  502 -0.20734429639E+02 -0.35731736110E+02 -0.73333716427E+01  0.42165439373E+02  0.41800000000E+01 0.  1.
        -11    1    1    2    0    0  0.12848081588E+02  0.26008631580E+02  0.53269909515E+02  0.60656453712E+02  0.00000000000E+00 0.  1.
         11    1    1    2    0    0  0.36494183683E+02 -0.47551170119E+02  0.79141143433E+02  0.99278697646E+02  0.00000000000E+00 0. -1.
</event>
<event>
 7    1  0.2873461E-009  0.2883379E+03  0.7561462E-02  0.1091220E+00
         -2   -1    0    0    0  501 -0.00000000000E+00  0.00000000000E+00  0.12409189740E+03  0.12409189740E+03  0.00000000000E+00 0.  1.
          2   -1    0    0  501    0  0.00000000000E+00 -0.00000000000E+00 -0.71134822972E+03  0.71134822972E+03  0.00000000000E+00 0. -1.
         25    2    1    2    0    0  0.26425631699E+03 -0.79706153687E+02 -0.25142558106E+03  0.39375826996E+03  0.12508509240E+03 0.  0.
          5    1    3    3  502    0  0.12006078490E+03  0.92792433679E+01 -0.16266257109E+03  0.20242845863E+03  0.41800000000E+01 0. -1.
         -5    1    3    3    0  502  0.14419553209E+03 -0.88985397055E+02 -0.88763009968E+02  0.19132981133E+03  0.41800000000E+01 0. -1.
        -11    1    1    2    0    0 -0.93938628876E+02 -0.95133876270E+01 -0.11824064324E+03  0.15131364860E+03  0.00000000000E+00 0. -1.
         11    1    1    2    0    0 -0.17031768812E+03  0.89219541314E+02 -0.21759010802E+03  0.29036820857E+03  0.00000000000E+00 0.  1.
</event>
<event>
 7    1  0.2873461E-009  0.9352573E+02  0.7561462E-02  0.1294531E+00
          2   -1    0    0  501    0  0.00000000000E+00  0.00000000000E+00  0.14755226010E+03  0.14755226010E+03  0.00000000000E+00 0.  1.
         -2   -1    0    0    0  501 -0.00000000000E+00 -0.00000000000E+00 -0.99245701388E+02  0.99245701388E+02  0.00000000000E+00 0. -1.
         25    2    1    2    0    0  0.93751434082E+01  0.11062450956E+02  0.66774811409E+02  0.14254123049E+03  0.12509538687E+03 0.  0.
          5    1    3    3  502    0 -0.72221930857E+01 -0.34877512032E+02 -0.21322370839E+02  0.41721898527E+02  0.41800000000E+01 0. -1.
         -5    1    3    3    0  502  0.16597336494E+02  0.45939962988E+02  0.88097182248E+02  0.10081933197E+03  0.41800000000E+01 0. -1.
        -11    1    1    2    0    0 -0.48296393438E+02 -0.32032794039E+02 -0.15261117073E+02  0.59929485292E+02  0.00000000000E+00 0.  1.
         11    1    1    2    0    0  0.38921250030E+02  0.20970343083E+02 -0.32071356212E+01  0.44327245705E+02  0.00000000000E+00 0. -1.
</event>
<event>
 7    1  0.2873461E-009  0.9434833E+02  0.7561462E-02  0.1292651E+00
         -1   -1    0    0    0  501 -0.00000000000E+00  0.00000000000E+00  0.13531268421E+03  0.13531268421E+03  0.00000000000E+00 0.  1.
          1   -1    0    0  501    0  0.00000000000E+00 -0.00000000000E+00 -0.11754406007E+03  0.11754406007E+03  0.00000000000E+00 0. -1.
         25    2    1    2    0    0  0.36762382009E+02  0.43129340709E+02 -0.13167652285E+01  0.13733457656E+03  0.12508972495E+03 0.  0.
          5    1    3    3  502    0  0.79935399799E+02  0.22256301255E+02  0.18771076502E+02  0.85175329760E+02  0.41800000000E+01 0. -1.
         -5    1    3    3    0  502 -0.43173017791E+02  0.20873039455E+02 -0.20087841730E+02  0.52159246799E+02  0.41800000000E+01 0. -1.
        -11    1    1    2    0    0 -0.24126543719E+02 -0.34800166058E+02  0.59120980175E+02  0.72721605911E+02  0.00000000000E+00 0.  1.
         11    1    1    2    0    0 -0.12635838290E+02 -0.83291746510E+01 -0.40035590811E+02  0.42800561810E+02  0.00000000000E+00 0. -1.
</event>
<event>
 7    1  0.2873461E-009  0.1633317E+03  0.7561462E-02  0.1184986E+00
          2   -1    0    0  501    0  0.00000000000E+00  0.00000000000E+00  0.95129227048E+03  0.95129227048E+03  0.00000000000E+00 0. -1.
         -2   -1    0    0    0  501 -0.00000000000E+00 -0.00000000000E+00 -0.35621464265E+02  0.35621464265E+02  0.00000000000E+00 0.  1.
         25    2    1    2    0    0  0.12542973675E+03 -0.21117322219E+02  0.30971849011E+03  0.35741997258E+03  0.12507970868E+03 0.  0.
          5    1    3    3  502    0 -0.10523016652E+02  0.17504451607E+02  0.11445931933E+03  0.11634237357E+03  0.41800000000E+01 0.  1.
         -5    1    3    3    0  502  0.13595275340E+03 -0.38621773827E+02  0.19525917078E+03  0.24107759901E+03  0.41800000000E+01 0.  1.
        -11    1    1    2    0    0  0.47005609450E+00 -0.28934212916E+02  0.55241580744E+02  0.62362183035E+02  0.00000000000E+00 0.  1.
         11    1    1    2    0    0 -0.12589979285E+03  0.50051535135E+02  0.55071073535E+03  0.56713157913E+03  0.00000000000E+00 0. -1.
</event>
<event>
 7    1  0.2873461E-009  0.9787562E+02  0.7561462E-02  0.1284828E+00
          4   -1    0    0  501    0  0.00000000000E+00  0.00000000000E+00  0.10400942181E+03  0.10400942181E+03  0.00000000000E+00 0. -1.
         -4   -1    0    0    0  501 -0.00000000000E+00 -0.00000000000E+00 -0.14051379898E+03  0.14051379898E+03  0.00000000000E+00 0.  1.
         25    2    1    2    0    0 -0.52831381466E+02  0.26679186874E+01  0.13385118389E+02  0.13652558847E+03  0.12514712244E+03 0.  0.
          5    1    3    3  502    0  0.29817788672E+02 -0.20629269096E+02  0.32024913276E+02  0.48556510738E+02  0.41800000000E+01 0.  1.
         -5    1    3    3    0  502 -0.82649170138E+02  0.23297187783E+02 -0.18639794886E+02  0.87969077729E+02  0.41800000000E+01 0.  1.
        -11    1    1    2    0    0 -0.31904800493E+01 -0.15486271336E+02  0.14666989390E+02  0.21566741539E+02  0.00000000000E+00 0. -1.
         11    1    1    2    0    0  0.56021861515E+02  0.12818352649E+02 -0.64556484956E+02  0.86430890786E+02  0.00000000000E+00 0.  1.
</event>
<event>
 7    1  0.2873461E-009  0.1323134E+03  0.7561462E-02  0.1224063E+00
          1   -1    0    0  501    0  0.00000000000E+00  0.00000000000E+00  0.20406957945E+03  0.20406957945E+03  0.00000000000E+00 0. -1.
         -1   -1    0    0    0  501 -0.00000000000E+00 -0.00000000000E+00 -0.14106144526E+03  0.14106144526E+03  0.00000000000E+00 0.  1.
         25    2    1    2    0    0 -0.12131023173E+03  0.16316190544E+02 -0.15110027957E+02  0.17566456017E+03  0.12508930553E+03 0.  0.
          5    1    3    3  502    0 -0.11500195616E+03  0.22190813023E+02 -0.58670358149E+02  0.13106321157E+03  0.41800000000E+01 0. -1.
         -5    1    3    3    0  502 -0.63082755722E+01 -0.58746224790E+01  0.43560330191E+02  0.44601348593E+02  0.41800000000E+01 0. -1.
        -11    1    1    2    0    0  0.77632300987E+02  0.20976333427E+02  0.11056437009E+02  0.81172812689E+02  0.00000000000E+00 0.  1.
         11    1    1    2    0    0  0.43677930742E+02 -0.37292523972E+02  0.67061725144E+02  0.88293651852E+02  0.00000000000E+00 0. -1.
</event>
<event>
 7    1  0.2873461E-009  0.9406183E+02  0.7561462E-02  0.1293303E+00
         -1   -1    0    0    0  501 -0.00000000000E+00  0.00000000000E+00  0.41388876557E+02  0.41388876557E+02  0.00000000000E+00 0.  1.
          1   -1    0    0  501    0  0.00000000000E+00 -0.00000000000E+00 -0.24583334654E+03  0.24583334654E+03  0.00000000000E+00 0. -1.
         25    2    1    2    0    0  0.43292699185E+02 -0.24611103114E+02 -0.14762897141E+03  0.19980719882E+03  0.12509452148E+03 0.  0.
          5    1    3    3  502    0  0.20662471168E+02  0.51120064317E+02 -0.55456085190E+02  0.78313782153E+02  0.41800000000E+01 0.  1.
         -5    1    3    3    0  502  0.22630228017E+02 -0.75731167431E+02 -0.92172886216E+02  0.12149341667E+03  0.41800000000E+01 0.  1.
        -11    1    1    2    0    0 -0.19346009225E+02  0.10989930501E-01  0.18586964011E+01  0.19435095730E+02  0.00000000000E+00 0. -1.
         11    1    1    2    0    0 -0.23946689960E+02  0.24600113183E+02 -0.58674194976E+02  0.67979928543E+02  0.00000000000E+00 0.  1.
</event>
<event>
 7    1  0.2873461E-009  0.7842007E+02  0.7561462E-02  0.1333596E+00
         -1   -1    0    0    0  501 -0.00000000000E+00  0.00000000000E+00  0.25775634769E+02  0.25775634769E+02  0.00000000000E+00 0.  1.
          1   -1    0    0  501    0  0.00000000000E+00 -0.00000000000E+00 -0.48311103578E+03  0.48311103578E+03  0.00000000000E+00 0. -1.
         25    2    1    2    0    0  0.16598957212E+02  0.29638018030E+01 -0.30659412329E+03  0.33155763471E+03  0.12508476805E+03 0.  0.
          5    1    3    3  502    0 -0.17730446023E+02  0.18293624865E+02 -0.34310825950E+01  0.26043620229E+02  0.41800000000E+01 0.  1.
         -5    1    3    3    0  502  0.34329403235E+02 -0.15329823062E+02 -0.30316304069E+03  0.30551401448E+03  0.41800000000E+01 0.  1.
        -11    1    1    2    0    0  0.29033225628E+02  0.26144102173E+02 -0.57523346073E+02  0.69536879512E+02  0.00000000000E+00 0. -1.
         11    1    1    2    0    0 -0.45632182840E+02 -0.29107903976E+02 -0.93217931647E+02  0.10779215633E+03  0.00000000000E+00 0.  1.
</event>
<event>
 7    1  0.2873461E-009  0.9440984E+02  0.7561462E-02  0.1292511E+00
         -1   -1    0    0    0  501 -0.00000000000E+00  0.00000000000E+00  0.10087953411E+03  0.10087953411E+03  0.00000000000E+00 0.  1.
          1   -1    0    0  501    0  0.00000000000E+00 -0.00000000000E+00 -0.14940533398E+03  0.14940533398E+03  0.00000000000E+00 0. -1.
         25    2    1    2    0    0  0.34151989288E+02 -0.23946517223E+02 -0.67842512508E+02  0.14829005004E+03  0.12509012102E+03 0.  0.
          5    1    3    3  502    0  0.76983972988E+00 -0.61609287841E+02  0.23713769376E+01  0.61801236476E+02  0.41800000000E+01 0. -1.
         -5    1    3    3    0  502  0.33382149558E+02  0.37662770618E+02 -0.70213889446E+02  0.86488813559E+02  0.41800000000E+01 0. -1.
        -11    1    1    2    0    0 -0.22497211426E+02  0.46231400067E+02 -0.20128840171E+02  0.55214464416E+02  0.00000000000E+00 0. -1.
         11    1    1    2    0    0 -0.11654777862E+02 -0.22284882844E+02  0.39445552811E+02  0.46780353643E+02  0.00000000000E+00 0.  1.
</event>
<event>
 7    1  0.2873461E-009  0.1273280E+03  0.7561462E-02  0.1231475E+00
          2   -1    0    0  501    0  0.00000000000E+00  0.00000000000E+00  0.10837745363E+04  0.10837745363E+04  0.00000000000E+00 0. -1.
         -2   -1    0    0    0  501 -0.00000000000E+00 -0.00000000000E+00 -0.15885630470E+02  0.15885630470E+02  0.00000000000E+00 0.  1.
         25    2    1    2    0    0  0.57380095206E+02 -0.39707832143E+02  0.46556507146E+03  0.48710171992E+03  0.12509221609E+03 0.  0.
          5    1    3    3  502    0 -0.34208045412E+02 -0.38299088935E+02  0.17164664608E+03  0.17921231569E+03  0.41800000000E+01 0. -1.
         -5    1    3    3    0  502  0.91588140618E+02 -0.14087432081E+01  0.29391842538E+03  0.30788940423E+03  0.41800000000E+01 0. -1.
        -11    1    1    2    0    0  0.86565030968E+00  0.51920481367E+02  0.27008568437E+03  0.27503229381E+03  0.00000000000E+00 0.  1.
         11    1    1    2    0    0 -0.58245745516E+02 -0.12212649224E+02  0.33223815001E+03  0.33752615305E+03  0.00000000000E+00 0. -1.
</event>
<event>
 7    1  0.2873461E-009  0.1513306E+03  0.7561462E-02  0.1198847E+00
         -3   -1    0    0    0  501 -0.00000000000E+00  0.00000000000E+00  0.90670312451E+02  0.90670312451E+02  0.00000000000E+00 0.  1.
          3   -1    0    0  501    0  0.00000000000E+00 -0.00000000000E+00 -0.30064486822E+03  0.30064486822E+03  0.00000000000E+00 0. -1.
         25    2    1    2    0    0 -0.29729375379E+02 -0.11779239782E+03 -0.14336724934E+03  0.22574388800E+03  0.12508896850E+03 0.  0.
          5    1    3    3  502    0 -0.51958433264E+02 -0.63426523250E+01 -0.15778629282E+02  0.54830151994E+02  0.41800000000E+01 0. -1.
         -5    1    3    3    0  502  0.22229057885E+02 -0.11144974550E+03 -0.12758862006E+03  0.17091373600E+03  0.41800000000E+01 0. -1.
        -11    1    1    2    0    0 -0.17299287282E+02  0.13234724452E+02  0.13576630069E+02  0.25666089609E+02  0.00000000000E+00 0.  1.
         11    1    1    2    0    0  0.47028662662E+02  0.10455767337E+03 -0.80183936491E+02  0.13990520306E+03  0.00000000000E+00 0. -1.
</event>
<event>
 7    1  0.2873461E-009  0.1548171E+03  0.7561462E-02  0.1194676E+00
          1   -1    0    0  501    0  0.00000000000E+00  0.00000000000E+00  0.39278794857E+02  0.39278794857E+02  0.00000000000E+00 0. -1.
         -1   -1    0    0    0  501 -0.00000000000E+00 -0.00000000000E+00 -0.71875532418E+03  0.71875532418E+03  0.00000000000E+00 0.  1.
         25    2    1    2    0    0  0.31137825946E+02  0.11913339232E+03 -0.28325212579E+03  0.33322944484E+03  0.12509103395E+03 0.  0.
          5    1    3    3  502    0  0.61039828885E+02  0.35221253919E+02 -0.19657729117E+03  0.20886957951E+03  0.41800000000E+01 0.  1.
         -5    1    3    3    0  502 -0.29902002939E+02  0.83912138402E+02 -0.86674834614E+02  0.12435986534E+03  0.41800000000E+01 0.  1.
        -11    1    1    2    0    0  0.25232942104E+02 -0.72282990825E+02 -0.24624322838E+03  0.25787062581E+03  0.00000000000E+00 0.  1.
         11    1    1    2    0    0 -0.56370768051E+02 -0.46850401496E+02 -0.14998117515E+03  0.16693404838E+03  0.00000000000E+00 0. -1.
</event>
<event>
 7    1  0.2873461E-009  0.1069051E+03  0.7561462E-02  0.1266411E+00
         -2   -1    0    0    0  501 -0.00000000000E+00  0.00000000000E+00  0.44236139916E+02  0.44236139916E+02  0.00000000000E+00 0.  1.
          2   -1    0    0  501    0  0.00000000000E+00 -0.00000000000E+00 -0.37450346135E+03  0.37450346135E+03  0.00000000000E+00 0. -1.
         25    2    1    2    0    0  0.10748628085E+02 -0.62518268645E+02 -0.19160959422E+03  0.23745771819E+03  0.12509142421E+03 0.  0.
          5    1    3    3  502    0  0.12439332417E+01  0.26726081524E+02 -0.14231701591E+01  0.27116943354E+02  0.41800000000E+01 0. -1.
         -5    1    3    3    0  502  0.95046948429E+01 -0.89244350169E+02 -0.19018642406E+03  0.21034077483E+03  0.41800000000E+01 0. -1.
        -11    1    1    2    0    0 -0.40027020066E+02  0.18688126398E+02 -0.14656243042E+02  0.46542602675E+02  0.00000000000E+00 0.  1.
         11    1    1    2    0    0  0.29278391982E+02  0.43830142247E+02 -0.12400148418E+03  0.13473928041E+03  0.00000000000E+00 0. -1.
</event>
<event>
 7    1  0.2873461E-009  0.1972112E+03  0.7561462E-02  0.1152114E+00
         -1   -1    0    0    0  501 -0.00000000000E+00  0.00000000000E+00  0.95508299098E+02  0.95508299098E+02  0.00000000000E+00 0.  1.
          1   -1    0    0  501    0  0.00000000000E+00 -0.00000000000E+00 -0.73343138149E+03  0.73343138149E+03  0.00000000000E+00 0. -1.
         25    2    1    2    0    0  0.15817290418E+03 -0.92770680291E+02 -0.56945556971E+03  0.61118893564E+03  0.12508877824E+03 0.  0.
          5    1    3    3  502    0  0.14056270457E+03 -0.65519770024E+02 -0.55342469861E+03  0.57475828277E+03  0.41800000000E+01 0.  1.
         -5    1    3    3    0  502  0.17610199607E+02 -0.27250910267E+02 -0.16030871099E+02  0.36430652873E+02  0.41800000000E+01 0.  1.
        -11    1    1    2    0    0  0.13188289748E+02  0.59374180956E+01 -0.28032654752E+01  0.14732352746E+02  0.00000000000E+00 0.  1.
         11    1    1    2    0    0 -0.17136119393E+03  0.86833262196E+02 -0.65664247203E+02  0.20301839219E+03  0.00000000000E+00 0. -1.
</event>
<event>
 7    1  0.2873461E-009  0.1362936E+03  0.7561462E-02  0.1218405E+00
          3   -1    0    0  501    0  0.00000000000E+00  0.00000000000E+00  0.26403294202E+02  0.26403294202E+02  0.00000000000E+00 0. -1.
         -3   -1    0    0    0  501 -0.00000000000E+00 -0.00000000000E+00 -0.71334424689E+03  0.71334424689E+03  0.00000000000E+00 0.  1.
         25    2    1    2    0    0 -0.19878129247E+02 -0.83963946837E+02 -0.37502659945E+03  0.40463936191E+03  0.12507189342E+03 0.  0.
          5    1    3    3  502    0  0.52191971815E+02 -0.23618317938E+02 -0.12787420964E+03  0.14018242670E+03  0.41800000000E+01 0. -1.
         -5    1    3    3    0  502 -0.72070101062E+02 -0.60345628899E+02 -0.24715238981E+03  0.26445693521E+03  0.41800000000E+01 0. -1.
        -11    1    1    2    0    0  0.53038767100E+02  0.60365679451E+02 -0.23013569074E+03  0.24376128122E+03  0.00000000000E+00 0.  1.
         11    1    1    2    0    0 -0.33160637852E+02  0.23598267385E+02 -0.81778662505E+02  0.91346897963E+02  0.00000000000E+00 0. -1.
</event>
<event>
 7    1  0.2873461E-009  0.1033536E+03  0.7561462E-02  0.1273398E+00
         -2   -1    0    0    0  501 -0.00000000000E+00  0.00000000000E+00  0.13938078849E+02  0.13938078849E+02  0.00000000000E+00 0.  1.
          2   -1    0    0  501    0  0.00000000000E+00 -0.00000000000E+00 -0.91554450701E+03  0.91554450701E+03  0.00000000000E+00 0. -1.
         25    2    1    2    0    0 -0.22111008781E+02  0.13131215555E+01 -0.60191816153E+03  0.61517794613E+03  0.12509121166E+03 0.  0.
          5    1    3    3  502    0  0.86990499736E+01 -0.58599022888E+02 -0.29663069912E+03  0.30251737639E+03  0.41800000000E+01 0.  1.
         -5    1    3    3    0  502 -0.30810058755E+02  0.59912144443E+02 -0.30528746241E+03  0.31266056975E+03  0.41800000000E+01 0.  1.
        -11    1    1    2    0    0 -0.36261323552E+01 -0.36247120007E+02 -0.56152767854E+02  0.66933817180E+02  0.00000000000E+00 0.  1.
         11    1    1    2    0    0  0.25737141136E+02  0.34933998451E+02 -0.24353549878E+03  0.24737082254E+03  0.00000000000E+00 0. -1.
</event>
<event>
 7    1  0.2873461E-009  0.1271631E+03  0.7561462E-02  0.1231727E+00
          1   -1    0    0  501    0  0.00000000000E+00  0.00000000000E+00  0.65892766852E+03  0.65892766852E+03  0.00000000000E+00 0. -1.
         -1   -1    0    0    0  501 -0.00000000000E+00 -0.00000000000E+00 -0.25622867664E+02  0.25622867664E+02  0.00000000000E+00 0.  1.
         25    2    1    2    0    0  0.57376171280E+02 -0.39950677912E+02  0.39269634008E+03  0.41802634253E+03  0.12509007092E+03 0.  0.
          5    1    3    3  502    0  0.51772988686E+02  0.36636035508E+02  0.21962101956E+03  0.22863400029E+03  0.41800000000E+01 0. -1.
         -5    1    3    3    0  502  0.56031825938E+01 -0.76586713421E+02  0.17307532052E+03  0.18939234224E+03  0.41800000000E+01 0. -1.
        -11    1    1    2    0    0 -0.34017490640E+02  0.68793132104E+02  0.14702181349E+03  0.16584661087E+03  0.00000000000E+00 0.  1.
         11    1    1    2    0    0 -0.23358680640E+02 -0.28842454191E+02  0.93586647292E+02  0.10067758279E+03  0.00000000000E+00 0. -1.
</event>
<event>
 7    1  0.2873461E-009  0.9329114E+02  0.7561462E-02  0.1295072E+00
          1   -1    0    0  501    0  0.00000000000E+00  0.00000000000E+00  0.16884928528E+03  0.16884928528E+03  0.00000000000E+00 0. -1.
         -1   -1    0    0    0  501 -0.00000000000E+00 -0.00000000000E+00 -0.12741302128E+03  0.12741302128E+03  0.00000000000E+00 0.  1.
         25    2    1    2    0    0 -0.33629410949E+02  0.39009291500E+02 -0.57867991210E+02  0.14713190212E+03  0.12508569107E+03 0.  0.
          5    1    3    3  502    0 -0.75576029441E+02  0.37664763109E+02 -0.61872159250E+02  0.10476644070E+03  0.41800000000E+01 0. -1.
         -5    1    3    3    0  502  0.41946618492E+02  0.13445283911E+01  0.40041680404E+01  0.42365461419E+02  0.41800000000E+01 0. -1.
        -11    1    1    2    0    0  0.12582653580E+02  0.29462088662E+01 -0.18358435563E+02  0.22450734378E+02  0.00000000000E+00 0.  1.
         11    1    1    2    0    0  0.21046757369E+02 -0.41955500366E+02  0.11766269078E+03  0.12667967007E+03  0.00000000000E+00 0. -1.
</event>
<event>
 7    1  0.2873461E-009  0.1219554E+03  0.7561462E-02  0.1239906E+00
          2   -1    0    0  501    0  0.00000000000E+00  0.00000000000E+00  0.37293084183E+03  0.37293084183E+03  0.00000000000E+00 0. -1.
         -2   -1    0    0    0  501 -0.00000000000E+00 -0.00000000000E+00 -0.93809827077E+02  0.93809827077E+02  0.00000000000E+00 0.  1.
         25    2    1    2    0    0 -0.41994334486E+02  0.10529331839E+03  0.20319619934E+02  0.17002889202E+03  0.12508689036E+03 0.  0.
          5    1    3    3  502    0 -0.74079916947E+01  0.85102986205E+01  0.58939863509E+02  0.60155493797E+02  0.41800000000E+01 0. -1.
         -5    1    3    3    0  502 -0.34586342791E+02  0.96783019770E+02 -0.38620243574E+02  0.10987339822E+03  0.41800000000E+01 0. -1.
        -11    1    1    2    0    0  0.57327183248E+02 -0.69604624621E+02  0.10655928408E+03  0.13959258838E+03  0.00000000000E+00 0.  1.
         11    1    1    2    0    0 -0.15332848762E+02 -0.35688693769E+02  0.15224211074E+03  0.15711918851E+03  0.00000000000E+00 0. -1.
</event>
<event>
 7    1  0.2873461E-009  0.8593076E+02  0.7561462E-02  0.1313016E+00
          1   -1    0    0  501    0  0.00000000000E+00  0.00000000000E+00  0.29711841322E+03  0.29711841322E+03  0.00000000000E+00 0. -1.
         -1   -1    0    0    0  501 -0.00000000000E+00 -0.00000000000E+00 -0.42890265409E+02  0.42890265409E+02  0.00000000000E+00 0.  1.
         25    2    1    2    0    0  0.95938812924E+01  0.92343013711E+01  0.18653942595E+03  0.22499347145E+03  0.12509112630E+03 0.  0.
          5    1    3    3  502    0  0.50520074741E+02 -0.37687868938E+02  0.10059920847E+03  0.11878689558E+03  0.41800000000E+01 0.  1.
         -5    1    3    3    0  502 -0.40926193449E+02  0.46922170309E+02  0.85940217481E+02  0.10620657587E+03  0.41800000000E+01 0.  1.
        -11    1    1    2    0    0 -0.16651415945E+02 -0.24413548385E+02  0.85565265850E+02  0.90524613878E+02  0.00000000000E+00 0. -1.
         11    1    1    2    0    0  0.70575346521E+01  0.15179247014E+02 -0.17876543990E+02  0.24490593302E+02  0.00000000000E+00 0.  1.
</event>
<event>
 7    1  0.2873461E-009  0.9375819E+02  0.7561462E-02  0.1293998E+00
          1   -1    0    0  501    0  0.00000000000E+00  0.00000000000E+00  0.33081259014E+03  0.33081259014E+03  0.00000000000E+00 0. -1.
         -1   -1    0    0    0  501 -0.00000000000E+00 -0.00000000000E+00 -0.48995983008E+02  0.48995983008E+02  0.00000000000E+00 0.  1.
         25    2    1    2    0    0  0.15191501737E+02  0.30664132981E+02  0.24453581293E+03  0.27679655458E+03  0.12508995982E+03 0.  0.
          5    1    3    3  502    0 -0.34681433040E+02  0.53515623595E+02  0.74886099164E+02  0.98448585639E+02  0.41800000000E+01 0. -1.
         -5    1    3    3    0  502  0.49872934777E+02 -0.22851490613E+02  0.16964971376E+03  0.17834796894E+03  0.41800000000E+01 0. -1.
        -11    1    1    2    0    0 -0.33260982039E+02 -0.30651266048E+00  0.54393187989E+02  0.63757397813E+02  0.00000000000E+00 0. -1.
         11    1    1    2    0    0  0.18069480302E+02 -0.30357620321E+02 -0.17112393779E+02  0.39254620757E+02  0.00000000000E+00 0.  1.
</event>
<event>
 7    1  0.2873461E-009  0.1214362E+03  0.7561462E-02  0.1240746E+00
          1   -1    0    0  501    0  0.00000000000E+00  0.00000000000E+00  0.29060435717E+02  0.29060435717E+02  0.00000000000E+00 0. -1.
         -1   -1    0    0    0  501 -0.00000000000E+00 -0.00000000000E+00 -0.71417949381E+03  0.71417949381E+03  0.00000000000E+00 0.  1.
         25    2    1    2    0    0  0.51889388964E+02 -0.38753253647E+02 -0.19470001557E+03  0.24031135913E+03  0.12508848832E+03 0.  0.
          5    1    3    3  502    0  0.88384191618E+02 -0.35536514093E+02 -0.97607505967E+02  0.13645258071E+03  0.41800000000E+01 0. -1.
         -5    1    3    3    0  502 -0.36494802654E+02 -0.32167395547E+01 -0.97092509600E+02  0.10385877842E+03  0.41800000000E+01 0. -1.
        -11    1    1    2    0    0 -0.66073926430E+02 -0.34089364464E+01 -0.26254484114E+03  0.27075298375E+03  0.00000000000E+00 0. -1.
         11    1    1    2    0    0  0.14184537466E+02  0.42162190094E+02 -0.22787420139E+03  0.23217558664E+03  0.00000000000E+00 0.  1.
</event>
<event>
 7    1  0.2873461E-009  0.1372511E+03  0.7561462E-02  0.1217076E+00
          1   -1    0    0  501    0  0.00000000000E+00  0.00000000000E+00  0.12558642770E+04  0.12558642770E+04  0.00000000000E+00 0. -1.
         -1   -1    0    0    0  501 -0.00000000000E+00 -0.00000000000E+00 -0.24675451064E+02  0.24675451064E+02  0.00000000000E+00 0.  1.
         25    2    1    2    0    0 -0.86473750487E+02  0.69404116850E+01  0.98840823610E+03  0.10000620872E+04  0.12508980108E+03 0.  0.
          5    1    3    3  502    0  0.10900251716E+02 -0.35749499597E+02  0.42749004254E+03  0.42914106198E+03  0.41800000000E+01 0.  1.
         -5    1    3    3    0  502 -0.97374002203E+02  0.42689911282E+02  0.56091819356E+03  0.57092102527E+03  0.41800000000E+01 0.  1.
        -11    1    1    2    0    0  0.88325916926E+02 -0.40296834768E+02  0.21874700816E+03  0.23932312064E+03  0.00000000000E+00 0. -1.
         11    1    1    2    0    0 -0.18521664385E+01  0.33356423083E+02  0.24033581650E+02  0.41154520144E+02  0.00000000000E+00 0.  1.
</event>
<event>
 7    1  0.2873461E-009  0.1642211E+03  0.7561462E-02  0.1184012E+00
         -2   -1    0    0    0  501 -0.00000000000E+00  0.00000000000E+00  0.43359176186E+02  0.43359176186E+02  0.00000000000E+00 0.  1.
          2   -1    0    0  501    0  0.00000000000E+00 -0.00000000000E+00 -0.92255682627E+03  0.92255682627E+03  0.00000000000E+00 0. -1.
         25    2    1    2    0    0  0.16132919902E+02 -0.12491242723E+03 -0.72542483184E+03  0.74682839066E+03  0.12509225737E+03 0.  0.
          5    1    3    3  502    0  0.14296582926E+02 -0.14900518877E+03 -0.66428346815E+03  0.68095296241E+03  0.41800000000E+01 0.  1.
         -5    1    3    3    0  502  0.18363369761E+01  0.24092761534E+02 -0.61141363692E+02  0.65875428241E+02  0.41800000000E+01 0.  1.
        -11    1    1    2    0    0  0.28579073977E+02  0.90427019477E+01 -0.44547847674E+02  0.53693990914E+02  0.00000000000E+00 0. -1.
         11    1    1    2    0    0 -0.44711993878E+02  0.11586972528E+03 -0.10922497056E+03  0.16539362088E+03  0.00000000000E+00 0.  1.
</event>
<event>
 7    1  0.2873461E-009  0.1244765E+03  0.7561462E-02  0.1235890E+00
         -4   -1    0    0    0  501 -0.00000000000E+00  0.00000000000E+00  0.17607299609E+03  0.17607299609E+03  0.00000000000E+00 0.  1.
          4   -1    0    0  501    0  0.00000000000E+00 -0.00000000000E+00 -0.13633642299E+03  0.13633642299E+03  0.00000000000E+00 0. -1.
         25    2    1    2    0    0  0.74701394295E+02  0.28212563030E+02  0.95202694234E+02  0.17631622570E+03  0.12509041304E+03 0.  0.
          5    1    3    3  502    0  0.41848483269E+02 -0.34342914616E+02 -0.40072511453E+01  0.54445034650E+02  0.41800000000E+01 0.  1.
         -5    1    3    3    0  502  0.32852911025E+02  0.62555477646E+02  0.99209945379E+02  0.12187119105E+03  0.41800000000E+01 0.  1.
        -11    1    1    2    0    0 -0.77894512737E+02  0.16021618313E+02 -0.40808608846E+02  0.89384506062E+02  0.00000000000E+00 0.  1.
         11    1    1    2    0    0  0.31931184427E+01 -0.44234181344E+02 -0.14657512286E+02  0.46708687318E+02  0.00000000000E+00 0. -1.
</event>
<event>
 7    1  0.2873461E-009  0.2034483E+03  0.7561462E-02  0.1146862E+00
         -3   -1    0    0    0  501 -0.00000000000E+00  0.00000000000E+00  0.66638160707E+02  0.66638160707E+02  0.00000000000E+00 0.  1.
          3   -1    0    0  501    0  0.00000000000E+00 -0.00000000000E+00 -0.70520597994E+03  0.70520597994E+03  0.00000000000E+00 0. -1.
         25    2    1    2    0    0  0.14985210409E+02  0.17482908663E+03 -0.43119087775E+03  0.48204008908E+03  0.12508920160E+03 0.  0.
          5    1    3    3  502    0  0.67267823977E+02  0.12130573195E+03 -0.30848491898E+03  0.33826093240E+03  0.41800000000E+01 0. -1.
         -5    1    3    3    0  502 -0.52282613568E+02  0.53523354687E+02 -0.12270595876E+03  0.14377915668E+03  0.41800000000E+01 0. -1.
        -11    1    1    2    0    0  0.33590986738E+02 -0.73966855990E+02 -0.13147783376E+03  0.15455054495E+03  0.00000000000E+00 0. -1.
         11    1    1    2    0    0 -0.48576197147E+02 -0.10086223064E+03 -0.75899107729E+02  0.13525350662E+03  0.00000000000E+00 0.  1.
</event>
<event>
 7    1  0.2873461E-009  0.1007333E+03  0.7561462E-02  0.1278761E+00
          4   -1    0    0  501    0  0.00000000000E+00  0.00000000000E+00  0.45988472805E+02  0.45988472805E+02  0.00000000000E+00 0. -1.
         -4   -1    0    0    0  501 -0.00000000000E+00 -0.00000000000E+00 -0.29380095280E+03  0.29380095280E+03  0.00000000000E+00 0.  1.
         25    2    1    2    0    0 -0.11387770098E+02 -0.18473550611E+02 -0.19540315279E+03  0.23302543363E+03  0.12508999646E+03 0.  0.
          5    1    3    3  502    0 -0.59525177746E+02 -0.20286752180E+02 -0.16315612059E+03  0.17490623541E+03  0.41800000000E+01 0.  1.
         -5    1    3    3    0  502  0.48137407648E+02  0.18132015688E+01 -0.32247032200E+02  0.58119198211E+02  0.41800000000E+01 0.  1.
        -11    1    1    2    0    0  0.29648234679E+02  0.47383131826E+02 -0.45045601875E+02  0.71786386241E+02  0.00000000000E+00 0.  1.
         11    1    1    2    0    0 -0.18260464581E+02 -0.28909581215E+02 -0.73637253310E+01  0.34977605743E+02  0.00000000000E+00 0. -1.
</event>
<event>
 7    1  0.2873461E-009  0.9565888E+02  0.7561462E-02  0.1289699E+00
          1   -1    0    0  501    0  0.00000000000E+00  0.00000000000E+00  0.65728293106E+02  0.65728293106E+02  0.00000000000E+00 0. -1.
         -1   -1    0    0    0  501 -0.00000000000E+00 -0.00000000000E+00 -0.20112838381E+03  0.20112838381E+03  0.00000000000E+00 0.  1.
         25    2    1    2    0    0 -0.15589687043E+02  0.29756129890E+02 -0.56981426391E+02  0.14150690523E+03  0.12509538627E+03 0.  0.
          5    1    3    3  502    0 -0.61515446558E+02  0.12370101777E+02  0.41031506516E+01  0.63019662237E+02  0.41800000000E+01 0.  1.
         -5    1    3    3    0  502  0.45925759515E+02  0.17386028113E+02 -0.61084577042E+02  0.78487242996E+02  0.41800000000E+01 0.  1.
        -11    1    1    2    0    0 -0.10784010284E+02  0.20063367904E+02 -0.62878608938E+02  0.66877149098E+02  0.00000000000E+00 0.  1.
         11    1    1    2    0    0  0.26373697327E+02 -0.49819497794E+02 -0.15540055378E+02  0.58472622588E+02  0.00000000000E+00 0. -1.
</event>
<event>
 7    1  0.2873461E-009  0.9303825E+02  0.7561462E-02  0.1295657E+00
         -2   -1    0    0    0  501 -0.00000000000E+00  0.00000000000E+00  0.14754462526E+03  0.14754462526E+03  0.00000000000E+00 0.  1.
          2   -1    0    0  501    0  0.00000000000E+00 -0.00000000000E+00 -0.17713292709E+03  0.17713292709E+03  0.00000000000E+00 0. -1.
         25    2    1    2    0    0  0.13792259420E+01  0.29050296687E+02  0.10643036509E+03  0.16679245636E+03  0.12508588603E+03 0.  0.
          5    1    3    3  502    0 -0.15409290752E+02 -0.44024802688E+02  0.67642279904E+02  0.82271379736E+02  0.41800000000E+01 0. -1.
         -5    1    3    3    0  502  0.16788516694E+02  0.73075099374E+02  0.38788085183E+02  0.84521076623E+02  0.41800000000E+01 0. -1.
        -11    1    1    2    0    0 -0.82337101750E+01  0.16312631575E+02 -0.48221511541E+01  0.18898388130E+02  0.00000000000E+00 0.  1.
         11    1    1    2    0    0  0.68544842329E+01 -0.45362928262E+02 -0.13119651576E+03  0.13898670786E+03  0.00000000000E+00 0. -1.
</event>
<event>
 7    1  0.2873461E-009  0.1365562E+03  0.7561462E-02  0.1218039E+00
          1   -1    0    0  501    0  0.00000000000E+00  0.00000000000E+00  0.75942869763E+03  0.75942869763E+03  0.00000000000E+00 0. -1.
         -1   -1    0    0    0  501 -0.00000000000E+00 -0.00000000000E+00 -0.27560987144E+02  0.27560987144E+02  0.00000000000E+00 0.  1.
         25    2    1    2    0    0 -0.44202287260E+02  0.78063411640E+02  0.50394068292E+03  0.52692629173E+03  0.12508943436E+03 0.  0.
          5    1    3    3  502    0 -0.76263424237E+02  0.15317490775E+02  0.19412834681E+03  0.20917462282E+03  0.41800000000E+01 0.  1.
         -5    1    3    3    0  502  0.32061136977E+02  0.62745920865E+02  0.30981233611E+03  0.31775166891E+03  0.41800000000E+01 0.  1.
        -11    1    1    2    0    0  0.64835629797E+02 -0.28275023239E+02  0.14182612285E+03  0.15848591405E+03  0.00000000000E+00 0. -1.
         11    1    1    2    0    0 -0.20633342537E+02 -0.49788388401E+02  0.86100904719E+02  0.10157747899E+03  0.00000000000E+00 0.  1.
</event>
<event>
 7    1  0.2873461E-009  0.1235362E+03  0.7561462E-02  0.1237375E+00
          2   -1    0    0  501    0  0.00000000000E+00  0.00000000000E+00  0.15291093501E+03  0.15291093501E+03  0.00000000000E+00 0. -1.
         -2   -1    0    0    0  501 -0.00000000000E+00 -0.00000000000E+00 -0.13494015673E+03  0.13494015673E+03  0.00000000000E+00 0.  1.
         25    2    1    2    0    0 -0.20109280093E+02 -0.84958173302E+02  0.43311581878E+02  0.15857386647E+03  0.12508998219E+03 0.  0.
          5    1    3    3  502    0 -0.68703208763E+02 -0.69348728784E+02  0.11733075657E+02  0.98409931119E+02  0.41800000000E+01 0. -1.
         -5    1    3    3    0  502  0.48593928670E+02 -0.15609444518E+02  0.31578506221E+02  0.60163935351E+02  0.41800000000E+01 0. -1.
        -11    1    1    2    0    0  0.19359812763E+02  0.76090514519E+01 -0.44904772272E+02  0.49488772333E+02  0.00000000000E+00 0.  1.
         11    1    1    2    0    0  0.74946732982E+00  0.77349121851E+02  0.19563968671E+02  0.79788452940E+02  0.00000000000E+00 0. -1.
</event>
<event>
 7    1  0.2873461E-009  0.2344444E+03  0.7561462E-02  0.1123550E+00
          1   -1    0    0  501    0  0.00000000000E+00  0.00000000000E+00  0.64062289340E+03  0.64062289340E+03  0.00000000000E+00 0. -1.
         -1   -1    0    0    0  501 -0.00000000000E+00 -0.00000000000E+00 -0.11552726107E+03  0.11552726107E+03  0.00000000000E+00 0.  1.
         25    2    1    2    0    0 -0.18305883604E+03  0.12504541937E+03  0.42680976207E+03  0.49695092850E+03  0.12508700165E+03 0.  0.
          5    1    3    3  502    0 -0.14922261988E+03  0.43191813589E+02  0.19898159025E+03  0.25247587747E+03  0.41800000000E+01 0.  1.
         -5    1    3    3    0  502 -0.33836216167E+02  0.81853605778E+02  0.22782817182E+03  0.24447505104E+03  0.41800000000E+01 0.  1.
        -11    1    1    2    0    0  0.77611812889E+02 -0.31176425059E+02 -0.57414733226E+01  0.83836313703E+02  0.00000000000E+00 0.  1.
         11    1    1    2    0    0  0.10544702316E+03 -0.93868994308E+02  0.10402734359E+03  0.17536291227E+03  0.00000000000E+00 0. -1.
</event>
<event>
 7    1  0.2873461E-009  0.1095064E+03  0.7561462E-02  0.1261487E+00
          2   -1    0    0  501    0  0.00000000000E+00  0.00000000000E+00  0.60494152038E+03  0.60494152038E+03  0.00000000000E+00 0. -1.
         -2   -1    0    0    0  501 -0.00000000000E+00 -0.00000000000E+00 -0.41361106156E+02  0.41361106156E+02  0.00000000000E+00 0.  1.
         25    2    1    2    0    0  0.77632973886E+01  0.91358216437E+02  0.16162845553E+03  0.22400491886E+03  0.12509138077E+03 0.  0.
          5    1    3    3  502    0  0.15137467013E+02  0.79415975971E+02  0.18183970610E+03  0.19904570144E+03  0.41800000000E+01 0. -1.
         -5    1    3    3    0  502 -0.73741696240E+01  0.11942240466E+02 -0.20211250570E+02  0.24959217427E+02  0.41800000000E+01 0. -1.
        -11    1    1    2    0    0  0.18610761496E+02  0.82618632420E+01  0.29450178518E+02  0.35804075780E+02  0.00000000000E+00 0.  1.
         11    1    1    2    0    0 -0.26374058885E+02 -0.99620079679E+02  0.37250178018E+03  0.38649363189E+03  0.00000000000E+00 0. -1.
</event>
<event>
 7    1  0.2873461E-009  0.1077207E+03  0.7561462E-02  0.1264850E+00
          1   -1    0    0  501    0  0.00000000000E+00  0.00000000000E+00  0.78033361409E+02  0.78033361409E+02  0.00000000000E+00 0. -1.
         -1   -1    0    0    0  501 -0.00000000000E+00 -0.00000000000E+00 -0.19130532919E+03  0.19130532919E+03  0.00000000000E+00 0.  1.
         25    2    1    2    0    0 -0.52403309716E+02 -0.22517181737E+02 -0.63490610559E+02  0.15144365267E+03  0.12510392465E+03 0.  0.
          5    1    3    3  502    0 -0.87907913249E+02 -0.11222474314E+01 -0.18146894366E+02  0.89865693266E+02  0.41800000000E+01 0.  1.
         -5    1    3    3    0  502  0.35504603533E+02 -0.21394934306E+02 -0.45343716193E+02  0.61577959402E+02  0.41800000000E+01 0.  1.
        -11    1    1    2    0    0  0.58612121247E+02 -0.37897624051E+01 -0.64403341474E+02  0.87163831084E+02  0.00000000000E+00 0.  1.
         11    1    1    2    0    0 -0.62088115314E+01  0.26306944142E+02  0.14621984252E+02  0.30731206846E+02  0.00000000000E+00 0. -1.
</event>
<event>
 7    1  0.2873461E-009  0.1081492E+03  0.7561462E-02  0.1264036E+00
         -1   -1    0    0    0  501 -0.00000000000E+00  0.00000000000E+00  0.30349052393E+03  0.30349052393E+03  0.00000000000E+00 0.  1.
          1   -1    0    0  501    0  0.00000000000E+00 -0.00000000000E+00 -0.56850965867E+02  0.56850965867E+02  0.00000000000E+00 0. -1.
         25    2    1    2    0    0 -0.18108491494E+01  0.56041564073E+02  0.70991915750E+02  0.15437658984E+03  0.12509333840E+03 0.  0.
          5    1    3    3  502    0 -0.56510163295E+02  0.48475339562E+02  0.15868508181E+02  0.76240009530E+02  0.41800000000E+01 0.  1.
         -5    1    3    3    0  502  0.54699314145E+02  0.75662245105E+01  0.55123407568E+02  0.78136580315E+02  0.41800000000E+01 0.  1.
        -11    1    1    2    0    0 -0.31471138463E+02 -0.19982351768E+02  0.14112778452E+03  0.14596841611E+03  0.00000000000E+00 0.  1.
         11    1    1    2    0    0  0.33281987612E+02 -0.36059212305E+02  0.34519857799E+02  0.59996483846E+02  0.00000000000E+00 0. -1.
</event>
<event>
 7    1  0.2873461E-009  0.7446010E+02  0.7561462E-02  0.1345551E+00
          4   -1    0    0  501    0  0.00000000000E+00  0.00000000000E+00  0.11660973782E+03  0.11660973782E+03  0.00000000000E+00 0.  1.
         -4   -1    0    0    0  501 -0.00000000000E+00 -0.00000000000E+00 -0.12526141164E+03  0.12526141164E+03  0.00000000000E+00 0. -1.
         25    2    1    2    0    0 -0.22783326371E+02  0.17619513273E+02 -0.60218116805E+02  0.14178759325E+03  0.12509185744E+03 0.  0.
          5    1    3    3  502    0  0.32113885476E+02  0.11409342849E+02 -0.76656620709E+02  0.83995146545E+02  0.41800000000E+01 0.  1.
         -5    1    3    3    0  502 -0.54897211848E+02  0.62101704245E+01  0.16438503904E+02  0.57792446703E+02  0.41800000000E+01 0.  1.
        -11    1    1    2    0    0  0.32906669024E+02  0.60294869829E+01  0.63463285675E+02  0.71741147246E+02  0.00000000000E+00 0.  1.
         11    1    1    2    0    0 -0.10123342653E+02 -0.23649000256E+02 -0.11896842690E+02  0.28342408958E+02  0.00000000000E+00 0. -1.
</event>
<event>
 7    1  0.2873461E-009  0.1280996E+03  0.7561462E-02  0.1230303E+00
          2   -1    0    0  501    0  0.00000000000E+00  0.00000000000E+00  0.30982558383E+03  0.30982558383E+03  0.00000000000E+00 0.  1.
         -2   -1    0    0    0  501 -0.00000000000E+00 -0.00000000000E+00 -0.88407298319E+02  0.88407298319E+02  0.00000000000E+00 0. -1.
         25    2    1    2    0    0 -0.45310214071E+02  0.88357340254E+02  0.10972793672E+03  0.19376000792E+03  0.12507072198E+03 0.  0.
          5    1    3    3  502    0  0.25883109691E+02 -0.14883008465E+02  0.40384683820E+02  0.50396769693E+02  0.41800000000E+01 0. -1.
         -5    1    3    3    0  502 -0.71193323761E+02  0.10324034872E+03  0.69343252900E+02  0.14336323823E+03  0.41800000000E+01 0. -1.
        -11    1    1    2    0    0  0.16074786945E+02 -0.48841282983E+02 -0.26467709034E+02  0.57830868230E+02  0.00000000000E+00 0. -1.
         11    1    1    2    0    0  0.29235427126E+02 -0.39516057271E+02  0.13815805783E+03  0.14664200600E+03  0.00000000000E+00 0.  1.
</event>
<event>
 7    1  0.2873461E-009  0.1106300E+03  0.7561462E-02  0.1259408E+00
          1   -1    0    0  501    0  0.00000000000E+00  0.00000000000E+00  0.13042031133E+04  0.13042031133E+04  0.00000000000E+00 0. -1.
         -1   -1    0    0    0  501 -0.00000000000E+00 -0.00000000000E+00 -0.25473252783E+02  0.25473252783E+02  0.00000000000E+00 0.  1.
         25    2    1    2    0    0  0.59234756033E+02 -0.62390317668E+02  0.11067024008E+04  0.11170667342E+04  0.12508627678E+03 0.  0.
          5    1    3    3  502    0  0.25862281515E+02  0.28237625130E+02  0.59939831683E+03  0.60063469405E+03  0.41800000000E+01 0.  1.
         -5    1    3    3    0  502  0.33372474517E+02 -0.90627942798E+02  0.50730408400E+03  0.51643204017E+03  0.41800000000E+01 0.  1.
        -11    1    1    2    0    0 -0.21390221105E+02  0.20656544886E+02  0.14868234166E+03  0.15162675597E+03  0.00000000000E+00 0. -1.
         11    1    1    2    0    0 -0.37844534927E+02  0.41733772782E+02  0.23345118008E+02  0.60982875869E+02  0.00000000000E+00 0.  1.
</event>
<event>
 7    1  0.2873461E-009  0.1262616E+03  0.7561462E-02  0.1233111E+00
          1   -1    0    0  501    0  0.00000000000E+00  0.00000000000E+00  0.86912526006E+02  0.86912526006E+02  0.00000000000E+00 0. -1.
         -1   -1    0    0    0  501 -0.00000000000E+00 -0.00000000000E+00 -0.30847501187E+03  0.30847501187E+03  0.00000000000E+00 0.  1.
         25    2    1    2    0    0 -0.58126721181E+02 -0.90924048002E+02 -0.49639183993E+02  0.17250206905E+03  0.12508803707E+03 0.  0.
          5    1    3    3  502    0 -0.37585137407E+02 -0.14267664976E+02 -0.78221838358E+02  0.88047357791E+02  0.41800000000E+01 0.  1.
         -5    1    3    3    0  502 -0.20541583774E+02 -0.76656383026E+02  0.28582654365E+02  0.84454711255E+02  0.41800000000E+01 0.  1.
        -11    1    1    2    0    0 -0.69049785589E+01  0.60401934171E+02 -0.11909176928E+03  0.13371208581E+03  0.00000000000E+00 0.  1.
         11    1    1    2    0    0  0.65031699740E+02  0.30522113831E+02 -0.52831532586E+02  0.89173383019E+02  0.00000000000E+00 0. -1.
</event>
<event>
 7    1  0.2873461E-009  0.1316885E+03  0.7561462E-02  0.1224972E+00
          2   -1    0    0  501    0  0.00000000000E+00  0.00000000000E+00  0.46149728037E+03  0.46149728037E+03  0.00000000000E+00 0. -1.
         -2   -1    0    0    0  501 -0.00000000000E+00 -0.00000000000E+00 -0.39656712173E+02  0.39656712173E+02  0.00000000000E+00 0.  1.
         25    2    1    2    0    0  0.10224676564E+01  0.79416657603E+02  0.21009692712E+03  0.25709193268E+03  0.12508993613E+03 0.  0.
          5    1    3    3  502    0  0.35627773753E+02  0.10028876813E+03  0.13784746613E+03  0.17420267390E+03  0.41800000000E+01 0. -1.
         -5    1    3    3    0  502 -0.34605306097E+02 -0.20872110530E+02  0.72249460990E+02  0.82889258782E+02  0.41800000000E+01 0. -1.
        -11    1    1    2    0    0 -0.15456794821E+02 -0.94268419064E+02  0.19602353167E+03  0.21806116643E+03  0.00000000000E+00 0. -1.
         11    1    1    2    0    0  0.14434327165E+02  0.14851761460E+02  0.15720109413E+02  0.26000893430E+02  0.00000000000E+00 0.  1.
</event>
<event>
 7    1  0.2873461E-009  0.9863818E+02  0.7561462E-02  0.1283186E+00
         -2   -1    0    0    0  501 -0.00000000000E+00  0.00000000000E+00  0.25050126625E+02  0.25050126625E+02  0.00000000000E+00 0.  1.
          2   -1    0    0  501    0  0.00000000000E+00 -0.00000000000E+00 -0.54351618253E+03  0.54351618253E+03  0.00000000000E+00 0. -1.
         25    2    1    2    0    0  0.51302870745E+02  0.29148117551E+02 -0.37563836363E+03  0.40029183347E+03  0.12509106447E+03 0.  0.
          5    1    3    3  502    0  0.53000234503E+02  0.66178385296E+02 -0.33294748403E+03  0.34359875299E+03  0.41800000000E+01 0. -1.
         -5    1    3    3    0  502 -0.16973637589E+01 -0.37030267745E+02 -0.42690879599E+02  0.56693080477E+02  0.41800000000E+01 0. -1.
        -11    1    1    2    0    0 -0.29879423315E+02 -0.40897668292E+02 -0.46031201810E+02  0.68441732514E+02  0.00000000000E+00 0.  1.
         11    1    1    2    0    0 -0.21423447430E+02  0.11749550741E+02 -0.96796490464E+02  0.99832743168E+02  0.00000000000E+00 0. -1.
</event>
<event>
 7    1  0.2873461E-009  0.1114542E+03  0.7561462E-02  0.1257900E+00
         -2   -1    0    0    0  501 -0.00000000000E+00  0.00000000000E+00  0.49399306110E+02  0.49399306110E+02  0.00000000000E+00 0.  1.
          2   -1    0    0  501    0  0.00000000000E+00 -0.00000000000E+00 -0.27215801456E+03  0.27215801456E+03  0.00000000000E+00 0. -1.
         25    2    1    2    0    0 -0.42928685788E+02 -0.58754267947E+01 -0.12863795512E+03  0.18458801368E+03  0.12509044165E+03 0.  0.
          5    1    3    3  502    0  0.13654140256E+02 -0.49755819852E+02 -0.22397363342E+02  0.56402051735E+02  0.41800000000E+01 0. -1.
         -5    1    3    3    0  502 -0.56582826044E+02  0.43880393057E+02 -0.10624059178E+03  0.12818596194E+03  0.41800000000E+01 0. -1.
        -11    1    1    2    0    0  0.33994225514E+02  0.46624390922E+02 -0.57486005265E+02  0.81449874147E+02  0.00000000000E+00 0.  1.
         11    1    1    2    0    0  0.89344602736E+01 -0.40748964127E+02 -0.36634748067E+02  0.55519432847E+02  0.00000000000E+00 0. -1.
</event>
<event>
 7    1  0.2873461E-009  0.1315113E+03  0.7561462E-02  0.1225230E+00
          2   -1    0    0  501    0  0.00000000000E+00  0.00000000000E+00  0.51858634699E+03  0.51858634699E+03  0.00000000000E+00 0. -1.
         -2   -1    0    0    0  501 -0.00000000000E+00 -0.00000000000E+00 -0.41968053515E+02  0.41968053515E+02  0.00000000000E+00 0.  1.
         25    2    1    2    0    0  0.51556047527E+02  0.83780939451E+02  0.23266048187E+03  0.28187536769E+03  0.12508217792E+03 0.  0.
          5    1    3    3  502    0  0.65495438424E+02  0.97920771401E+02  0.12304830424E+03  0.17040096098E+03  0.41800000000E+01 0.  1.
         -5    1    3    3    0  502 -0.13939390897E+02 -0.14139831950E+02  0.10961217764E+03  0.11147440671E+03  0.41800000000E+01 0.  1.
        -11    1    1    2    0    0 -0.66338525825E+02 -0.37361622031E+02  0.93765746678E+02  0.12078371604E+03  0.00000000000E+00 0.  1.
         11    1    1    2    0    0  0.14782478298E+02 -0.46419317420E+02  0.15019206492E+03  0.15789531677E+03  0.00000000000E+00 0. -1.
</event>
<event>
 7    1  0.2873461E-009  0.1314059E+03  0.7561462E-02  0.1225384E+00
          3   -1    0    0  501    0  0.00000000000E+00  0.00000000000E+00  0.13588198676E+03  0.13588198676E+03  0.00000000000E+00 0. -1.
         -3   -1    0    0    0  501 -0.00000000000E+00 -0.00000000000E+00 -0.20207489993E+03  0.20207489993E+03  0.00000000000E+00 0.  1.
         25    2    1    2    0    0  0.70156454424E+02  0.91981683038E+02  0.12386926701E+02  0.17083302768E+03  0.12509168351E+03 0.  0.
          5    1    3    3  502    0 -0.46044382129E+01  0.57666516959E+02 -0.42455686591E+02  0.71878966001E+02  0.41800000000E+01 0. -1.
         -5    1    3    3    0  502  0.74760892637E+02  0.34315166079E+02  0.54842613291E+02  0.98954061682E+02  0.41800000000E+01 0. -1.
        -11    1    1    2    0    0 -0.33940971793E+02 -0.14483223125E+02  0.15449454213E+02  0.40005486546E+02  0.00000000000E+00 0. -1.
         11    1    1    2    0    0 -0.36215482631E+02 -0.77498459913E+02 -0.94029294083E+02  0.12711837246E+03  0.00000000000E+00 0.  1.
</event>
<event>
 7    1  0.2873461E-009  0.1107840E+03  0.7561462E-02  0.1259125E+00
          2   -1    0    0  501    0  0.00000000000E+00  0.00000000000E+00  0.27545610163E+03  0.27545610163E+03  0.00000000000E+00 0. -1.
         -2   -1    0    0    0  501 -0.00000000000E+00 -0.00000000000E+00 -0.53472619649E+02  0.53472619649E+02  0.00000000000E+00 0.  1.
         25    2    1    2    0    0 -0.48238548293E+02  0.58106483674E+01  0.16148936523E+03  0.20995130234E+03  0.12506003797E+03 0.  0.
          5    1    3    3  502    0 -0.13380264105E+02  0.62042731999E+02  0.10544258821E+03  0.12314196632E+03  0.41800000000E+01 0. -1.
         -5    1    3    3    0  502 -0.34858284188E+02 -0.56232083631E+02  0.56046777024E+02  0.86809336023E+02  0.41800000000E+01 0. -1.
        -11    1    1    2    0    0 -0.21620895924E+02 -0.17683065798E+01 -0.59363666713E+01  0.22490675800E+02  0.00000000000E+00 0.  1.
         11    1    1    2    0    0  0.69859444217E+02 -0.40423417876E+01  0.66430483421E+02  0.96486743136E+02  0.00000000000E+00 0. -1.
</event>
<event>
 7    1  0.2873461E-009  0.1213318E+03  0.7561462E-02  0.1240916E+00
          2   -1    0    0  501    0  0.00000000000E+00  0.00000000000E+00  0.40641835153E+03  0.40641835153E+03  0.00000000000E+00 0. -1.
         -2   -1    0    0    0  501 -0.00000000000E+00 -0.00000000000E+00 -0.58827095361E+02  0.58827095361E+02  0.00000000000E+00 0.  1.
         25    2    1    2    0    0 -0.10096690923E+03 -0.27060652052E-01  0.25212233343E+03  0.29901106738E+03  0.12509048689E+03 0.  0.
          5    1    3    3  502    0 -0.10367552858E+03 -0.10255357852E+01  0.91608790105E+02  0.13841715852E+03  0.41800000000E+01 0. -1.
         -5    1    3    3    0  502  0.27086193505E+01  0.99847513317E+00  0.16051354333E+03  0.16059390886E+03  0.41800000000E+01 0. -1.
        -11    1    1    2    0    0  0.57123974205E+02 -0.43680921485E+02  0.36114916923E+02  0.80470233969E+02  0.00000000000E+00 0.  1.
         11    1    1    2    0    0  0.43842935021E+02  0.43707982137E+02  0.59354005810E+02  0.85764145536E+02  0.00000000000E+00 0. -1.
</event>
<event>
 7    1  0.2873461E-009  0.7313343E+02  0.7561462E-02  0.1349751E+00
          2   -1    0    0  501    0  0.00000000000E+00  0.00000000000E+00  0.15696650527E+03  0.15696650527E+03  0.00000000000E+00 0. -1.
         -2   -1    0    0    0  501 -0.00000000000E+00 -0.00000000000E+00 -0.12350297114E+03  0.12350297114E+03  0.00000000000E+00 0.  1.
         25    2    1    2    0    0  0.22369101468E+02 -0.82766651219E+01  0.10135156542E+03  0.16275417945E+03  0.12509157937E+03 0.  0.
          5    1    3    3  502    0 -0.26799632521E+01  0.18801048318E+02 -0.24650538162E+02  0.31397182239E+02  0.41800000000E+01 0. -1.
         -5    1    3    3    0  502  0.25049064720E+02 -0.27077713440E+02  0.12600210358E+03  0.13135699721E+03  0.41800000000E+01 0. -1.
        -11    1    1    2    0    0 -0.45753896641E+02 -0.22546922056E+02 -0.59046876652E+02  0.78027664289E+02  0.00000000000E+00 0.  1.
         11    1    1    2    0    0  0.23384795173E+02  0.30823587178E+02 -0.88411546375E+01  0.39687632672E+02  0.00000000000E+00 0. -1.
</event>
<event>
 7    1  0.2873461E-009  0.1442397E+03  0.7561462E-02  0.1207735E+00
         -2   -1    0    0    0  501 -0.00000000000E+00  0.00000000000E+00  0.16480273230E+03  0.16480273230E+03  0.00000000000E+00 0.  1.
          2   -1    0    0  501    0  0.00000000000E+00 -0.00000000000E+00 -0.28171196093E+03  0.28171196093E+03  0.00000000000E+00 0. -1.
         25    2    1    2    0    0 -0.31273323314E+02  0.11472236281E+03 -0.19811764493E+03  0.26274434725E+03  0.12507897304E+03 0.  0.
          5    1    3    3  502    0 -0.21289033462E+02  0.13409632372E+03 -0.11906259739E+03  0.18063338971E+03  0.41800000000E+01 0. -1.
         -5    1    3    3    0  502 -0.99842898518E+01 -0.19373960913E+02 -0.79055047545E+02  0.82110957537E+02  0.41800000000E+01 0. -1.
        -11    1    1    2    0    0 -0.14559235912E+02 -0.16172258914E+02 -0.24074907973E+02  0.32451725727E+02  0.00000000000E+00 0. -1.
         11    1    1    2    0    0  0.45832559225E+02 -0.98550103896E+02  0.10528332428E+03  0.15131862025E+03  0.00000000000E+00 0.  1.
</event>
<event>
 7    1  0.2873461E-009  0.3837819E+03  0.7561462E-02  0.1049545E+00
         -4   -1    0    0    0  501 -0.00000000000E+00  0.00000000000E+00  0.96080094453E+02  0.96080094453E+02  0.00000000000E+00 0.  1.
          4   -1    0    0  501    0  0.00000000000E+00 -0.00000000000E+00 -0.17776580180E+04  0.17776580180E+04  0.00000000000E+00 0. -1.
         25    2    1    2    0    0 -0.11273818879E+03  0.36157512561E+03 -0.56635594284E+03  0.69271448900E+03  0.12509132108E+03 0.  0.
          5    1    3    3  502    0 -0.10099320936E+03  0.33203257993E+03 -0.56174668020E+03  0.66031967075E+03  0.41800000000E+01 0.  1.
         -5    1    3    3    0  502 -0.11744979427E+02  0.29542545683E+02 -0.46092626429E+01  0.32394818247E+02  0.41800000000E+01 0.  1.
        -11    1    1    2    0    0 -0.14571156604E+02 -0.38889130702E+02 -0.13401698957E+03  0.14030408613E+03  0.00000000000E+00 0.  1.
         11    1    1    2    0    0  0.12730934539E+03 -0.32268599491E+03 -0.98120499116E+03  0.10407195373E+04  0.00000000000E+00 0. -1.
</event>
<event>
 7    1  0.4036928E-009  0.1095530E+03  0.7561462E-02  0.1261400E+00
          2   -1    0    0  501    0  0.00000000000E+00  0.00000000000E+00  0.80502273286E+03  0.80502273286E+03  0.00000000000E+00 0.  1.
         -2   -1    0    0    0  501 -0.00000000000E+00 -0.00000000000E+00 -0.23653121647E+02  0.23653121647E+02  0.00000000000E+00 0. -1.
         25    2    1    2    0    0 -0.39202065603E+02  0.39412611935E+02  0.62145725254E+03  0.63635425451E+03  0.12508982600E+03 0.  0.
          5    1    3    3  502    0 -0.40365141749E+02 -0.26439623744E+02  0.10423017743E+03  0.11493389691E+03  0.41800000000E+01 0. -1.
         -5    1    3    3    0  502  0.11630761459E+01  0.65852235679E+02  0.51722707510E+03  0.52142035759E+03  0.41800000000E+01 0. -1.
        -11    1    1    2    0    0 -0.28460685074E+02 -0.18135131557E+02  0.34630937789E+02  0.48354890586E+02  0.00000000000E+00 0. -1.
         11    1    1    2    0    0  0.67662750677E+02 -0.21277480379E+02  0.12528142089E+03  0.14396670941E+03  0.00000000000E+00 0.  1.
</event>
<event>
 7    1  0.2873461E-009  0.1003811E+03  0.7561462E-02  0.1279497E+00
          2   -1    0    0  501    0  0.00000000000E+00  0.00000000000E+00  0.46709734746E+03  0.46709734746E+03  0.00000000000E+00 0. -1.
         -2   -1    0    0    0  501 -0.00000000000E+00 -0.00000000000E+00 -0.31170696565E+02  0.31170696565E+02  0.00000000000E+00 0.  1.
         25    2    1    2    0    0 -0.58546261397E+02  0.10763811972E+02  0.30460092985E+03  0.33461657124E+03  0.12507197493E+03 0.  0.
          5    1    3    3  502    0  0.29029684698E+02  0.17043147004E+02  0.26769916808E+02  0.43212177675E+02  0.41800000000E+01 0.  1.
         -5    1    3    3    0  502 -0.87575946095E+02 -0.62793350314E+01  0.27783101304E+03  0.29140439357E+03  0.41800000000E+01 0.  1.
        -11    1    1    2    0    0  0.27631137373E+01 -0.21885709811E+02  0.91731541105E+02  0.94346673100E+02  0.00000000000E+00 0. -1.
         11    1    1    2    0    0  0.55783147659E+02  0.11121897839E+02  0.39594179946E+02  0.69304799689E+02  0.00000000000E+00 0.  1.
</event>
<event>
 7    1  0.2873461E-009  0.1262700E+03  0.7561462E-02  0.1233098E+00
         -4   -1    0    0    0  501 -0.00000000000E+00  0.00000000000E+00  0.33666903521E+02  0.33666903521E+02  0.00000000000E+00 0.  1.
          4   -1    0    0  501    0  0.00000000000E+00 -0.00000000000E+00 -0.48839440155E+03  0.48839440155E+03  0.00000000000E+00 0. -1.
         25    2    1    2    0    0 -0.53510477150E+01 -0.47393575743E+02 -0.22722844746E+03  0.26373222492E+03  0.12508850625E+03 0.  0.
          5    1    3    3  502    0 -0.63811467869E+02 -0.34250584982E+02 -0.14210718653E+03  0.15955228255E+03  0.41800000000E+01 0. -1.
         -5    1    3    3    0  502  0.58460420154E+02 -0.13142990761E+02 -0.85121260929E+02  0.10417994237E+03  0.41800000000E+01 0. -1.
        -11    1    1    2    0    0  0.49368763388E+02 -0.71046598334E+01 -0.12075242220E+03  0.13064799446E+03  0.00000000000E+00 0. -1.
         11    1    1    2    0    0 -0.44017715673E+02  0.54498235576E+02 -0.10674662837E+03  0.12768108569E+03  0.00000000000E+00 0.  1.
</event>
<event>
 7    1  0.2873461E-009  0.1131355E+03  0.7561462E-02  0.1254871E+00
          1   -1    0    0  501    0  0.00000000000E+00  0.00000000000E+00  0.18031827618E+03  0.18031827618E+03  0.00000000000E+00 0. -1.
         -1   -1    0    0    0  501 -0.00000000000E+00 -0.00000000000E+00 -0.73024977175E+02  0.73024977175E+02  0.00000000000E+00 0.  1.
         25    2    1    2    0    0 -0.22209408060E+02  0.22626899013E+02  0.48584428913E+02  0.13788556822E+03  0.12508696505E+03 0.  0.
          5    1    3    3  502    0 -0.14254261249E+02 -0.51574511375E+02  0.13643119149E+02  0.55377985585E+02  0.41800000000E+01 0.  1.
         -5    1    3    3    0  502 -0.79551468108E+01  0.74201410388E+02  0.34941309765E+02  0.82507582636E+02  0.41800000000E+01 0.  1.
        -11    1    1    2    0    0  0.57354904827E+02 -0.26188477117E+01  0.44326601140E+02  0.72534757460E+02  0.00000000000E+00 0. -1.
         11    1    1    2    0    0 -0.35145496767E+02 -0.20008051301E+02  0.14382268949E+02  0.42922927673E+02  0.00000000000E+00 0.  1.
</event>
<event>
 7    1  0.2873461E-009  0.1147532E+03  0.7561462E-02  0.1252012E+00
         -1   -1    0    0    0  501 -0.00000000000E+00  0.00000000000E+00  0.52817474839E+03  0.52817474839E+03  0.00000000000E+00 0.  1.
          1   -1    0    0  501    0  0.00000000000E+00 -0.00000000000E+00 -0.56070147759E+02  0.56070147759E+02  0.00000000000E+00 0. -1.
         25    2    1    2    0    0 -0.60589209420E+02 -0.44213974054E+02  0.81446255382E+02  0.16705502168E+03  0.12509180610E+03 0.  0.
          5    1    3    3  502    0 -0.71695811307E+02 -0.43118388014E+02 -0.97865851067E+00  0.83772996343E+02  0.41800000000E+01 0.  1.
         -5    1    3    3    0  502  0.11106601887E+02 -0.10955860401E+01  0.82424913893E+02  0.83282025338E+02  0.41800000000E+01 0.  1.
        -11    1    1    2    0    0  0.28797290591E+02  0.80548742431E+02  0.32258263060E+03  0.33373183458E+03  0.00000000000E+00 0.  1.
         11    1    1    2    0    0  0.31791918829E+02 -0.36334768377E+02  0.68075714656E+02  0.83458039887E+02  0.00000000000E+00 0. -1.
</event>
<event>
 7    1  0.2873461E-009  0.1388015E+03  0.7561462E-02  0.1214951E+00
         -3   -1    0    0    0  501 -0.00000000000E+00  0.00000000000E+00  0.13011381434E+03  0.13011381434E+03  0.00000000000E+00 0.  1.
          3   -1    0    0  501    0  0.00000000000E+00 -0.00000000000E+00 -0.27119139426E+03  0.27119139426E+03  0.00000000000E+00 0. -1.
         25    2    1    2    0    0  0.65712002369E+01 -0.12346759136E+03 -0.17030010741E+03  0.24482084616E+03  0.12509074043E+03 0.  0.
          5    1    3    3  502    0  0.59411739324E+01 -0.51139883402E+02  0.80867540706E+01  0.52282436950E+02  0.41800000000E+01 0. -1.
         -5    1    3    3    0  502  0.63002630450E+00 -0.72327707959E+02 -0.17838686149E+03  0.19253840921E+03  0.41800000000E+01 0. -1.
        -11    1    1    2    0    0 -0.46580063311E+02  0.41922077497E+02  0.16170804271E+02  0.64719840780E+02  0.00000000000E+00 0. -1.
         11    1    1    2    0    0  0.40008863075E+02  0.81545513864E+02  0.13051723229E+02  0.91764521658E+02  0.00000000000E+00 0.  1.
</event>
<event>
 7    1  0.2873461E-009  0.1388647E+03  0.7561462E-02  0.1214865E+00
          1   -1    0    0  501    0  0.00000000000E+00  0.00000000000E+00  0.18003902392E+03  0.18003902392E+03  0.00000000000E+00 0. -1.
         -1   -1    0    0    0  501 -0.00000000000E+00 -0.00000000000E+00 -0.13602609775E+03  0.13602609775E+03  0.00000000000E+00 0.  1.
         25    2    1    2    0    0  0.22198919519E+02  0.10647698959E+03 -0.53418081982E+01  0.16585135736E+03  0.12509195212E+03 0.  0.
          5    1    3    3  502    0 -0.34172126405E+02  0.73161775244E+02  0.35777051963E+02  0.88418603399E+02  0.41800000000E+01 0. -1.
         -5    1    3    3    0  502  0.56371045924E+02  0.33315214344E+02 -0.41118860161E+02  0.77432753963E+02  0.41800000000E+01 0. -1.
        -11    1    1    2    0    0 -0.44403102749E+02 -0.35376845627E+02  0.50108545375E+02  0.75723332335E+02  0.00000000000E+00 0. -1.
         11    1    1    2    0    0  0.22204183229E+02 -0.71100143960E+02 -0.75381101248E+00  0.74490431970E+02  0.00000000000E+00 0.  1.
</event>
<event>
 7    1  0.2873461E-009  0.9151231E+02  0.7561462E-02  0.1299230E+00
         -4   -1    0    0    0  501 -0.00000000000E+00  0.00000000000E+00  0.17402569595E+03  0.17402569595E+03  0.00000000000E+00 0.  1.
          4   -1    0    0  501    0  0.00000000000E+00 -0.00000000000E+00 -0.79622233569E+02  0.79622233569E+02  0.00000000000E+00 0. -1.
         25    2    1    2    0    0  0.20781181424E+01 -0.39864174362E+02  0.76101915380E+02  0.15179992081E+03  0.12513290320E+03 0.  0.
          5    1    3    3  502    0  0.53745393782E+02 -0.31014919107E+02  0.36822294860E+01  0.62301876167E+02  0.41800000000E+01 0.  1.
         -5    1    3    3    0  502 -0.51667275639E+02 -0.88492552541E+01  0.72419685894E+02  0.89498044647E+02  0.41800000000E+01 0.  1.
        -11    1    1    2    0    0 -0.11141109212E+02  0.51954480572E+02 -0.22977101378E+02  0.57890755340E+02  0.00000000000E+00 0. -1.
         11    1    1    2    0    0  0.90629910699E+01 -0.12090306211E+02  0.41278648381E+02  0.43957253367E+02  0.00000000000E+00 0.  1.
</event>
<event>
 7    1  0.2873461E-009  0.7144895E+02  0.7561462E-02  0.1355234E+00
         -2   -1    0    0    0  501 -0.00000000000E+00  0.00000000000E+00  0.14663511842E+02  0.14663511842E+02  0.00000000000E+00 0.  1.
          2   -1    0    0  501    0  0.00000000000E+00 -0.00000000000E+00 -0.99608570487E+03  0.99608570487E+03  0.00000000000E+00 0. -1.
         25    2    1    2    0    0 -0.11953111398E+02 -0.16317050256E+02 -0.73851000118E+03  0.74930211471E+03  0.12509002464E+03 0.  0.
          5    1    3    3  502    0 -0.28650023856E+02 -0.40473684067E+01 -0.72170844848E+03  0.72230032678E+03  0.41800000000E+01 0.  1.
         -5    1    3    3    0  502  0.16696912458E+02 -0.12269681849E+02 -0.16801552700E+02  0.27001787930E+02  0.41800000000E+01 0.  1.
        -11    1    1    2    0    0 -0.32588133760E+02  0.31640935562E+02 -0.15736583623E+03  0.16378993155E+03  0.00000000000E+00 0. -1.
         11    1    1    2    0    0  0.44541245158E+02 -0.15323885307E+02 -0.85546355623E+02  0.97657170456E+02  0.00000000000E+00 0.  1.
</event>
<event>
 7    1  0.2873461E-009  0.1260773E+03  0.7561462E-02  0.1233395E+00
         -1   -1    0    0    0  501 -0.00000000000E+00  0.00000000000E+00  0.68938081443E+02  0.68938081443E+02  0.00000000000E+00 0. -1.
          1   -1    0    0  501    0  0.00000000000E+00 -0.00000000000E+00 -0.26027783380E+03  0.26027783380E+03  0.00000000000E+00 0.  1.
         25    2    1    2    0    0 -0.61860570638E+02  0.44603320570E+02 -0.83146242235E+02  0.16845702663E+03  0.12509310860E+03 0.  0.
          5    1    3    3  502    0  0.16011739402E+02  0.63920299472E+02 -0.33868959448E+02  0.74207542052E+02  0.41800000000E+01 0.  1.
         -5    1    3    3    0  502 -0.77872310040E+02 -0.19316978902E+02 -0.49277282787E+02  0.94249484581E+02  0.41800000000E+01 0.  1.
        -11    1    1    2    0    0  0.68361728813E+02 -0.82524044463E+01 -0.31671440163E+02  0.75792534378E+02  0.00000000000E+00 0.  1.
         11    1    1    2    0    0 -0.65011581755E+01 -0.36350916124E+02 -0.76522069959E+02  0.84966354232E+02  0.00000000000E+00 0. -1.
</event>
<event>
 7    1  0.2873461E-009  0.1434695E+03  0.7561462E-02  0.1208735E+00
         -2   -1    0    0    0  501 -0.00000000000E+00  0.00000000000E+00  0.49763772190E+02  0.49763772190E+02  0.00000000000E+00 0.  1.
          2   -1    0    0  501    0  0.00000000000E+00 -0.00000000000E+00 -0.55139737232E+03  0.55139737232E+03  0.00000000000E+00 0. -1.
         25    2    1    2    0    0 -0.11634217011E+03 -0.22858342389E+02 -0.33105461704E+03  0.37323420396E+03  0.12509439308E+03 0.  0.
          5    1    3    3  502    0 -0.48388079138E+02  0.25138973830E+02 -0.25379612850E+03  0.25962149651E+03  0.41800000000E+01 0.  1.
         -5    1    3    3    0  502 -0.67954090967E+02 -0.47997316219E+02 -0.77258488545E+02  0.11361270746E+03  0.41800000000E+01 0.  1.
        -11    1    1    2    0    0  0.46873631091E+02 -0.35035183608E+02 -0.86588579694E+02  0.10450925086E+03  0.00000000000E+00 0. -1.
         11    1    1    2    0    0  0.69468539014E+02  0.57893525997E+02 -0.83990403390E+02  0.12341768968E+03  0.00000000000E+00 0.  1.
</event>
<event>
 7    1  0.2873461E-009  0.7164213E+02  0.7561462E-02  0.1354596E+00
          1   -1    0    0  501    0  0.00000000000E+00  0.00000000000E+00  0.70758051532E+03  0.70758051532E+03  0.00000000000E+00 0. -1.
         -1   -1    0    0    0  501 -0.00000000000E+00 -0.00000000000E+00 -0.19731118700E+02  0.19731118700E+02  0.00000000000E+00 0.  1.
         25    2    1    2    0    0 -0.66822081125E+01  0.41612719183E+02  0.44278854236E+03  0.46204661390E+03  0.12509640230E+03 0.  0.
          5    1    3    3  502    0 -0.28987173205E+02  0.25474223255E+02  0.42939604323E+03  0.43114687358E+03  0.41800000000E+01 0.  1.
         -5    1    3    3    0  502  0.22304965092E+02  0.16138495928E+02  0.13392499130E+02  0.30899740315E+02  0.41800000000E+01 0.  1.
        -11    1    1    2    0    0 -0.19453702844E+02  0.76111973815E+01  0.90546823428E+01  0.22767611914E+02  0.00000000000E+00 0.  1.
         11    1    1    2    0    0  0.26135910957E+02 -0.49223916564E+02  0.23600617192E+03  0.24249740821E+03  0.00000000000E+00 0. -1.
</event>
<event>
 7    1  0.2873461E-009  0.1160663E+03  0.7561462E-02  0.1249731E+00
          1   -1    0    0  501    0  0.00000000000E+00  0.00000000000E+00  0.92852928458E+03  0.92852928458E+03  0.00000000000E+00 0. -1.
         -1   -1    0    0    0  501 -0.00000000000E+00 -0.00000000000E+00 -0.21018163834E+02  0.21018163834E+02  0.00000000000E+00 0.  1.
         25    2    1    2    0    0  0.41960790829E+02  0.61856132568E+02  0.70545049827E+03  0.72034388245E+03  0.12509202364E+03 0.  0.
          5    1    3    3  502    0 -0.40233566687E+02  0.43486614305E+02  0.35186764125E+03  0.35684469293E+03  0.41800000000E+01 0.  1.
         -5    1    3    3    0  502  0.82194357515E+02  0.18369518263E+02  0.35358285702E+03  0.36349918953E+03  0.41800000000E+01 0.  1.
        -11    1    1    2    0    0 -0.31007324351E+02 -0.61096563763E+01  0.17560665052E+02  0.36154654216E+02  0.00000000000E+00 0.  1.
         11    1    1    2    0    0 -0.10953466478E+02 -0.55746476192E+02  0.18449995743E+03  0.19304891175E+03  0.00000000000E+00 0. -1.
</event>
<event>
 7    1  0.2873461E-009  0.1333865E+03  0.7561462E-02  0.1222516E+00
          1   -1    0    0  501    0  0.00000000000E+00  0.00000000000E+00  0.63661277094E+02  0.63661277094E+02  0.00000000000E+00 0. -1.
         -1   -1    0    0    0  501 -0.00000000000E+00 -0.00000000000E+00 -0.40339050438E+03  0.40339050438E+03  0.00000000000E+00 0.  1.
         25    2    1    2    0    0 -0.28916969936E+02 -0.94597875070E+02 -0.27382009298E+03  0.31687339473E+03  0.12508539424E+03 0.  0.
          5    1    3    3  502    0  0.40912709227E+02 -0.72879479343E+02 -0.17383544032E+03  0.19292874591E+03  0.41800000000E+01 0.  1.
         -5    1    3    3    0  502 -0.69829679163E+02 -0.21718395728E+02 -0.99984652659E+02  0.12394464882E+03  0.41800000000E+01 0.  1.
        -11    1    1    2    0    0  0.32451878199E+02  0.27177103537E+02  0.14903092857E+02  0.44875622915E+02  0.00000000000E+00 0.  1.
         11    1    1    2    0    0 -0.35349082636E+01  0.67420771533E+02 -0.80812227161E+02  0.10530276383E+03  0.00000000000E+00 0. -1.
</event>
<event>
 7    1  0.2873461E-009  0.8141430E+02  0.7561462E-02  0.1325085E+00
          1   -1    0    0  501    0  0.00000000000E+00  0.00000000000E+00  0.90047114202E+02  0.90047114202E+02  0.00000000000E+00 0. -1.
         -1   -1    0    0    0  501 -0.00000000000E+00 -0.00000000000E+00 -0.15654995168E+03  0.15654995168E+03  0.00000000000E+00 0.  1.
         25    2    1    2    0    0 -0.60548025243E+01  0.23618668450E+02 -0.81023577389E+02  0.15101663533E+03  0.12508677756E+03 0.  0.
          5    1    3    3  502    0  0.20854125408E+02 -0.21923525544E+02  0.20274954214E+02  0.36661719643E+02  0.41800000000E+01 0.  1.
         -5    1    3    3    0  502 -0.26908927933E+02  0.45542193994E+02 -0.10129853160E+03  0.11435491568E+03  0.41800000000E+01 0.  1.
        -11    1    1    2    0    0 -0.34349059785E+02 -0.49195373193E+01  0.32522021905E+02  0.47557771861E+02  0.00000000000E+00 0.  1.
         11    1    1    2    0    0  0.40403862309E+02 -0.18699131131E+02 -0.18001281994E+02  0.48022658694E+02  0.00000000000E+00 0. -1.
</event>
<event>
 7    1  0.3733542E-009  0.1666324E+03  0.7561462E-02  0.1181406E+00
          1   -1    0    0  501    0  0.00000000000E+00  0.00000000000E+00  0.95081693393E+02  0.95081693393E+02  0.00000000000E+00 0. -1.
         -1   -1    0    0    0  501 -0.00000000000E+00 -0.00000000000E+00 -0.34989001045E+03  0.34989001045E+03  0.00000000000E+00 0.  1.
         25    2    1    2    0    0  0.79824929568E+01 -0.14574642745E+03 -0.14770139666E+03  0.24242389612E+03  0.12509157256E+03 0.  0.
          5    1    3    3  502    0  0.36987047177E+02  0.91505339635E+00 -0.86853284005E+01  0.38233314152E+02  0.41800000000E+01 0. -1.
         -5    1    3    3    0  502 -0.29004554220E+02 -0.14666148084E+03 -0.13901606826E+03  0.20419058197E+03  0.41800000000E+01 0. -1.
        -11    1    1    2    0    0 -0.10923302384E+02  0.92444212715E+02 -0.11567766526E+03  0.14848088510E+03  0.00000000000E+00 0.  1.
         11    1    1    2    0    0  0.29408094270E+01  0.53302214731E+02  0.85707448614E+01  0.54066922631E+02  0.00000000000E+00 0. -1.
</event>
<event>
 7    1  0.2873461E-009  0.7436513E+02  0.7561462E-02  0.1345848E+00
          1   -1    0    0  501    0  0.00000000000E+00  0.00000000000E+00  0.51111860382E+02  0.51111860382E+02  0.00000000000E+00 0. -1.
         -1   -1    0    0    0  501 -0.00000000000E+00 -0.00000000000E+00 -0.26801416344E+03  0.26801416344E+03  0.00000000000E+00 0.  1.
         25    2    1    2    0    0  0.27425242978E+02 -0.23466092446E+02 -0.87090206167E+02  0.15663187049E+03  0.12508412128E+03 0.  0.
          5    1    3    3  502    0  0.22619276734E+02 -0.43411908539E+02 -0.11305974297E+03  0.12327288171E+03  0.41800000000E+01 0. -1.
         -5    1    3    3    0  502  0.48059662447E+01  0.19945816092E+02  0.25969536805E+02  0.33358988789E+02  0.41800000000E+01 0. -1.
        -11    1    1    2    0    0 -0.67643932249E+01  0.46920765587E+02 -0.12109649115E+03  0.13004489774E+03  0.00000000000E+00 0.  1.
         11    1    1    2    0    0 -0.20660849754E+02 -0.23454673141E+02 -0.87156057377E+01  0.32449255585E+02  0.00000000000E+00 0. -1.
</event>
<event>
 7    1  0.2873461E-009  0.9486919E+02  0.7561462E-02  0.1291471E+00
          3   -1    0    0  501    0  0.00000000000E+00  0.00000000000E+00  0.46034334230E+02  0.46034334230E+02  0.00000000000E+00 0. -1.
         -3   -1    0    0    0  501 -0.00000000000E+00 -0.00000000000E+00 -0.33455114096E+03  0.33455114096E+03  0.00000000000E+00 0.  1.
         25    2    1    2    0    0 -0.59290532353E+02  0.12625524210E+02 -0.16290685310E+03  0.21415205077E+03  0.12509071497E+03 0.  0.
          5    1    3    3  502    0 -0.32875974310E+02  0.43396034758E+02 -0.95037465040E+01  0.55424174484E+02  0.41800000000E+01 0. -1.
         -5    1    3    3    0  502 -0.26414558043E+02 -0.30770510549E+02 -0.15340310660E+03  0.15872787628E+03  0.41800000000E+01 0. -1.
        -11    1    1    2    0    0  0.21093210665E+02  0.30292520118E+02 -0.11478574723E+02  0.38656409416E+02  0.00000000000E+00 0. -1.
         11    1    1    2    0    0  0.38197321688E+02 -0.42918044328E+02 -0.11413137891E+03  0.12777701501E+03  0.00000000000E+00 0.  1.
</event>
<event>
 7    1  0.2873461E-009  0.1649426E+03  0.7561462E-02  0.1183227E+00
         -3   -1    0    0    0  501 -0.00000000000E+00  0.00000000000E+00  0.48166428662E+03  0.48166428662E+03  0.00000000000E+00 0.  1.
          3   -1    0    0  501    0  0.00000000000E+00 -0.00000000000E+00 -0.72931449426E+02  0.72931449426E+02  0.00000000000E+00 0. -1.
         25    2    1    2    0    0 -0.77536763124E+02  0.13083749322E+03  0.21604164143E+03  0.29232218189E+03  0.12509143826E+03 0.  0.
          5    1    3    3  502    0 -0.57308042909E+02  0.10280214853E+03  0.59488068383E+02  0.13194239729E+03  0.41800000000E+01 0.  1.
         -5    1    3    3    0  502 -0.20228720215E+02  0.28035344696E+02  0.15655357305E+03  0.16037978460E+03  0.41800000000E+01 0.  1.
        -11    1    1    2    0    0  0.96994951895E+02 -0.91208081748E+02  0.13478329454E+03  0.18945572400E+03  0.00000000000E+00 0.  1.
         11    1    1    2    0    0 -0.19458188771E+02 -0.39629411474E+02  0.57907901224E+02  0.72817830153E+02  0.00000000000E+00 0. -1.
</event>
<event>
 7    1  0.2873461E-009  0.1807652E+03  0.7561462E-02  0.1167065E+00
         -1   -1    0    0    0  501 -0.00000000000E+00  0.00000000000E+00  0.73034355612E+02  0.73034355612E+02  0.00000000000E+00 0.  1.
          1   -1    0    0  501    0  0.00000000000E+00 -0.00000000000E+00 -0.66703142154E+03  0.66703142154E+03  0.00000000000E+00 0. -1.
         25    2    1    2    0    0  0.78849861779E+02 -0.14413481663E+03 -0.47414648580E+03  0.51715997650E+03  0.12508958879E+03 0.  0.
          5    1    3    3  502    0  0.84930005325E+02 -0.14313092777E+03 -0.30197393439E+03  0.34482647482E+03  0.41800000000E+01 0. -1.
         -5    1    3    3    0  502 -0.60801435456E+01 -0.10038888597E+01 -0.17217255142E+03  0.17233350167E+03  0.41800000000E+01 0. -1.
        -11    1    1    2    0    0 -0.88684896481E+02  0.70450688427E+02 -0.65719775321E+02  0.13094807838E+03  0.00000000000E+00 0. -1.
         11    1    1    2    0    0  0.98350347015E+01  0.73684128204E+02 -0.54130804801E+02  0.91957722270E+02  0.00000000000E+00 0.  1.
</event>
<event>
 7    1  0.2873461E-009  0.1117544E+03  0.7561462E-02  0.1257355E+00
          2   -1    0    0  501    0  0.00000000000E+00  0.00000000000E+00  0.46357212025E+03  0.46357212025E+03  0.00000000000E+00 0. -1.
         -2   -1    0    0    0  501 -0.00000000000E+00 -0.00000000000E+00 -0.34912924808E+02  0.34912924808E+02  0.00000000000E+00 0.  1.
         25    2    1    2    0    0  0.43508018328E+02  0.31297568607E+02  0.31074550281E+03  0.33923682141E+03  0.12508544292E+03 0.  0.
          5    1    3    3  502    0  0.84773687490E+02  0.19426314276E+02  0.15672212510E+03  0.17928540563E+03  0.41800000000E+01 0.  1.
         -5    1    3    3    0  502 -0.41265669161E+02  0.11871254331E+02  0.15402337771E+03  0.15995141579E+03  0.41800000000E+01 0.  1.
        -11    1    1    2    0    0 -0.24157116381E+02 -0.56542534863E+02  0.11070366965E+03  0.12663304069E+03  0.00000000000E+00 0. -1.
         11    1    1    2    0    0 -0.19350901947E+02  0.25244966255E+02  0.72100229831E+01  0.32615182949E+02  0.00000000000E+00 0.  1.
</event>
<event>
 7    1  0.2873461E-009  0.1035963E+03  0.7561462E-02  0.1272910E+00
         -1   -1    0    0    0  501 -0.00000000000E+00  0.00000000000E+00  0.42662138237E+02  0.42662138237E+02  0.00000000000E+00 0.  1.
          1   -1    0    0  501    0  0.00000000000E+00 -0.00000000000E+00 -0.34842398525E+03  0.34842398525E+03  0.00000000000E+00 0. -1.
         25    2    1    2    0    0  0.34385982593E+01 -0.43842401182E+02 -0.22613235373E+03  0.26214061309E+03  0.12509148465E+03 0.  0.
          5    1    3    3  502    0 -0.14656176445E+02  0.37386096972E+02 -0.34237125649E+02  0.52935592256E+02  0.41800000000E+01 0. -1.
         -5    1    3    3    0  502  0.18094774705E+02 -0.81228498154E+02 -0.19189522808E+03  0.20920502084E+03  0.41800000000E+01 0. -1.
        -11    1    1    2    0    0  0.27814250057E+02 -0.21406531882E+01  0.43457149396E+01  0.28232961953E+02  0.00000000000E+00 0. -1.
         11    1    1    2    0    0 -0.31252848316E+02  0.45983054370E+02 -0.83975208223E+02  0.10071254844E+03  0.00000000000E+00 0.  1.
</event>
<event>
 7    1  0.2873461E-009  0.1054074E+03  0.7561462E-02  0.1269319E+00
          4   -1    0    0  501    0  0.00000000000E+00  0.00000000000E+00  0.36294418687E+03  0.36294418687E+03  0.00000000000E+00 0. -1.
         -4   -1    0    0    0  501 -0.00000000000E+00 -0.00000000000E+00 -0.40515846467E+02  0.40515846467E+02  0.00000000000E+00 0.  1.
         25    2    1    2    0    0 -0.23142949193E+02  0.46767841181E+02  0.16090172708E+03  0.21038095590E+03  0.12509178136E+03 0.  0.
          5    1    3    3  502    0 -0.11369993903E+02 -0.29571742672E+02  0.11731837226E+03  0.12159291754E+03  0.41800000000E+01 0. -1.
         -5    1    3    3    0  502 -0.11772955290E+02  0.76339583853E+02  0.43583354820E+02  0.88788038364E+02  0.41800000000E+01 0. -1.
        -11    1    1    2    0    0  0.14518096195E+02 -0.72719989740E+02  0.13941782211E+03  0.15791232107E+03  0.00000000000E+00 0. -1.
         11    1    1    2    0    0  0.86248529975E+01  0.25952148559E+02  0.22108791215E+02  0.35166756363E+02  0.00000000000E+00 0.  1.
</event>
<event>
 7    1  0.2873461E-009  0.1227390E+03  0.7561462E-02  0.1238646E+00
         -2   -1    0    0    0  501 -0.00000000000E+00  0.00000000000E+00  0.22749809802E+02  0.22749809802E+02  0.00000000000E+00 0.  1.
          2   -1    0    0  501    0  0.00000000000E+00 -0.00000000000E+00 -0.80369775811E+03  0.80369775811E+03  0.00000000000E+00 0. -1.
         25    2    1    2    0    0 -0.61145835318E+02  0.43964430403E+02 -0.34713234382E+03  0.37658944992E+03  0.12508823024E+03 0.  0.
          5    1    3    3  502    0 -0.25539522757E+02  0.76564054103E+02 -0.29297832884E+03  0.30392119895E+03  0.41800000000E+01 0. -1.
         -5    1    3    3    0  502 -0.35606312562E+02 -0.32599623700E+02 -0.54154014981E+02  0.72668250964E+02  0.41800000000E+01 0. -1.
        -11    1    1    2    0    0 -0.31633927851E+01  0.23082997152E+02 -0.53378710169E+02  0.58241896524E+02  0.00000000000E+00 0.  1.
         11    1    1    2    0    0  0.64309228103E+02 -0.67047427555E+02 -0.38043689432E+03  0.39161622147E+03  0.00000000000E+00 0. -1.
</event>
<event>
 7    1  0.2873461E-009  0.1685117E+03  0.7561462E-02  0.1179409E+00
         -3   -1    0    0    0  501 -0.00000000000E+00  0.00000000000E+00  0.55297422625E+02  0.55297422625E+02  0.00000000000E+00 0.  1.
          3   -1    0    0  501    0  0.00000000000E+00 -0.00000000000E+00 -0.75447603543E+03  0.75447603543E+03  0.00000000000E+00 0. -1.
         25    2    1    2    0    0 -0.49253036571E+02 -0.14743812039E+03 -0.21500915359E+03  0.29332635677E+03  0.12509018543E+03 0.  0.
          5    1    3    3  502    0 -0.46725997360E+02 -0.10719347239E+03 -0.56915587589E+02  0.13011770004E+03  0.41800000000E+01 0. -1.
         -5    1    3    3    0  502 -0.25270392112E+01 -0.40244648001E+02 -0.15809356600E+03  0.16320865673E+03  0.41800000000E+01 0. -1.
        -11    1    1    2    0    0 -0.11569114419E+02  0.10422110338E+03 -0.29596190986E+03  0.31398938658E+03  0.00000000000E+00 0.  1.
         11    1    1    2    0    0  0.60822150990E+02  0.43217017016E+02 -0.18820754935E+03  0.20245771470E+03  0.00000000000E+00 0. -1.
</event>
<event>
 7    1  0.2873461E-009  0.1127085E+03  0.7561462E-02  0.1255635E+00
          2   -1    0    0  501    0  0.00000000000E+00  0.00000000000E+00  0.45986790379E+02  0.45986790379E+02  0.00000000000E+00 0. -1.
         -2   -1    0    0    0  501 -0.00000000000E+00 -0.00000000000E+00 -0.53421893616E+03  0.53421893616E+03  0.00000000000E+00 0.  1.
         25    2    1    2    0    0  0.45709312774E+02  0.98780613022E+02 -0.20860674260E+03  0.26648044395E+03  0.12509237854E+03 0.  0.
          5    1    3    3  502    0  0.91827877664E+01  0.64346774353E+02 -0.20598815074E+03  0.21604032403E+03  0.41800000000E+01 0.  1.
         -5    1    3    3    0  502  0.36526525007E+02  0.34433838669E+02 -0.26185918569E+01  0.50440119924E+02  0.41800000000E+01 0.  1.
        -11    1    1    2    0    0 -0.55465411508E+01 -0.27876543529E+02 -0.71263190885E+01  0.29302734029E+02  0.00000000000E+00 0. -1.
         11    1    1    2    0    0 -0.40162771623E+02 -0.70904069493E+02 -0.27249908409E+03  0.28442254856E+03  0.00000000000E+00 0.  1.
</event>
<event>
 7    1  0.2873461E-009  0.1180137E+03  0.7561462E-02  0.1246410E+00
         -1   -1    0    0    0  501 -0.00000000000E+00  0.00000000000E+00  0.30863014214E+03  0.30863014214E+03  0.00000000000E+00 0.  1.
          1   -1    0    0  501    0  0.00000000000E+00 -0.00000000000E+00 -0.10103439072E+03  0.10103439072E+03  0.00000000000E+00 0. -1.
         25    2    1    2    0    0 -0.74002286287E+02  0.29766570306E+02  0.24266539013E+03  0.28443735429E+03  0.12512285907E+03 0.  0.
          5    1    3    3  502    0 -0.72156964075E+02 -0.14681084758E+02  0.22432406112E+03  0.23613749917E+03  0.41800000000E+01 0. -1.
         -5    1    3    3    0  502 -0.18453222123E+01  0.44447655064E+02  0.18341329010E+02  0.48299855120E+02  0.41800000000E+01 0. -1.
        -11    1    1    2    0    0  0.11480943688E+02  0.29369412050E+02 -0.21352370609E+02  0.38082780396E+02  0.00000000000E+00 0. -1.
         11    1    1    2    0    0  0.62521342600E+02 -0.59135982355E+02 -0.13717268109E+02  0.87144398179E+02  0.00000000000E+00 0.  1.
</event>
<event>
 7    1  0.2873461E-009  0.9808729E+02  0.7561462E-02  0.1284370E+00
          4   -1    0    0  501    0  0.00000000000E+00  0.00000000000E+00  0.24732215929E+03  0.24732215929E+03  0.00000000000E+00 0. -1.
         -4   -1    0    0    0  501 -0.00000000000E+00 -0.00000000000E+00 -0.76019494293E+02  0.76019494293E+02  0.00000000000E+00 0.  1.
         25    2    1    2    0    0 -0.41820572324E+02 -0.63809589512E+02  0.52798646810E+02  0.15574150730E+03  0.12508835281E+03 0.  0.
          5    1    3    3  502    0 -0.33848260763E+02 -0.61359729346E+02  0.91841995415E+02  0.11559907294E+03  0.41800000000E+01 0.  1.
         -5    1    3    3    0  502 -0.79723115607E+01 -0.24498601662E+01 -0.39043348605E+02  0.40142434365E+02  0.41800000000E+01 0.  1.
        -11    1    1    2    0    0  0.68091059258E+02  0.58659269086E+02  0.10286526624E+03  0.13659635866E+03  0.00000000000E+00 0.  1.
         11    1    1    2    0    0 -0.26270486934E+02  0.51503204262E+01  0.15638751941E+02  0.31003787616E+02  0.00000000000E+00 0. -1.
</event>
<event>
 7    1  0.2873461E-009  0.8861456E+02  0.7561462E-02  0.1306242E+00
          1   -1    0    0  501    0  0.00000000000E+00  0.00000000000E+00  0.10063076745E+04  0.10063076745E+04  0.00000000000E+00 0. -1.
         -1   -1    0    0    0  501 -0.00000000000E+00 -0.00000000000E+00 -0.12173011897E+02  0.12173011897E+02  0.00000000000E+00 0.  1.
         25    2    1    2    0    0 -0.82345179344E+01  0.21023956045E+02  0.58679085956E+03  0.60040071948E+03  0.12509075533E+03 0.  0.
          5    1    3    3  502    0  0.25232384051E+02  0.38238220201E+02  0.53090671557E+03  0.53289609469E+03  0.41800000000E+01 0. -1.
         -5    1    3    3    0  502 -0.33466901985E+02 -0.17214264156E+02  0.55884143991E+02  0.67504624793E+02  0.41800000000E+01 0. -1.
        -11    1    1    2    0    0  0.33241345563E+02  0.24585093086E+02  0.15413407370E+03  0.15958297695E+03  0.00000000000E+00 0.  1.
         11    1    1    2    0    0 -0.25006827628E+02 -0.45609049131E+02  0.25320972931E+03  0.25849698994E+03  0.00000000000E+00 0. -1.
</event>
<event>
 7    1  0.2873461E-009  0.1115868E+03  0.7561462E-02  0.1257659E+00
          3   -1    0    0  501    0  0.00000000000E+00  0.00000000000E+00  0.13160682318E+03  0.13160682318E+03  0.00000000000E+00 0. -1.
         -3   -1    0    0    0  501 -0.00000000000E+00 -0.00000000000E+00 -0.10637568165E+03  0.10637568165E+03  0.00000000000E+00 0.  1.
         25    2    1    2    0    0  0.16506475270E+02 -0.21643905273E+02 -0.18771177460E+02  0.12940287573E+03  0.12510725311E+03 0.  0.
          5    1    3    3  502    0  0.52120773668E+02  0.30952771245E+02 -0.24439594416E+02  0.65493627711E+02  0.41800000000E+01 0. -1.
         -5    1    3    3    0  502 -0.35614298398E+02 -0.52596676517E+02  0.56684169567E+01  0.63909248015E+02  0.41800000000E+01 0. -1.
        -11    1    1    2    0    0  0.36462873313E+02  0.27204147268E+02  0.14805629055E+02  0.47841544817E+02  0.00000000000E+00 0. -1.
         11    1    1    2    0    0 -0.52969348583E+02 -0.55602419957E+01  0.29196689930E+02  0.60738084290E+02  0.00000000000E+00 0.  1.
</event>
<event>
 7    1  0.2873461E-009  0.9551039E+02  0.7561462E-02  0.1290031E+00
          1   -1    0    0  501    0  0.00000000000E+00  0.00000000000E+00  0.53159429090E+03  0.53159429090E+03  0.00000000000E+00 0. -1.
         -1   -1    0    0    0  501 -0.00000000000E+00 -0.00000000000E+00 -0.26289333474E+02  0.26289333474E+02  0.00000000000E+00 0.  1.
         25    2    1    2    0    0 -0.39954906406E+02  0.93634555049E+01  0.34321671365E+03  0.36759945762E+03  0.12509028688E+03 0.  0.
          5    1    3    3  502    0 -0.26671171268E+02 -0.40960031884E+02  0.28584649289E+03  0.29002545662E+03  0.41800000000E+01 0. -1.
         -5    1    3    3    0  502 -0.13283735138E+02  0.50323487389E+02  0.57370220756E+02  0.77574001004E+02  0.41800000000E+01 0.  1.
        -11    1    1    2    0    0 -0.11591310463E+02  0.25165711945E+02  0.17048640995E+02  0.32531948846E+02  0.00000000000E+00 0.  1.
         11    1    1    2    0    0  0.51546216868E+02 -0.34529167450E+02  0.14503960279E+03  0.15775221791E+03  0.00000000000E+00 0. -1.
</event>
<event>
 7    1  0.2873461E-009  0.6266216E+02  0.7561462E-02  0.1386988E+00
         -4   -1    0    0    0  501 -0.00000000000E+00  0.00000000000E+00  0.74220489221E+02  0.74220489221E+02  0.00000000000E+00 0.  1.
          4   -1    0    0  501    0  0.00000000000E+00 -0.00000000000E+00 -0.22489600821E+03  0.22489600821E+03  0.00000000000E+00 0. -1.
         25    2    1    2    0    0 -0.12800900767E+02  0.42951922843E+02 -0.14606341465E+03  0.19746140301E+03  0.12509098227E+03 0.  0.
          5    1    3    3  502    0 -0.33534209425E+02  0.49078155244E+01 -0.14992270098E+03  0.15376253941E+03  0.41800000000E+01 0. -1.
         -5    1    3    3    0  502  0.20733308659E+02  0.38044107318E+02  0.38592863330E+01  0.43698863608E+02  0.41800000000E+01 0. -1.
        -11    1    1    2    0    0  0.10137404676E+02 -0.88936159157E+01  0.41859267747E+02  0.43977968052E+02  0.00000000000E+00 0.  1.
         11    1    1    2    0    0  0.26634960906E+01 -0.34058306927E+02 -0.46471372087E+02  0.57677126366E+02  0.00000000000E+00 0. -1.
</event>
<event>
 7    1  0.2873461E-009  0.9482022E+02  0.7561462E-02  0.1291582E+00
          2   -1    0    0  501    0  0.00000000000E+00  0.00000000000E+00  0.30081734751E+03  0.30081734751E+03  0.00000000000E+00 0. -1.
         -2   -1    0    0    0  501 -0.00000000000E+00 -0.00000000000E+00 -0.49681054972E+02  0.49681054972E+02  0.00000000000E+00 0.  1.
         25    2    1    2    0    0  0.43366770791E+02  0.11205841555E+02  0.93836876964E+02  0.16266483649E+03  0.12509293289E+03 0.  0.
          5    1    3    3  502    0  0.52398811035E+02 -0.18563183579E+02  0.11291962958E+03  0.12593070446E+03  0.41800000000E+01 0.  1.
         -5    1    3    3    0  502 -0.90320402437E+01  0.29769025134E+02 -0.19082752614E+02  0.36734132026E+02  0.41800000000E+01 0.  1.
        -11    1    1    2    0    0 -0.45019941856E+02 -0.47921894603E+02  0.95943787015E+02  0.11631213786E+03  0.00000000000E+00 0. -1.
         11    1    1    2    0    0  0.16531710649E+01  0.36716053048E+02  0.61355628554E+02  0.71521428126E+02  0.00000000000E+00 0.  1.
</event>
<event>
 7    1  0.2873461E-009  0.1545810E+03  0.7561462E-02  0.1194954E+00
         -1   -1    0    0    0  501 -0.00000000000E+00  0.00000000000E+00  0.74793389157E+03  0.74793389157E+03  0.00000000000E+00 0. -1.
          1   -1    0    0  501    0  0.00000000000E+00 -0.00000000000E+00 -0.35076731773E+02  0.35076731773E+02  0.00000000000E+00 0.  1.
         25    2    1    2    0    0  0.11874099961E+03  0.21039853102E+02  0.33375121856E+03  0.37627032488E+03  0.12508949232E+03 0.  0.
          5    1    3    3  502    0  0.12654952049E+03  0.51522363910E+02  0.30137663323E+03  0.33093002670E+03  0.41800000000E+01 0.  1.
         -5    1    3    3    0  502 -0.78085208766E+01 -0.30482510808E+02  0.32374585336E+02  0.45340298180E+02  0.41800000000E+01 0.  1.
        -11    1    1    2    0    0 -0.34795316611E+02 -0.41658559793E+02  0.91121084298E+02  0.10606225373E+03  0.00000000000E+00 0.  1.
         11    1    1    2    0    0 -0.83945682999E+02  0.20618706691E+02  0.28798485693E+03  0.30067804473E+03  0.00000000000E+00 0. -1.
</event>
<event>
 7    1  0.3185014E-009  0.1290055E+03  0.7561462E-02  0.1228939E+00
         -2   -1    0    0    0  501 -0.00000000000E+00  0.00000000000E+00  0.31519915557E+02  0.31519915557E+02  0.00000000000E+00 0.  1.
          2   -1    0    0  501    0  0.00000000000E+00 -0.00000000000E+00 -0.86417616688E+03  0.86417616688E+03  0.00000000000E+00 0. -1.
         25    2    1    2    0    0  0.63640523274E+02 -0.99451496163E+02 -0.34106770803E+03  0.38198820185E+03  0.12508832319E+03 0.  0.
          5    1    3    3  502    0 -0.10478641788E+02  0.38233249844E+01  0.52768751764E+01  0.13028336781E+02  0.41800000000E+01 0. -1.
         -5    1    3    3    0  502  0.74119165062E+02 -0.10327482115E+03 -0.34634458321E+03  0.36895986507E+03  0.41800000000E+01 0. -1.
        -11    1    1    2    0    0 -0.55305220804E+01  0.18175785154E+02 -0.92514028141E+01  0.21131358084E+02  0.00000000000E+00 0.  1.
         11    1    1    2    0    0 -0.58110001194E+02  0.81275711009E+02 -0.48233714048E+03  0.49257652250E+03  0.00000000000E+00 0. -1.
</event>
<event>
 7    1  0.2873461E-009  0.1172678E+03  0.7561462E-02  0.1247674E+00
         -2   -1    0    0    0  501 -0.00000000000E+00  0.00000000000E+00  0.50258141431E+02  0.50258141431E+02  0.00000000000E+00 0.  1.
          2   -1    0    0  501    0  0.00000000000E+00 -0.00000000000E+00 -0.53139464860E+03  0.53139464860E+03  0.00000000000E+00 0. -1.
         25    2    1    2    0    0 -0.27223940718E+02  0.62902131289E+02 -0.43746724487E+03  0.46013376075E+03  0.12509063265E+03 0.  0.
          5    1    3    3  502    0  0.16884684440E+02  0.86600736272E+02 -0.32800247974E+03  0.33968791443E+03  0.41800000000E+01 0.  1.
         -5    1    3    3    0  502 -0.44108625157E+02 -0.23698604983E+02 -0.10946476513E+03  0.12044584632E+03  0.41800000000E+01 0.  1.
        -11    1    1    2    0    0  0.29147941878E+02  0.36532630580E+01  0.14812657038E+02  0.32899295665E+02  0.00000000000E+00 0.  1.
         11    1    1    2    0    0 -0.19240011605E+01 -0.66555394347E+02 -0.58481919334E+02  0.88619733615E+02  0.00000000000E+00 0. -1.
</event>
<event>
 7    1  0.2873461E-009  0.1659304E+03  0.7561462E-02  0.1182159E+00
          2   -1    0    0  501    0  0.00000000000E+00  0.00000000000E+00  0.30311295151E+03  0.30311295151E+03  0.00000000000E+00 0. -1.
         -2   -1    0    0    0  501 -0.00000000000E+00 -0.00000000000E+00 -0.17892963341E+03  0.17892963341E+03  0.00000000000E+00 0.  1.
         25    2    1    2    0    0 -0.51745960582E+02  0.12963411546E+03  0.22582155527E+03  0.29347621653E+03  0.12510102524E+03 0.  0.
          5    1    3    3  502    0 -0.73647745988E+02  0.46491333996E+02  0.57577514460E+02  0.10448960330E+03  0.41800000000E+01 0. -1.
         -5    1    3    3    0  502  0.21901785406E+02  0.83142781467E+02  0.16824404081E+03  0.18898661323E+03  0.41800000000E+01 0. -1.
        -11    1    1    2    0    0  0.76445260272E+01 -0.11007718863E+03 -0.65845822306E+02  0.12849551957E+03  0.00000000000E+00 0. -1.
         11    1    1    2    0    0  0.44101434555E+02 -0.19556926834E+02 -0.35792414857E+02  0.60070848823E+02  0.00000000000E+00 0.  1.
</event>
<event>
 7    1  0.2873461E-009  0.1163245E+03  0.7561462E-02  0.1249287E+00
         -2   -1    0    0    0  501 -0.00000000000E+00  0.00000000000E+00  0.46526842006E+02  0.46526842006E+02  0.00000000000E+00 0.  1.
          2   -1    0    0  501    0  0.00000000000E+00 -0.00000000000E+00 -0.50586055878E+03  0.50586055878E+03  0.00000000000E+00 0. -1.
         25    2    1    2    0    0 -0.28855026526E+02  0.71236718232E+02 -0.11001413756E+03  0.18345881521E+03  0.12508694510E+03 0.  0.
          5    1    3    3  502    0  0.93097129227E+01 -0.30383805728E+02 -0.49890924272E+02  0.59299436168E+02  0.41800000000E+01 0.  1.
         -5    1    3    3    0  502 -0.38164739449E+02  0.10162052396E+03 -0.60123213287E+02  0.12415937904E+03  0.41800000000E+01 0.  1.
        -11    1    1    2    0    0 -0.11424898650E+02 -0.38196802583E+02 -0.44743869331E+02  0.59929440840E+02  0.00000000000E+00 0.  1.
         11    1    1    2    0    0  0.40279925176E+02 -0.33039915649E+02 -0.30457570988E+03  0.30899914474E+03  0.00000000000E+00 0. -1.
</event>
<event>
 7    1  0.2873461E-009  0.1126734E+03  0.7561462E-02  0.1255698E+00
         -2   -1    0    0    0  501 -0.00000000000E+00  0.00000000000E+00  0.24571126666E+03  0.24571126666E+03  0.00000000000E+00 0.  1.
          2   -1    0    0  501    0  0.00000000000E+00 -0.00000000000E+00 -0.66094819360E+02  0.66094819360E+02  0.00000000000E+00 0. -1.
         25    2    1    2    0    0 -0.61349606844E+02 -0.49735800059E+01  0.70649193803E+02  0.15629226629E+03  0.12508978039E+03 0.  0.
          5    1    3    3  502    0 -0.42292242018E+01 -0.57970195358E+02  0.46672022892E+02  0.74660431342E+02  0.41800000000E+01 0.  1.
         -5    1    3    3    0  502 -0.57120382642E+02  0.52996615352E+02  0.23977170911E+02  0.81631834947E+02  0.41800000000E+01 0.  1.
        -11    1    1    2    0    0  0.22092779400E+02 -0.29459466304E+02  0.94360917716E+02  0.10129133156E+03  0.00000000000E+00 0.  1.
         11    1    1    2    0    0  0.39256827443E+02  0.34433046310E+02  0.14606335785E+02  0.54222488177E+02  0.00000000000E+00 0. -1.
</event>
<event>
 7    1  0.2873461E-009  0.9175267E+02  0.7561462E-02  0.1298662E+00
         -2   -1    0    0    0  501 -0.00000000000E+00  0.00000000000E+00  0.38697533533E+02  0.38697533533E+02  0.00000000000E+00 0.  1.
          2   -1    0    0  501    0  0.00000000000E+00 -0.00000000000E+00 -0.32798459214E+03  0.32798459214E+03  0.00000000000E+00 0. -1.
         25    2    1    2    0    0 -0.38790553139E+02 -0.15614978704E+02 -0.19298510103E+03  0.23374956700E+03  0.12508827395E+03 0.  0.
          5    1    3    3  502    0 -0.24474849648E+02  0.48285612777E+02 -0.40472619648E+02  0.67720189070E+02  0.41800000000E+01 0.  1.
         -5    1    3    3    0  502 -0.14315703491E+02 -0.63900591481E+02 -0.15251248138E+03  0.16602937793E+03  0.41800000000E+01 0.  1.
        -11    1    1    2    0    0  0.38702416476E+02  0.30147932237E+02 -0.16411790379E+02  0.51731245130E+02  0.00000000000E+00 0.  1.
         11    1    1    2    0    0  0.88136663513E-01 -0.14532953533E+02 -0.79890167199E+02  0.81201313545E+02  0.00000000000E+00 0. -1.
</event>
<event>
 7    1  0.2873461E-009  0.1216940E+03  0.7561462E-02  0.1240328E+00
          3   -1    0    0  501    0  0.00000000000E+00  0.00000000000E+00  0.15521284736E+03  0.15521284736E+03  0.00000000000E+00 0. -1.
         -3   -1    0    0    0  501 -0.00000000000E+00 -0.00000000000E+00 -0.13113159796E+03  0.13113159796E+03  0.00000000000E+00 0.  1.
         25    2    1    2    0    0  0.77157726738E+02 -0.33504454023E+02  0.56472180482E+02  0.16095813737E+03  0.12507018662E+03 0.  0.
          5    1    3    3  502    0 -0.97236005247E+01  0.28504696504E+02  0.43895657496E+02  0.53398195447E+02  0.41800000000E+01 0. -1.
         -5    1    3    3    0  502  0.86881327263E+02 -0.62009150527E+02  0.12576522985E+02  0.10755994192E+03  0.41800000000E+01 0. -1.
        -11    1    1    2    0    0 -0.32712120885E+02  0.49149979995E+02  0.12452033722E+02  0.60339510523E+02  0.00000000000E+00 0. -1.
         11    1    1    2    0    0 -0.44445605853E+02 -0.15645525972E+02 -0.44842964802E+02  0.65046797422E+02  0.00000000000E+00 0.  1.
</event>
<event>
 7    1  0.2873461E-009  0.6071534E+02  0.7561462E-02  0.1394854E+00
         -1   -1    0    0    0  501 -0.00000000000E+00  0.00000000000E+00  0.81042043035E+02  0.81042043035E+02  0.00000000000E+00 0. -1.
          1   -1    0    0  501    0  0.00000000000E+00 -0.00000000000E+00 -0.20471457020E+03  0.20471457020E+03  0.00000000000E+00 0.  1.
         25    2    1    2    0    0 -0.23696772055E+02 -0.24661909626E+02  0.70512548339E+00  0.12968628798E+03  0.12509312250E+03 0.  0.
          5    1    3    3  502    0 -0.13717415880E+02  0.37172061891E+01  0.60678664092E+02  0.62460850108E+02  0.41800000000E+01 0.  1.
         -5    1    3    3    0  502 -0.99793561750E+01 -0.28379115815E+02 -0.59973538608E+02  0.67225437874E+02  0.41800000000E+01 0.  1.
        -11    1    1    2    0    0 -0.13206564296E+02 -0.16387145230E+02 -0.86750456831E+02  0.89266979503E+02  0.00000000000E+00 0.  1.
         11    1    1    2    0    0  0.36903336351E+02  0.41049054856E+02 -0.37627195817E+02  0.66803345750E+02  0.00000000000E+00 0. -1.
</event>
<event>
 7    1  0.2873461E-009  0.1443003E+03  0.7561462E-02  0.1207657E+00
         -2   -1    0    0    0  501 -0.00000000000E+00  0.00000000000E+00  0.49078784815E+02  0.49078784815E+02  0.00000000000E+00 0.  1.
          2   -1    0    0  501    0  0.00000000000E+00 -0.00000000000E+00 -0.14343761661E+04  0.14343761661E+04  0.00000000000E+00 0. -1.
         25    2    1    2    0    0  0.73802617514E+02  0.89298146829E+02 -0.12995407678E+04  0.13106771644E+04  0.12508971485E+03 0.  0.
          5    1    3    3  502    0 -0.26936336382E+02  0.23109775178E+02 -0.12645908649E+03  0.13141157058E+03  0.41800000000E+01 0.  1.
         -5    1    3    3    0  502  0.10073895390E+03  0.66188371651E+02 -0.11730816813E+04  0.11792655938E+04  0.41800000000E+01 0.  1.
        -11    1    1    2    0    0 -0.45750128486E+02 -0.93304455583E+02 -0.26727569618E+02  0.10729938800E+03  0.00000000000E+00 0.  1.
         11    1    1    2    0    0 -0.28052489028E+02  0.40063087532E+01 -0.59029043896E+02  0.65478398528E+02  0.00000000000E+00 0. -1.
</event>
<event>
 7    1  0.2873461E-009  0.9026951E+02  0.7561462E-02  0.1302200E+00
         -2   -1    0    0    0  501 -0.00000000000E+00  0.00000000000E+00  0.75861309172E+02  0.75861309172E+02  0.00000000000E+00 0.  1.
          2   -1    0    0  501    0  0.00000000000E+00 -0.00000000000E+00 -0.25698670950E+03  0.25698670950E+03  0.00000000000E+00 0. -1.
         25    2    1    2    0    0  0.85341559435E+01  0.40637758309E+02 -0.68322971929E+01  0.13198981416E+03  0.12510144499E+03 0.  0.
          5    1    3    3  502    0  0.10920744106E+02 -0.23147521606E+02 -0.48954918930E+02  0.55399701224E+02  0.41800000000E+01 0. -1.
         -5    1    3    3    0  502 -0.23865881623E+01  0.63785279915E+02  0.42122621737E+02  0.76590112932E+02  0.41800000000E+01 0. -1.
        -11    1    1    2    0    0  0.90018745593E+01 -0.62198911171E+02 -0.75520546594E+02  0.98250146333E+02  0.00000000000E+00 0.  1.
         11    1    1    2    0    0 -0.17536030503E+02  0.21561152862E+02 -0.98772556540E+02  0.10260805818E+03  0.00000000000E+00 0. -1.
</event>
<event>
 7    1  0.2873461E-009  0.6067120E+02  0.7561462E-02  0.1395036E+00
          1   -1    0    0  501    0  0.00000000000E+00  0.00000000000E+00  0.27006002952E+03  0.27006002952E+03  0.00000000000E+00 0. -1.
         -1   -1    0    0    0  501 -0.00000000000E+00 -0.00000000000E+00 -0.50131572988E+02  0.50131572988E+02  0.00000000000E+00 0.  1.
         25    2    1    2    0    0  0.12652437686E+02  0.19809313578E+02  0.17336923046E+03  0.21507432544E+03  0.12509029663E+03 0.  0.
          5    1    3    3  502    0  0.33355897874E+02  0.19499100760E+02 -0.15410337090E+01  0.38893161845E+02  0.41800000000E+01 0.  1.
         -5    1    3    3    0  502 -0.20703460188E+02  0.31021281788E+00  0.17491026417E+03  0.17618116360E+03  0.41800000000E+01 0.  1.
        -11    1    1    2    0    0 -0.38762819506E+01 -0.39556901525E+02 -0.12952421424E+02  0.41803579281E+02  0.00000000000E+00 0.  1.
         11    1    1    2    0    0 -0.87761557354E+01  0.19747587947E+02  0.59511647500E+02  0.63313697786E+02  0.00000000000E+00 0. -1.
</event>
<event>
 7    1  0.3052106E-009  0.1522123E+03  0.7561462E-02  0.1197781E+00
         -1   -1    0    0    0  501 -0.00000000000E+00  0.00000000000E+00  0.74524857616E+02  0.74524857616E+02  0.00000000000E+00 0.  1.
          1   -1    0    0  501    0  0.00000000000E+00 -0.00000000000E+00 -0.41193242177E+03  0.41193242177E+03  0.00000000000E+00 0. -1.
         25    2    1    2    0    0 -0.13673743404E+03 -0.69150105913E+00 -0.16239592449E+03  0.24640803264E+03  0.12508748225E+03 0.  0.
          5    1    3    3  502    0 -0.75004843691E+02  0.36240021289E+02 -0.15230489859E+03  0.17364711416E+03  0.41800000000E+01 0. -1.
         -5    1    3    3    0  502 -0.61732590353E+02 -0.36931522349E+02 -0.10091025896E+02  0.72760918482E+02  0.41800000000E+01 0. -1.
        -11    1    1    2    0    0  0.10450746359E+03 -0.25334958279E+02 -0.73068244516E+02  0.13001014735E+03  0.00000000000E+00 0.  1.
         11    1    1    2    0    0  0.32229970453E+02  0.26026459338E+02 -0.10194339515E+03  0.11003909940E+03  0.00000000000E+00 0. -1.
</event>
<event>
 6    1  0.2873461E-009  0.1238162E+03  0.7561462E-02  0.1236931E+00
          1   -1    0    0  501    0  0.00000000000E+00  0.00000000000E+00  0.37240884846E+02  0.37240884846E+02  0.00000000000E+00 0. -1.
         -1   -1    0    0    0  501 -0.00000000000E+00 -0.00000000000E+00 -0.49408471616E+03  0.49408471616E+03  0.00000000000E+00 0.  1.
          5    1    1    2  502    0 -0.25493738711E+02  0.26169397529E+02 -0.75866159380E+02  0.84308449278E+02  0.41800000000E+01 0.  1.
         -5    1    1    2    0  502  0.29143492191E+02 -0.10222761957E+03 -0.12068468025E+03  0.16087912788E+03  0.41800000000E+01 0.  1.
        -11    1    1    2    0    0 -0.13450720121E+02 -0.10687074230E+02 -0.75902738837E+01  0.18781578341E+02  0.00000000000E+00 0. -1.
         11    1    1    2    0    0  0.98009666405E+01  0.86745296270E+02 -0.25270271780E+03  0.26735644551E+03  0.00000000000E+00 0.  1.
</event>
<event>
 7    1  0.2873461E-009  0.7440824E+02  0.7561462E-02  0.1345713E+00
         -2   -1    0    0    0  501 -0.00000000000E+00  0.00000000000E+00  0.13354422320E+03  0.13354422320E+03  0.00000000000E+00 0.  1.
          2   -1    0    0  501    0  0.00000000000E+00 -0.00000000000E+00 -0.20396958541E+03  0.20396958541E+03  0.00000000000E+00 0. -1.
         25    2    1    2    0    0  0.32761075499E+02 -0.42100740774E+02  0.78474170900E+02  0.15700818766E+03  0.12509042750E+03 0.  0.
          5    1    3    3  502    0 -0.12850265848E+02  0.53938640117E+01  0.89009246378E+02  0.90190583999E+02  0.41800000000E+01 0. -1.
         -5    1    3    3    0  502  0.45611341347E+02 -0.47494604785E+02 -0.10535075478E+02  0.66817603658E+02  0.41800000000E+01 0. -1.
        -11    1    1    2    0    0 -0.15926651558E+02 -0.62333642030E+01  0.54029451603E+01  0.17936133239E+02  0.00000000000E+00 0.  1.
         11    1    1    2    0    0 -0.16834423940E+02  0.48334104977E+02 -0.15430247827E+03  0.16256948771E+03  0.00000000000E+00 0. -1.
</event>
<event>
 7    1  0.2873461E-009  0.1315529E+03  0.7561462E-02  0.1225170E+00
          1   -1    0    0  501    0  0.00000000000E+00  0.00000000000E+00  0.85538816415E+02  0.85538816415E+02  0.00000000000E+00 0. -1.
         -1   -1    0    0    0  501 -0.00000000000E+00 -0.00000000000E+00 -0.25367739205E+03  0.25367739205E+03  0.00000000000E+00 0.  1.
         25    2    1    2    0    0 -0.24420800374E+02 -0.96000419287E+02 -0.95919400784E+02  0.18617375552E+03  0.12509068632E+03 0.  0.
          5    1    3    3  502    0  0.36402218047E+02 -0.52781977177E+02 -0.90843696189E+02  0.11127042793E+03  0.41800000000E+01 0.  1.
         -5    1    3    3    0  502 -0.60823018421E+02 -0.43218442110E+02 -0.50757045956E+01  0.74903327599E+02  0.41800000000E+01 0.  1.
        -11    1    1    2    0    0 -0.18905823225E+02  0.72309694291E+02 -0.71828481600E+02  0.10366027595E+03  0.00000000000E+00 0.  1.
         11    1    1    2    0    0  0.43326623599E+02  0.23690724996E+02 -0.39069324967E+00  0.49382176993E+02  0.00000000000E+00 0. -1.
</event>
<event>
 7    1  0.2873461E-009  0.7260447E+02  0.7561462E-02  0.1351454E+00
         -1   -1    0    0    0  501 -0.00000000000E+00  0.00000000000E+00  0.15135512788E+03  0.15135512788E+03  0.00000000000E+00 0.  1.
          1   -1    0    0  501    0  0.00000000000E+00 -0.00000000000E+00 -0.79221372656E+02  0.79221372656E+02  0.00000000000E+00 0. -1.
         25    2    1    2    0    0  0.33453156132E+02 -0.42440524025E+01  0.35305125293E+02  0.13427772216E+03  0.12508768589E+03 0.  0.
          5    1    3    3  502    0  0.64391057861E+02  0.11262826602E+02 -0.20364841101E+02  0.68594888647E+02  0.41800000000E+01 0. -1.
         -5    1    3    3    0  502 -0.30937901729E+02 -0.15506879004E+02  0.55669966394E+02  0.65682833512E+02  0.41800000000E+01 0. -1.
        -11    1    1    2    0    0 -0.22604401982E+02 -0.11786034617E+02  0.60541051798E+02  0.65689333637E+02  0.00000000000E+00 0.  1.
         11    1    1    2    0    0 -0.10848754149E+02  0.16030087020E+02 -0.23712421866E+02  0.30609444739E+02  0.00000000000E+00 0. -1.
</event>
<event>
 7    1  0.2873461E-009  0.1425033E+03  0.7561462E-02  0.1210000E+00
          1   -1    0    0  501    0  0.00000000000E+00  0.00000000000E+00  0.44229588695E+03  0.44229588695E+03  0.00000000000E+00 0. -1.
         -1   -1    0    0    0  501 -0.00000000000E+00 -0.00000000000E+00 -0.18944691899E+03  0.18944691899E+03  0.00000000000E+00 0.  1.
         25    2    1    2    0    0  0.26093439512E+02 -0.12516523876E+03  0.38602937066E+03  0.42545652168E+03  0.12508945698E+03 0.  0.
          5    1    3    3  502    0  0.54977740404E+02 -0.10589145511E+03  0.36637839212E+03  0.38533900765E+03  0.41800000000E+01 0.  1.
         -5    1    3    3    0  502 -0.28884300892E+02 -0.19273783651E+02  0.19650978542E+02  0.40117514029E+02  0.41800000000E+01 0.  1.
        -11    1    1    2    0    0 -0.31411284290E+02  0.96265266962E+02 -0.40500433502E+02  0.10905941279E+03  0.00000000000E+00 0. -1.
         11    1    1    2    0    0  0.53178447779E+01  0.28899971794E+02 -0.92679969211E+02  0.97226871470E+02  0.00000000000E+00 0.  1.
</event>
<event>
 7    1  0.2873461E-009  0.1551560E+03  0.7561462E-02  0.1194277E+00
         -1   -1    0    0    0  501 -0.00000000000E+00  0.00000000000E+00  0.28169248168E+02  0.28169248168E+02  0.00000000000E+00 0.  1.
          1   -1    0    0  501    0  0.00000000000E+00 -0.00000000000E+00 -0.95405796429E+03  0.95405796429E+03  0.00000000000E+00 0. -1.
         25    2    1    2    0    0 -0.78732226209E+02 -0.89922950143E+02 -0.40686132918E+03  0.44211838714E+03  0.12509047391E+03 0.  0.
          5    1    3    3  502    0 -0.70151276459E+02  0.66543764272E+01 -0.11926969567E+03  0.13859370483E+03  0.41800000000E+01 0.  1.
         -5    1    3    3    0  502 -0.85809497502E+01 -0.96577326571E+02 -0.28759163351E+03  0.30352468231E+03  0.41800000000E+01 0.  1.
        -11    1    1    2    0    0  0.34321516503E+02 -0.79202923267E+01 -0.21000448727E+03  0.21293797735E+03  0.00000000000E+00 0. -1.
         11    1    1    2    0    0  0.44410709706E+02  0.97843242470E+02 -0.30902289968E+03  0.32717084797E+03  0.00000000000E+00 0.  1.
</event>
<event>
 7    1  0.2873461E-009  0.9936159E+02  0.7561462E-02  0.1281644E+00
         -1   -1    0    0    0  501 -0.00000000000E+00  0.00000000000E+00  0.80679201990E+02  0.80679201990E+02  0.00000000000E+00 0.  1.
          1   -1    0    0  501    0  0.00000000000E+00 -0.00000000000E+00 -0.26821017471E+03  0.26821017471E+03  0.00000000000E+00 0. -1.
         25    2    1    2    0    0 -0.84849764849E+01  0.81568418121E+02 -0.16867987240E+03  0.22544778487E+03  0.12509357573E+03 0.  0.
          5    1    3    3  502    0 -0.14869200569E+02  0.73521064203E+02 -0.21904730135E+02  0.78254262563E+02  0.41800000000E+01 0.  1.
         -5    1    3    3    0  502  0.63842240840E+01  0.80473539183E+01 -0.14677514227E+03  0.14719352231E+03  0.41800000000E+01 0.  1.
        -11    1    1    2    0    0  0.38534156895E+02 -0.18711673659E+02  0.15764838907E+02  0.45645789778E+02  0.00000000000E+00 0.  1.
         11    1    1    2    0    0 -0.30049180410E+02 -0.62856744462E+02 -0.34615939220E+02  0.77795802045E+02  0.00000000000E+00 0. -1.
</event>
<event>
 7    1  0.2873461E-009  0.1160159E+03  0.7561462E-02  0.1249818E+00
         -2   -1    0    0    0  501 -0.00000000000E+00  0.00000000000E+00  0.72480613805E+02  0.72480613805E+02  0.00000000000E+00 0.  1.
          2   -1    0    0  501    0  0.00000000000E+00 -0.00000000000E+00 -0.23635991585E+03  0.23635991585E+03  0.00000000000E+00 0. -1.
         25    2    1    2    0    0  0.24314680531E+02  0.68391850720E+02 -0.74614221323E+02  0.16272533460E+03  0.12507439211E+03 0.  0.
          5    1    3    3  502    0  0.56778351090E+02 -0.11652827655E+02 -0.31316197517E+02  0.66013227248E+02  0.41800000000E+01 0.  1.
         -5    1    3    3    0  502 -0.32463670558E+02  0.80044678375E+02 -0.43298023805E+02  0.96712107348E+02  0.41800000000E+01 0.  1.
        -11    1    1    2    0    0 -0.30455502644E+02 -0.15460971174E+02 -0.86224179008E+02  0.92742591707E+02  0.00000000000E+00 0. -1.
         11    1    1    2    0    0  0.61408221131E+01 -0.52930879546E+02 -0.30409017190E+01  0.53372603356E+02  0.00000000000E+00 0.  1.
</event>
<event>
 7    1  0.2873461E-009  0.7558238E+02  0.7561462E-02  0.1342077E+00
          1   -1    0    0  501    0  0.00000000000E+00  0.00000000000E+00  0.20419405708E+03  0.20419405708E+03  0.00000000000E+00 0. -1.
         -1   -1    0    0    0  501 -0.00000000000E+00 -0.00000000000E+00 -0.66315319059E+02  0.66315319059E+02  0.00000000000E+00 0.  1.
         25    2    1    2    0    0  0.92867373634E+01 -0.18933638834E+02  0.12527806585E+03  0.17829084369E+03  0.12509318523E+03 0.  0.
          5    1    3    3  502    0  0.42693134887E+02 -0.50334196943E+02  0.30303022225E+02  0.72746001295E+02  0.41800000000E+01 0.  1.
         -5    1    3    3    0  502 -0.33406397524E+02  0.31400558109E+02  0.94975043625E+02  0.10554484240E+03  0.41800000000E+01 0.  1.
        -11    1    1    2    0    0  0.91818580985E+01  0.18345833693E+02  0.48047838775E+02  0.52244338860E+02  0.00000000000E+00 0. -1.
         11    1    1    2    0    0 -0.18468595462E+02  0.58780514131E+00 -0.35447166600E+02  0.39974193590E+02  0.00000000000E+00 0.  1.
</event>
<event>
 7    1  0.2873461E-009  0.9021216E+02  0.7561462E-02  0.1302339E+00
          1   -1    0    0  501    0  0.00000000000E+00  0.00000000000E+00  0.11441257272E+04  0.11441257272E+04  0.00000000000E+00 0. -1.
         -1   -1    0    0    0  501 -0.00000000000E+00 -0.00000000000E+00 -0.11754597973E+02  0.11754597973E+02  0.00000000000E+00 0.  1.
         25    2    1    2    0    0  0.12627712247E+02 -0.39035051189E+02  0.67343887317E+03  0.68618583870E+03  0.12509154647E+03 0.  0.
          5    1    3    3  502    0  0.25086995594E+02  0.12299077184E+02  0.56283563143E+03  0.56354418199E+03  0.41800000000E+01 0. -1.
         -5    1    3    3    0  502 -0.12459283347E+02 -0.51334128373E+02  0.11060324174E+03  0.12264165671E+03  0.41800000000E+01 0. -1.
        -11    1    1    2    0    0 -0.45388597329E+02  0.47136053453E+02  0.27374826477E+03  0.28146055632E+03  0.00000000000E+00 0.  1.
         11    1    1    2    0    0  0.32760885082E+02 -0.81010022634E+01  0.18518399124E+03  0.18823393010E+03  0.00000000000E+00 0. -1.
</event>
<event>
 6    1  0.2873461E-009  0.1679721E+03  0.7561462E-02  0.1179979E+00
          1   -1    0    0  501    0  0.00000000000E+00  0.00000000000E+00  0.11395851600E+04  0.11395851600E+04  0.00000000000E+00 0. -1.
         -1   -1    0    0    0  501 -0.00000000000E+00 -0.00000000000E+00 -0.29990907524E+02  0.29990907524E+02  0.00000000000E+00 0.  1.
          5    1    1    2  502    0 -0.78565527866E+02  0.33696713955E+02  0.30114787708E+03  0.31307431541E+03  0.41800000000E+01 0.  1.
         -5    1    1    2    0  502  0.28902326915E+02  0.90376124269E+02  0.48521175994E+03  0.49441997606E+03  0.41800000000E+01 0.  1.
        -11    1    1    2    0    0  0.57418387049E+01 -0.10868873921E+03  0.16931249409E+03  0.20127824373E+03  0.00000000000E+00 0. -1.
         11    1    1    2    0    0  0.43921362246E+02 -0.15384099018E+02  0.15392212132E+03  0.16080353229E+03  0.00000000000E+00 0.  1.
</event>
<event>
 7    1  0.2873461E-009  0.1215931E+03  0.7561462E-02  0.1240492E+00
         -1   -1    0    0    0  501 -0.00000000000E+00  0.00000000000E+00  0.54293972309E+02  0.54293972309E+02  0.00000000000E+00 0.  1.
          1   -1    0    0  501    0  0.00000000000E+00 -0.00000000000E+00 -0.65082266083E+03  0.65082266083E+03  0.00000000000E+00 0. -1.
         25    2    1    2    0    0  0.96127992138E+02 -0.37454358070E+02 -0.52936511545E+03  0.55364079895E+03  0.12508912422E+03 0.  0.
          5    1    3    3  502    0  0.74021484403E+02  0.84766195440E+00 -0.11453507999E+03  0.13643920123E+03  0.41800000000E+01 0. -1.
         -5    1    3    3    0  502  0.22106507735E+02 -0.38302020024E+02 -0.41483003546E+03  0.41720159772E+03  0.41800000000E+01 0. -1.
        -11    1    1    2    0    0 -0.57124562449E+02 -0.15183210897E+02 -0.21024687159E+01  0.59145294850E+02  0.00000000000E+00 0.  1.
         11    1    1    2    0    0 -0.39003429689E+02  0.52637568967E+02 -0.65061104355E+02  0.92330539336E+02  0.00000000000E+00 0. -1.
</event>
<event>
 7    1  0.2873461E-009  0.9900827E+02  0.7561462E-02  0.1282395E+00
          1   -1    0    0  501    0  0.00000000000E+00  0.00000000000E+00  0.38217019538E+03  0.38217019538E+03  0.00000000000E+00 0. -1.
         -1   -1    0    0    0  501 -0.00000000000E+00 -0.00000000000E+00 -0.36419695321E+02  0.36419695321E+02  0.00000000000E+00 0.  1.
         25    2    1    2    0    0 -0.87543081551E+01 -0.43330269176E+02  0.17545142226E+03  0.21996545896E+03  0.12508977347E+03 0.  0.
          5    1    3    3  502    0 -0.54157487350E+02 -0.23058416304E+02  0.15533228372E+03  0.16616351815E+03  0.41800000000E+01 0. -1.
         -5    1    3    3    0  502  0.45403179195E+02 -0.20271852872E+02  0.20119138542E+02  0.53801940815E+02  0.41800000000E+01 0. -1.
        -11    1    1    2    0    0  0.23532900319E+01 -0.22673039038E+02  0.95127226774E+01  0.24700132913E+02  0.00000000000E+00 0.  1.
         11    1    1    2    0    0  0.64010181231E+01  0.66003308214E+02  0.16078635512E+03  0.17392429882E+03  0.00000000000E+00 0. -1.
</event>
<event>
 7    1  0.2873461E-009  0.2708984E+03  0.7561462E-02  0.1100767E+00
         -2   -1    0    0    0  501 -0.00000000000E+00  0.00000000000E+00  0.24150921084E+03  0.24150921084E+03  0.00000000000E+00 0.  1.
          2   -1    0    0  501    0  0.00000000000E+00 -0.00000000000E+00 -0.30940541322E+03  0.30940541322E+03  0.00000000000E+00 0. -1.
         25    2    1    2    0    0 -0.76377384400E+02  0.23516441487E+03 -0.61938344329E+02  0.28393670254E+03  0.12509150922E+03 0.  0.
          5    1    3    3  502    0  0.31085268034E+02  0.93710103630E+02 -0.31013830501E+02  0.10357223322E+03  0.41800000000E+01 0.  1.
         -5    1    3    3    0  502 -0.10746265243E+03  0.14145431124E+03 -0.30924513828E+02  0.18036446932E+03  0.41800000000E+01 0.  1.
        -11    1    1    2    0    0  0.35381015924E+01 -0.16201487081E+03  0.10727785958E+02  0.16240819535E+03  0.00000000000E+00 0.  1.
         11    1    1    2    0    0  0.72839282808E+02 -0.73149544068E+02 -0.16685644007E+02  0.10456972618E+03  0.00000000000E+00 0. -1.
</event>
<event>
 7    1  0.2873461E-009  0.7417522E+02  0.7561462E-02  0.1346444E+00
          3   -1    0    0  501    0  0.00000000000E+00  0.00000000000E+00  0.11844225730E+03  0.11844225730E+03  0.00000000000E+00 0. -1.
         -3   -1    0    0    0  501 -0.00000000000E+00 -0.00000000000E+00 -0.10762376616E+03  0.10762376616E+03  0.00000000000E+00 0.  1.
         25    2    1    2    0    0  0.21833209527E+02 -0.16336969904E+01  0.55311773731E+02  0.13851437169E+03  0.12508989107E+03 0.  0.
          5    1    3    3  502    0 -0.27660630774E+02 -0.34605280296E+02 -0.14415263107E+02  0.46775080221E+02  0.41800000000E+01 0.  1.
         -5    1    3    3    0  502  0.49493840302E+02  0.32971583306E+02  0.69727036839E+02  0.91739291472E+02  0.41800000000E+01 0.  1.
        -11    1    1    2    0    0 -0.22999970373E+02 -0.15065391402E+02 -0.59197367776E+02  0.65270920071E+02  0.00000000000E+00 0.  1.
         11    1    1    2    0    0  0.11667608459E+01  0.16699088392E+02  0.14704085176E+02  0.22280731695E+02  0.00000000000E+00 0. -1.
</event>
<event>
 7    1  0.2873461E-009  0.1767685E+03  0.7561462E-02  0.1170968E+00
          2   -1    0    0  501    0  0.00000000000E+00  0.00000000000E+00  0.10193451738E+04  0.10193451738E+04  0.00000000000E+00 0. -1.
         -2   -1    0    0    0  501 -0.00000000000E+00 -0.00000000000E+00 -0.37644548751E+02  0.37644548751E+02  0.00000000000E+00 0.  1.
         25    2    1    2    0    0  0.80946514855E+02  0.13138632931E+03  0.66217049434E+03  0.69132633342E+03  0.12509048688E+03 0.  0.
          5    1    3    3  502    0  0.96080233974E+02  0.14754434210E+03  0.58799746060E+03  0.61380716053E+03  0.41800000000E+01 0. -1.
         -5    1    3    3    0  502 -0.15133719119E+02 -0.16158012782E+02  0.74173033736E+02  0.77519172886E+02  0.41800000000E+01 0. -1.
        -11    1    1    2    0    0 -0.48060682773E+02 -0.65396928044E+02  0.25526862646E+03  0.26785940171E+03  0.00000000000E+00 0.  1.
         11    1    1    2    0    0 -0.32885832082E+02 -0.65989401270E+02  0.64261504297E+02  0.97803987476E+02  0.00000000000E+00 0. -1.
</event>
<event>
 7    1  0.2873461E-009  0.1458739E+03  0.7561462E-02  0.1205637E+00
          2   -1    0    0  501    0  0.00000000000E+00  0.00000000000E+00  0.14940301937E+03  0.14940301937E+03  0.00000000000E+00 0. -1.
         -2   -1    0    0    0  501 -0.00000000000E+00 -0.00000000000E+00 -0.16803697577E+03  0.16803697577E+03  0.00000000000E+00 0.  1.
         25    2    1    2    0    0 -0.57681004697E+02 -0.94854283939E+02  0.18243755805E+02  0.16823945577E+03  0.12508895382E+03 0.  0.
          5    1    3    3  502    0  0.36957791390E+02 -0.38886724246E+02 -0.97948051886E+01  0.54694298384E+02  0.41800000000E+01 0. -1.
         -5    1    3    3    0  502 -0.94638796087E+02 -0.55967559694E+02  0.28038560994E+02  0.11354515738E+03  0.41800000000E+01 0. -1.
        -11    1    1    2    0    0  0.46201580164E+02  0.17026629250E+02 -0.49158972459E+02  0.69577989957E+02  0.00000000000E+00 0.  1.
         11    1    1    2    0    0  0.11479424534E+02  0.77827654689E+02  0.12281260251E+02  0.79622549415E+02  0.00000000000E+00 0. -1.
</event>
<event>
 7    1  0.2873461E-009  0.1416867E+03  0.7561462E-02  0.1211077E+00
         -1   -1    0    0    0  501 -0.00000000000E+00  0.00000000000E+00  0.19330412998E+03  0.19330412998E+03  0.00000000000E+00 0.  1.
          1   -1    0    0  501    0  0.00000000000E+00 -0.00000000000E+00 -0.15601480809E+03  0.15601480809E+03  0.00000000000E+00 0. -1.
         25    2    1    2    0    0  0.11561969491E+03  0.47727123300E+02  0.52294312278E+02  0.18446586355E+03  0.12508863885E+03 0.  0.
          5    1    3    3  502    0  0.10685697565E+03  0.58155367379E+02  0.85216584092E+02  0.14859272729E+03  0.41800000000E+01 0.  1.
         -5    1    3    3    0  502  0.87627192572E+01 -0.10428244080E+02 -0.32922271814E+02  0.35873136255E+02  0.41800000000E+01 0.  1.
        -11    1    1    2    0    0 -0.91574497137E+02  0.26095482354E+01 -0.44392659115E+02  0.10180081754E+03  0.00000000000E+00 0. -1.
         11    1    1    2    0    0 -0.24045197773E+02 -0.50336671535E+02  0.29387668728E+02  0.63052256981E+02  0.00000000000E+00 0.  1.
</event>
<event>
 7    1  0.2873461E-009  0.1993184E+03  0.7561462E-02  0.1150315E+00
         -2   -1    0    0    0  501 -0.00000000000E+00  0.00000000000E+00  0.74254467829E+02  0.74254467829E+02  0.00000000000E+00 0.  1.
          2   -1    0    0  501    0  0.00000000000E+00 -0.00000000000E+00 -0.77706816496E+03  0.77706816496E+03  0.00000000000E+00 0. -1.
         25    2    1    2    0    0 -0.36121669233E+02 -0.17490809877E+03 -0.57203017323E+03  0.61217955403E+03  0.12509064428E+03 0.  0.
          5    1    3    3  502    0 -0.50202999802E+02 -0.17972903436E+03 -0.42302860416E+03  0.46237813456E+03  0.41800000000E+01 0.  1.
         -5    1    3    3    0  502  0.14081330568E+02  0.48209355926E+01 -0.14900156907E+03  0.14980141947E+03  0.41800000000E+01 0.  1.
        -11    1    1    2    0    0 -0.26486038205E+02  0.61928108705E+02 -0.23837897892E+02  0.71448206720E+02  0.00000000000E+00 0. -1.
         11    1    1    2    0    0  0.62607707438E+02  0.11297999007E+03 -0.10694562602E+03  0.16769487204E+03  0.00000000000E+00 0.  1.
</event>
<event>
 7    1  0.2873461E-009  0.1298659E+03  0.7561462E-02  0.1227655E+00
          2   -1    0    0  501    0  0.00000000000E+00  0.00000000000E+00  0.74870549125E+02  0.74870549125E+02  0.00000000000E+00 0. -1.
         -2   -1    0    0    0  501 -0.00000000000E+00 -0.00000000000E+00 -0.25724062365E+03  0.25724062365E+03  0.00000000000E+00 0.  1.
         25    2    1    2    0    0 -0.86886219405E+02 -0.29136340287E+01 -0.65310618818E+02  0.16574315053E+03  0.12509040983E+03 0.  0.
          5    1    3    3  502    0 -0.10150963270E+03  0.37689331633E+02 -0.39813444645E+02  0.11544381328E+03  0.41800000000E+01 0.  1.
         -5    1    3    3    0  502  0.14623413300E+02 -0.40602965661E+02 -0.25497174172E+02  0.50299337250E+02  0.41800000000E+01 0.  1.
        -11    1    1    2    0    0  0.44884645197E+02 -0.30562859658E+02 -0.92606662486E+02  0.10735321934E+03  0.00000000000E+00 0.  1.
         11    1    1    2    0    0  0.42001574207E+02  0.33476493687E+02 -0.24452793217E+02  0.59014802902E+02  0.00000000000E+00 0. -1.
</event>
<event>
 7    1  0.2873461E-009  0.1625147E+03  0.7561462E-02  0.1185887E+00
          2   -1    0    0  501    0  0.00000000000E+00  0.00000000000E+00  0.16147203367E+04  0.16147203367E+04  0.00000000000E+00 0. -1.
         -2   -1    0    0    0  501 -0.00000000000E+00 -0.00000000000E+00 -0.26699363330E+02  0.26699363330E+02  0.00000000000E+00 0.  1.
         25    2    1    2    0    0  0.89451491441E+02 -0.10709265652E+03  0.12672949786E+04  0.12810749141E+04  0.12508383740E+03 0.  0.
          5    1    3    3  502    0 -0.27734258443E+02 -0.15085640696E+02  0.12061012407E+03  0.12474389795E+03  0.41800000000E+01 0. -1.
         -5    1    3    3    0  502  0.11718574988E+03 -0.92007015824E+02  0.11466848545E+04  0.11563310161E+04  0.41800000000E+01 0. -1.
        -11    1    1    2    0    0 -0.27302279738E+02  0.60769396345E+02  0.23726569116E+03  0.24644135653E+03  0.00000000000E+00 0. -1.
         11    1    1    2    0    0 -0.62149211704E+02  0.46323260175E+02  0.83460303653E+02  0.11390342942E+03  0.00000000000E+00 0.  1.
</event>
<event>
 7    1  0.4651781E-009  0.7119884E+02  0.7561462E-02  0.1356063E+00
         -1   -1    0    0    0  501 -0.00000000000E+00  0.00000000000E+00  0.22494124461E+03  0.22494124461E+03  0.00000000000E+00 0.  1.
          1   -1    0    0  501    0  0.00000000000E+00 -0.00000000000E+00 -0.67412868450E+02  0.67412868450E+02  0.00000000000E+00 0. -1.
         25    2    1    2    0    0  0.61175359382E+00 -0.30767629992E+02  0.14695018246E+03  0.19543116007E+03  0.12510779713E+03 0.  0.
          5    1    3    3  502    0  0.21145465099E+02  0.22423576149E+02 -0.64139437224E+01  0.31757810624E+02  0.41800000000E+01 0.  1.
         -5    1    3    3    0  502 -0.20533711505E+02 -0.53191206141E+02  0.15336412619E+03  0.16367334945E+03  0.41800000000E+01 0.  1.
        -11    1    1    2    0    0 -0.14473892427E+01 -0.11629352663E+02  0.42346255217E+02  0.43937934748E+02  0.00000000000E+00 0.  1.
         11    1    1    2    0    0  0.83563564886E+00  0.42396982655E+02 -0.31768061520E+02  0.52985018240E+02  0.00000000000E+00 0. -1.
</event>
<event>
 7    1  0.2873461E-009  0.3869441E+03  0.7561462E-02  0.1048397E+00
          2   -1    0    0  501    0  0.00000000000E+00  0.00000000000E+00  0.25446717156E+04  0.25446717156E+04  0.00000000000E+00 0.  1.
         -2   -1    0    0    0  501 -0.00000000000E+00 -0.00000000000E+00 -0.60503900919E+02  0.60503900919E+02  0.00000000000E+00 0. -1.
         25    2    1    2    0    0  0.21148827246E+03  0.31192216240E+03  0.12874851987E+04  0.13473260606E+04  0.12508657708E+03 0.  0.
          5    1    3    3  502    0  0.13546086367E+03  0.26347124282E+03  0.83708377632E+03  0.88797154367E+03  0.41800000000E+01 0.  1.
         -5    1    3    3    0  502  0.76027408789E+02  0.48450919580E+02  0.45040142242E+03  0.45935451692E+03  0.41800000000E+01 0.  1.
        -11    1    1    2    0    0 -0.38638608649E+02 -0.13332105260E+03  0.44397106001E+03  0.46516421538E+03  0.00000000000E+00 0.  1.
         11    1    1    2    0    0 -0.17284966381E+03 -0.17860110980E+03  0.75271155594E+03  0.79268534056E+03  0.00000000000E+00 0. -1.
</event>
<event>
 7    1  0.2873461E-009  0.9310251E+02  0.7561462E-02  0.1295508E+00
         -1   -1    0    0    0  501 -0.00000000000E+00  0.00000000000E+00  0.11150722129E+03  0.11150722129E+03  0.00000000000E+00 0.  1.
          1   -1    0    0  501    0  0.00000000000E+00 -0.00000000000E+00 -0.15166390808E+03  0.15166390808E+03  0.00000000000E+00 0. -1.
         25    2    1    2    0    0  0.38154171317E+02 -0.50533012424E+02 -0.20275138009E+01  0.14021544806E+03  0.12508770894E+03 0.  0.
          5    1    3    3  502    0  0.52780653665E+02 -0.76355148522E+02  0.28744647585E+02  0.97260646059E+02  0.41800000000E+01 0.  1.
         -5    1    3    3    0  502 -0.14626482348E+02  0.25822136098E+02 -0.30772161385E+02  0.42954802000E+02  0.41800000000E+01 0.  1.
        -11    1    1    2    0    0 -0.75390115080E+01  0.99919544352E+01 -0.64509369204E+02  0.65712514509E+02  0.00000000000E+00 0. -1.
         11    1    1    2    0    0 -0.30615159809E+02  0.40541057989E+02  0.26380196218E+02  0.57243166802E+02  0.00000000000E+00 0.  1.
</event>
<event>
 7    1  0.2933442E-009  0.1529867E+03  0.7561462E-02  0.1196850E+00
         -2   -1    0    0    0  501 -0.00000000000E+00  0.00000000000E+00  0.27664160953E+02  0.27664160953E+02  0.00000000000E+00 0.  1.
          2   -1    0    0  501    0  0.00000000000E+00 -0.00000000000E+00 -0.11316061293E+04  0.11316061293E+04  0.00000000000E+00 0. -1.
         25    2    1    2    0    0 -0.10986405778E+03  0.85736868445E+02 -0.61033204864E+03  0.63841472062E+03  0.12508886486E+03 0.  0.
          5    1    3    3  502    0 -0.92142631720E+02  0.73544538328E+02 -0.60427181700E+03  0.61567927115E+03  0.41800000000E+01 0.  1.
         -5    1    3    3    0  502 -0.17721426063E+02  0.12192330117E+02 -0.60602316336E+01  0.22735449475E+02  0.41800000000E+01 0.  1.
        -11    1    1    2    0    0  0.63611797926E+01 -0.58797809141E+02 -0.16495660447E+03  0.17523791920E+03  0.00000000000E+00 0.  1.
         11    1    1    2    0    0  0.10350287799E+03 -0.26939059304E+02 -0.32865331525E+03  0.34561765043E+03  0.00000000000E+00 0. -1.
</event>
<event>
 7    1  0.2873461E-009  0.1017553E+03  0.7561462E-02  0.1276647E+00
         -2   -1    0    0    0  501 -0.00000000000E+00  0.00000000000E+00  0.75881462395E+02  0.75881462395E+02  0.00000000000E+00 0.  1.
          2   -1    0    0  501    0  0.00000000000E+00 -0.00000000000E+00 -0.23498160130E+03  0.23498160130E+03  0.00000000000E+00 0. -1.
         25    2    1    2    0    0  0.42633310410E+02  0.93701429120E+01 -0.15180928540E+02  0.13334915686E+03  0.12508452466E+03 0.  0.
          5    1    3    3  502    0  0.32015142569E+00 -0.45238435648E+02  0.26462330501E+02  0.52577047201E+02  0.41800000000E+01 0. -1.
         -5    1    3    3    0  502  0.42313158984E+02  0.54608578560E+02 -0.41643259041E+02  0.80772109661E+02  0.41800000000E+01 0. -1.
        -11    1    1    2    0    0  0.72494124978E+00 -0.37291137202E+02 -0.17940914376E+02  0.41388777009E+02  0.00000000000E+00 0.  1.
         11    1    1    2    0    0 -0.43358251660E+02  0.27920994290E+02 -0.12597829599E+03  0.13612512982E+03  0.00000000000E+00 0. -1.
</event>
<event>
 6    1  0.2873461E-009  0.2015973E+03  0.7561462E-02  0.1148398E+00
          1   -1    0    0  501    0  0.00000000000E+00  0.00000000000E+00  0.13024706559E+03  0.13024706559E+03  0.00000000000E+00 0. -1.
         -1   -1    0    0    0  501 -0.00000000000E+00 -0.00000000000E+00 -0.37848503284E+03  0.37848503284E+03  0.00000000000E+00 0.  1.
          5    1    1    2  502    0 -0.10107740425E+03 -0.12342753749E+02 -0.12162565063E+03  0.15867972937E+03  0.41800000000E+01 0.  1.
         -5    1    1    2    0  502 -0.69405822616E+02 -0.78575220555E+02 -0.73095766328E+01  0.10517668852E+03  0.41800000000E+01 0.  1.
        -11    1    1    2    0    0  0.14937025190E+03  0.64922756106E+02 -0.13140251241E+03  0.20926790647E+03  0.00000000000E+00 0. -1.
         11    1    1    2    0    0  0.21112974969E+02  0.25995218197E+02  0.12099772428E+02  0.35607774066E+02  0.00000000000E+00 0.  1.
</event>
<event>
 7    1  0.2873461E-009  0.1259848E+03  0.7561462E-02  0.1233538E+00
          1   -1    0    0  501    0  0.00000000000E+00  0.00000000000E+00  0.16164708562E+04  0.16164708562E+04  0.00000000000E+00 0. -1.
         -1   -1    0    0    0  501 -0.00000000000E+00 -0.00000000000E+00 -0.23000177923E+02  0.23000177923E+02  0.00000000000E+00 0.  1.
         25    2    1    2    0    0 -0.19971949768E+02 -0.84823593438E+02  0.13960181946E+04  0.14043176331E+04  0.12508914446E+03 0.  0.
          5    1    3    3  502    0 -0.49584693465E+02 -0.88606981110E+02  0.66897079908E+03  0.67664558031E+03  0.41800000000E+01 0. -1.
         -5    1    3    3    0  502  0.29612743697E+02  0.37833876728E+01  0.72704739552E+03  0.72767205275E+03  0.41800000000E+01 0. -1.
        -11    1    1    2    0    0  0.51523958784E+02  0.39247454340E+02  0.14513303821E+03  0.15892979513E+03  0.00000000000E+00 0. -1.
         11    1    1    2    0    0 -0.31552009016E+02  0.45576139098E+02  0.52319445459E+02  0.76223605931E+02  0.00000000000E+00 0.  1.
</event>
<event>
 7    1  0.2873461E-009  0.5649576E+02  0.7561462E-02  0.1413155E+00
          2   -1    0    0  501    0  0.00000000000E+00  0.00000000000E+00  0.13021464855E+03  0.13021464855E+03  0.00000000000E+00 0. -1.
         -2   -1    0    0    0  501 -0.00000000000E+00 -0.00000000000E+00 -0.11088704485E+03  0.11088704485E+03  0.00000000000E+00 0.  1.
         25    2    1    2    0    0 -0.11966243435E+02 -0.31300822563E+02 -0.53963241738E+01  0.12961272080E+03  0.12508958632E+03 0.  0.
          5    1    3    3  502    0 -0.96642092112E+01 -0.20839706317E+01  0.58349269953E+02  0.59328320196E+02  0.41800000000E+01 0.  1.
         -5    1    3    3    0  502 -0.23020342243E+01 -0.29216851931E+02 -0.63745594127E+02  0.70284400608E+02  0.41800000000E+01 0.  1.
        -11    1    1    2    0    0  0.35023857296E+02  0.16093794128E+01 -0.29286660234E+02  0.45683357469E+02  0.00000000000E+00 0.  1.
         11    1    1    2    0    0 -0.23057613860E+02  0.29691443150E+02  0.54010588111E+02  0.65805615120E+02  0.00000000000E+00 0. -1.
</event>
<event>
 7    1  0.2873461E-009  0.1120758E+03  0.7561462E-02  0.1256773E+00
          2   -1    0    0  501    0  0.00000000000E+00  0.00000000000E+00  0.87260070346E+02  0.87260070346E+02  0.00000000000E+00 0. -1.
         -2   -1    0    0    0  501 -0.00000000000E+00 -0.00000000000E+00 -0.19658188484E+03  0.19658188484E+03  0.00000000000E+00 0.  1.
         25    2    1    2    0    0  0.86615489609E+01  0.54444978826E+02 -0.56243435971E+01  0.13680765132E+03  0.12508166160E+03 0.  0.
          5    1    3    3  502    0 -0.11063712453E+02 -0.39142509934E+02 -0.36428785894E+01  0.41052220178E+02  0.41800000000E+01 0.  1.
         -5    1    3    3    0  502  0.19725261413E+02  0.93587488759E+02 -0.19814650077E+01  0.95755431144E+02  0.41800000000E+01 0.  1.
        -11    1    1    2    0    0 -0.35297799927E+02 -0.48916934886E+02 -0.27821825790E+02  0.66429324764E+02  0.00000000000E+00 0. -1.
         11    1    1    2    0    0  0.26636250966E+02 -0.55280439399E+01 -0.75875645104E+02  0.80604979097E+02  0.00000000000E+00 0.  1.
</event>
<event>
 7    1  0.2873461E-009  0.1104191E+03  0.7561462E-02  0.1259796E+00
          1   -1    0    0  501    0  0.00000000000E+00  0.00000000000E+00  0.45475907094E+03  0.45475907094E+03  0.00000000000E+00 0. -1.
         -1   -1    0    0    0  501 -0.00000000000E+00 -0.00000000000E+00 -0.58932633070E+02  0.58932633070E+02  0.00000000000E+00 0.  1.
         25    2    1    2    0    0  0.16420729649E+01  0.76081272293E+02  0.36436047028E+03  0.39267957643E+03  0.12509053138E+03 0.  0.
          5    1    3    3  502    0  0.53091165669E+02  0.31485974393E+02  0.26520675254E+03  0.27232725249E+03  0.41800000000E+01 0. -1.
         -5    1    3    3    0  502 -0.51449092704E+02  0.44595297901E+02  0.99153717742E+02  0.12035232394E+03  0.41800000000E+01 0. -1.
        -11    1    1    2    0    0  0.20344786056E+02 -0.60444745563E+02 -0.16591089004E+02  0.65899482700E+02  0.00000000000E+00 0.  1.
         11    1    1    2    0    0 -0.21986859021E+02 -0.15636526730E+02  0.48057056593E+02  0.55112644885E+02  0.00000000000E+00 0. -1.
</event>
<event>
 7    1  0.2873461E-009  0.1459911E+03  0.7561462E-02  0.1205487E+00
         -1   -1    0    0    0  501 -0.00000000000E+00  0.00000000000E+00  0.11565356010E+03  0.11565356010E+03  0.00000000000E+00 0.  1.
          1   -1    0    0  501    0  0.00000000000E+00 -0.00000000000E+00 -0.30270021775E+03  0.30270021775E+03  0.00000000000E+00 0. -1.
         25    2    1    2    0    0 -0.23689557028E+02 -0.12032969723E+03 -0.19811991181E+03  0.26445898952E+03  0.12508647622E+03 0.  0.
          5    1    3    3  502    0 -0.48391651470E+02 -0.61997923933E+02 -0.29190145199E+02  0.83994234807E+02  0.41800000000E+01 0.  1.
         -5    1    3    3    0  502  0.24702094442E+02 -0.58331773302E+02 -0.16892976661E+03  0.18046475471E+03  0.41800000000E+01 0.  1.
        -11    1    1    2    0    0 -0.31717995820E+02  0.59717067953E+02  0.21870791808E+02  0.71066806584E+02  0.00000000000E+00 0.  1.
         11    1    1    2    0    0  0.55407552848E+02  0.60612629281E+02 -0.10797537657E+02  0.82827981748E+02  0.00000000000E+00 0. -1.
</event>
<event>
 7    1  0.2873461E-009  0.1311568E+03  0.7561462E-02  0.1225749E+00
         -2   -1    0    0    0  501 -0.00000000000E+00  0.00000000000E+00  0.33872754643E+02  0.33872754643E+02  0.00000000000E+00 0.  1.
          2   -1    0    0  501    0  0.00000000000E+00 -0.00000000000E+00 -0.58696155116E+03  0.58696155116E+03  0.00000000000E+00 0. -1.
         25    2    1    2    0    0  0.51929566142E+02  0.62163217176E+02 -0.37759198669E+03  0.40593649754E+03  0.12509111165E+03 0.  0.
          5    1    3    3  502    0  0.36154230179E+02  0.10075322997E+03 -0.27054154347E+03  0.29097859174E+03  0.41800000000E+01 0.  1.
         -5    1    3    3    0  502  0.15775335963E+02 -0.38590012791E+02 -0.10705044321E+03  0.11495790579E+03  0.41800000000E+01 0.  1.
        -11    1    1    2    0    0 -0.37000118762E+02  0.11014108599E+02 -0.22594971147E+02  0.44730885278E+02  0.00000000000E+00 0.  1.
         11    1    1    2    0    0 -0.14929447380E+02 -0.73177325775E+02 -0.15290183869E+03  0.17016692299E+03  0.00000000000E+00 0. -1.
</event>
<event>
 7    1  0.2873461E-009  0.1199053E+03  0.7561462E-02  0.1243253E+00
         -2   -1    0    0    0  501 -0.00000000000E+00  0.00000000000E+00  0.30774414166E+02  0.30774414166E+02  0.00000000000E+00 0.  1.
          2   -1    0    0  501    0  0.00000000000E+00 -0.00000000000E+00 -0.48994664210E+03  0.48994664210E+03  0.00000000000E+00 0. -1.
         25    2    1    2    0    0  0.36707969913E+02  0.45982726549E+02 -0.25989943144E+03  0.29437668032E+03  0.12509208311E+03 0.  0.
          5    1    3    3  502    0  0.39745965944E+02 -0.36470059025E+02 -0.12474079586E+03  0.13596891397E+03  0.41800000000E+01 0.  1.
         -5    1    3    3    0  502 -0.30379960310E+01  0.82452785574E+02 -0.13515863558E+03  0.15840776635E+03  0.41800000000E+01 0.  1.
        -11    1    1    2    0    0 -0.24913486282E+02  0.22518716362E+02 -0.97317855714E+02  0.10294920799E+03  0.00000000000E+00 0. -1.
         11    1    1    2    0    0 -0.11794483631E+02 -0.68501442911E+02 -0.10195494078E+03  0.12339516795E+03  0.00000000000E+00 0.  1.
</event>
<event>
 7    1  0.2873461E-009  0.1086416E+03  0.7561462E-02  0.1263106E+00
          1   -1    0    0  501    0  0.00000000000E+00  0.00000000000E+00  0.28083078499E+03  0.28083078499E+03  0.00000000000E+00 0. -1.
         -1   -1    0    0    0  501 -0.00000000000E+00 -0.00000000000E+00 -0.85777747803E+02  0.85777747803E+02  0.00000000000E+00 0.  1.
         25    2    1    2    0    0 -0.89864055136E+01  0.34835067897E+02 -0.18744254336E+02  0.13150395907E+03  0.12509079399E+03 0.  0.
          5    1    3    3  502    0  0.43608892000E+02  0.50164128487E+02  0.13276604829E+02  0.67911088079E+02  0.41800000000E+01 0.  1.
         -5    1    3    3    0  502 -0.52595297513E+02 -0.15329060590E+02 -0.32020859165E+02  0.63592870990E+02  0.41800000000E+01 0.  1.
        -11    1    1    2    0    0 -0.11345784817E+02 -0.61314134967E+02  0.11497161871E+03  0.13079228987E+03  0.00000000000E+00 0.  1.
         11    1    1    2    0    0  0.20332190330E+02  0.26479067069E+02  0.98825672808E+02  0.10431228385E+03  0.00000000000E+00 0. -1.
</event>
<event>
 7    1  0.2873461E-009  0.1737583E+03  0.7561462E-02  0.1173984E+00
          1   -1    0    0  501    0  0.00000000000E+00  0.00000000000E+00  0.44481972256E+02  0.44481972256E+02  0.00000000000E+00 0. -1.
         -1   -1    0    0    0  501 -0.00000000000E+00 -0.00000000000E+00 -0.10410164398E+04  0.10410164398E+04  0.00000000000E+00 0.  1.
         25    2    1    2    0    0 -0.11022400905E+03  0.10971971447E+03 -0.26020983393E+03  0.32793744006E+03  0.12508420764E+03 0.  0.
          5    1    3    3  502    0 -0.52706994032E+02  0.14759526375E+01 -0.17008727704E+02  0.55560551421E+02  0.41800000000E+01 0.  1.
         -5    1    3    3    0  502 -0.57517015021E+02  0.10824376183E+03 -0.24320110623E+03  0.27237688863E+03  0.41800000000E+01 0.  1.
        -11    1    1    2    0    0  0.27033047792E-01 -0.43320906567E+02 -0.11132408378E+03  0.11945607271E+03  0.00000000000E+00 0. -1.
         11    1    1    2    0    0  0.11019697601E+03 -0.66398807903E+02 -0.62500054980E+03  0.63810489926E+03  0.00000000000E+00 0.  1.
</event>
<event>
 6    1  0.3111332E-009  0.1164870E+03  0.7561462E-02  0.1249008E+00
         -2   -1    0    0    0  501 -0.00000000000E+00  0.00000000000E+00  0.23100636730E+02  0.23100636730E+02  0.00000000000E+00 0.  1.
          2   -1    0    0  501    0  0.00000000000E+00 -0.00000000000E+00 -0.10822468741E+04  0.10822468741E+04  0.00000000000E+00 0. -1.
          5    1    1    2  502    0 -0.34555624441E+02 -0.37758150597E+02 -0.57240556533E+03  0.57470459606E+03  0.41800000000E+01 0. -1.
         -5    1    1    2    0  502  0.44000990826E+02 -0.61223604953E+02 -0.19452098472E+03  0.20866313257E+03  0.41800000000E+01 0. -1.
        -11    1    1    2    0    0  0.61329151632E+01  0.84864157761E+02 -0.28830064559E+03  0.30059407873E+03  0.00000000000E+00 0. -1.
         11    1    1    2    0    0 -0.15578281548E+02  0.14117597790E+02 -0.39190416940E+01  0.21385703428E+02  0.00000000000E+00 0.  1.
</event>
<event>
 7    1  0.2873461E-009  0.1026810E+03  0.7561462E-02  0.1274757E+00
          1   -1    0    0  501    0  0.00000000000E+00  0.00000000000E+00  0.19419450090E+03  0.19419450090E+03  0.00000000000E+00 0. -1.
         -1   -1    0    0    0  501 -0.00000000000E+00 -0.00000000000E+00 -0.74629748797E+02  0.74629748797E+02  0.00000000000E+00 0.  1.
         25    2    1    2    0    0  0.58791714685E+02  0.10241016502E+02  0.81558564198E+02  0.16081127455E+03  0.12508845867E+03 0.  0.
          5    1    3    3  502    0  0.25371744757E+02  0.48011693989E+02 -0.10774413948E+02  0.55519443330E+02  0.41800000000E+01 0. -1.
         -5    1    3    3    0  502  0.33419969928E+02 -0.37770677487E+02  0.92332978147E+02  0.10529183122E+03  0.41800000000E+01 0. -1.
        -11    1    1    2    0    0  0.69241852155E+01  0.24847940197E+02  0.15915834093E+02  0.30309705505E+02  0.00000000000E+00 0.  1.
         11    1    1    2    0    0 -0.65715899901E+02 -0.35088956699E+02  0.22090353814E+02  0.77703269646E+02  0.00000000000E+00 0. -1.
</event>
<event>
 7    1  0.2873461E-009  0.7522556E+02  0.7561462E-02  0.1343174E+00
         -1   -1    0    0    0  501 -0.00000000000E+00  0.00000000000E+00  0.36581158319E+03  0.36581158319E+03  0.00000000000E+00 0.  1.
          1   -1    0    0  501    0  0.00000000000E+00 -0.00000000000E+00 -0.33251495973E+02  0.33251495973E+02  0.00000000000E+00 0. -1.
         25    2    1    2    0    0  0.20187549537E+02  0.54261767798E+01  0.20451772052E+03  0.24064737400E+03  0.12508669016E+03 0.  0.
          5    1    3    3  502    0 -0.42209241703E+02  0.23974348469E+01  0.22315035254E+02  0.47987508556E+02  0.41800000000E+01 0. -1.
         -5    1    3    3    0  502  0.62396791240E+02  0.30287419328E+01  0.18220268526E+03  0.19265986544E+03  0.41800000000E+01 0. -1.
        -11    1    1    2    0    0  0.12408986177E+02 -0.21929786818E+01 -0.10283188179E+02  0.16264564322E+02  0.00000000000E+00 0. -1.
         11    1    1    2    0    0 -0.32596535714E+02 -0.32331980979E+01  0.13832555488E+03  0.14215114085E+03  0.00000000000E+00 0.  1.
</event>
<event>
 7    1  0.2873461E-009  0.1150294E+03  0.7561462E-02  0.1251530E+00
         -2   -1    0    0    0  501 -0.00000000000E+00  0.00000000000E+00  0.64507293738E+03  0.64507293738E+03  0.00000000000E+00 0.  1.
          2   -1    0    0  501    0  0.00000000000E+00 -0.00000000000E+00 -0.26439243053E+02  0.26439243053E+02  0.00000000000E+00 0. -1.
         25    2    1    2    0    0 -0.57411623267E+02  0.45796793055E+02  0.37953194742E+03  0.40630691801E+03  0.12508945508E+03 0.  0.
          5    1    3    3  502    0 -0.69395432069E+02  0.76235610851E+02  0.33728119961E+03  0.35270905059E+03  0.41800000000E+01 0.  1.
         -5    1    3    3    0  502  0.11983808802E+02 -0.30438817796E+02  0.42250747808E+02  0.53597867426E+02  0.41800000000E+01 0.  1.
        -11    1    1    2    0    0  0.69293959148E+02 -0.34094210228E+02  0.23590492535E+03  0.24822409583E+03  0.00000000000E+00 0.  1.
         11    1    1    2    0    0 -0.11882335881E+02 -0.11702582826E+02  0.31968215583E+01  0.16981166594E+02  0.00000000000E+00 0. -1.
</event>
<event>
 7    1  0.2873461E-009  0.1041340E+03  0.7561462E-02  0.1271835E+00
          2   -1    0    0  501    0  0.00000000000E+00  0.00000000000E+00  0.13289688379E+03  0.13289688379E+03  0.00000000000E+00 0. -1.
         -2   -1    0    0    0  501 -0.00000000000E+00 -0.00000000000E+00 -0.11391368718E+03  0.11391368718E+03  0.00000000000E+00 0.  1.
         25    2    1    2    0    0 -0.30960295922E+02 -0.36481536391E+02  0.45395851001E+02  0.14141156759E+03  0.12508799199E+03 0.  0.
          5    1    3    3  502    0  0.28877677936E+02  0.26815595582E+02  0.36287103461E+02  0.53732883107E+02  0.41800000000E+01 0.  1.
         -5    1    3    3    0  502 -0.59837973858E+02 -0.63297131974E+02  0.91087475395E+01  0.87678684486E+02  0.41800000000E+01 0.  1.
        -11    1    1    2    0    0  0.17853607301E+02  0.55520474153E+02 -0.46645920234E+02  0.74680092517E+02  0.00000000000E+00 0.  1.
         11    1    1    2    0    0  0.13106688621E+02 -0.19038937762E+02  0.20233265840E+02  0.30718910857E+02  0.00000000000E+00 0. -1.
</event>
<event>
 7    1  0.2873461E-009  0.9294650E+02  0.7561462E-02  0.1295869E+00
          2   -1    0    0  501    0  0.00000000000E+00  0.00000000000E+00  0.80349501629E+02  0.80349501629E+02  0.00000000000E+00 0. -1.
         -2   -1    0    0    0  501 -0.00000000000E+00 -0.00000000000E+00 -0.16194613537E+03  0.16194613537E+03  0.00000000000E+00 0.  1.
         25    2    1    2    0    0  0.86255774804E+01  0.25726174380E+02 -0.21897612149E+02  0.12982195061E+03  0.12505197642E+03 0.  0.
          5    1    3    3  502    0  0.58236321419E+02 -0.48979708525E+01  0.15277883754E+02  0.60550354111E+02  0.41800000000E+01 0. -1.
         -5    1    3    3    0  502 -0.49610743939E+02  0.30624145233E+02 -0.37175495904E+02  0.69271596496E+02  0.41800000000E+01 0. -1.
        -11    1    1    2    0    0 -0.16982024859E+02  0.17757857197E+02 -0.63444094600E+02  0.68035900818E+02  0.00000000000E+00 0.  1.
         11    1    1    2    0    0  0.83564473786E+01 -0.43484031577E+02  0.37450730083E+01  0.44437785575E+02  0.00000000000E+00 0. -1.
</event>
<event>
 7    1  0.2873461E-009  0.1246013E+03  0.7561462E-02  0.1235694E+00
          1   -1    0    0  501    0  0.00000000000E+00  0.00000000000E+00  0.19221595612E+03  0.19221595612E+03  0.00000000000E+00 0. -1.
         -1   -1    0    0    0  501 -0.00000000000E+00 -0.00000000000E+00 -0.22058887349E+03  0.22058887349E+03  0.00000000000E+00 0.  1.
         25    2    1    2    0    0 -0.20681655353E+02 -0.76860582087E+02  0.14256793421E+03  0.20569124211E+03  0.12509193127E+03 0.  0.
          5    1    3    3  502    0  0.56841076212E+01  0.25927066333E+02  0.75376508869E+02  0.80022573924E+02  0.41800000000E+01 0.  1.
         -5    1    3    3    0  502 -0.26365762974E+02 -0.10278764842E+03  0.67191425343E+02  0.12566866819E+03  0.41800000000E+01 0.  1.
        -11    1    1    2    0    0  0.53692326495E+02  0.42404618690E+02 -0.11244373800E+03  0.13162299126E+03  0.00000000000E+00 0. -1.
         11    1    1    2    0    0 -0.33010671142E+02  0.34455963397E+02 -0.58497113587E+02  0.75490596241E+02  0.00000000000E+00 0.  1.
</event>
<event>
 7    1  0.2873461E-009  0.9415705E+02  0.7561462E-02  0.1293086E+00
          1   -1    0    0  501    0  0.00000000000E+00  0.00000000000E+00  0.64102247934E+02  0.64102247934E+02  0.00000000000E+00 0. -1.
         -1   -1    0    0    0  501 -0.00000000000E+00 -0.00000000000E+00 -0.34813660131E+03  0.34813660131E+03  0.00000000000E+00 0.  1.
         25    2    1    2    0    0 -0.30265627644E-01 -0.43522611891E+01 -0.13299015767E+02  0.12587018469E+03  0.12508995355E+03 0.  0.
          5    1    3    3  502    0 -0.15638664490E+02 -0.48064606943E+02  0.32735308467E+02  0.60364286528E+02  0.41800000000E+01 0.  1.
         -5    1    3    3    0  502  0.15608398862E+02  0.43712345754E+02 -0.46034324234E+02  0.65505898162E+02  0.41800000000E+01 0.  1.
        -11    1    1    2    0    0  0.24612875028E+02  0.40432486467E+02 -0.17234122183E+03  0.17872346327E+03  0.00000000000E+00 0.  1.
         11    1    1    2    0    0 -0.24582609400E+02 -0.36080225278E+02 -0.98394115778E+02  0.10764520129E+03  0.00000000000E+00 0. -1.
</event>
<event>
 6    1  0.2873461E-009  0.9185905E+02  0.7561462E-02  0.1298411E+00
          1   -1    0    0  501    0  0.00000000000E+00  0.00000000000E+00  0.47625922515E+03  0.47625922515E+03  0.00000000000E+00 0. -1.
         -1   -1    0    0    0  501 -0.00000000000E+00 -0.00000000000E+00 -0.32979093578E+02  0.32979093578E+02  0.00000000000E+00 0.  1.
          5    1    1    2  502    0 -0.51112601661E+02 -0.15762817199E+02  0.18164031414E+03  0.18939810077E+03  0.41800000000E+01 0. -1.
         -5    1    1    2    0  502  0.21128360893E+01  0.27576806360E+02 -0.93260835397E+01  0.29485463529E+02  0.41800000000E+01 0. -1.
        -11    1    1    2    0    0 -0.10451669982E+01 -0.43075862323E+02  0.14474602323E+03  0.15102328803E+03  0.00000000000E+00 0. -1.
         11    1    1    2    0    0  0.50044932570E+02  0.31261873162E+02  0.12621987775E+03  0.13933146640E+03  0.00000000000E+00 0.  1.
</event>
<event>
 7    1  0.2873461E-009  0.3901843E+03  0.7561462E-02  0.1047232E+00
          2   -1    0    0  501    0  0.00000000000E+00  0.00000000000E+00  0.48081074542E+03  0.48081074542E+03  0.00000000000E+00 0. -1.
         -2   -1    0    0    0  501 -0.00000000000E+00 -0.00000000000E+00 -0.41287221081E+03  0.41287221081E+03  0.00000000000E+00 0.  1.
         25    2    1    2    0    0  0.15644832950E+03 -0.35229568041E+03  0.23129222512E+03  0.46661481418E+03  0.12507983520E+03 0.  0.
          5    1    3    3  502    0  0.11356573253E+02 -0.30400829219E+02  0.72306953495E+02  0.79365925289E+02  0.41800000000E+01 0. -1.
         -5    1    3    3    0  502  0.14509175625E+03 -0.32189485119E+03  0.15898527162E+03  0.38724888889E+03  0.41800000000E+01 0. -1.
        -11    1    1    2    0    0 -0.10102105791E+03  0.12569767215E+03 -0.70189765189E+02  0.17587427913E+03  0.00000000000E+00 0. -1.
         11    1    1    2    0    0 -0.55427271593E+02  0.22659800826E+03 -0.93163925317E+02  0.25119386291E+03  0.00000000000E+00 0.  1.
</event>
<event>
 7    1  0.2873461E-009  0.2495898E+03  0.7561462E-02  0.1113564E+00
         -1   -1    0    0    0  501 -0.00000000000E+00  0.00000000000E+00  0.94878091027E+02  0.94878091027E+02  0.00000000000E+00 0.  1.
          1   -1    0    0  501    0  0.00000000000E+00 -0.00000000000E+00 -0.78105734602E+03  0.78105734602E+03  0.00000000000E+00 0. -1.
         25    2    1    2    0    0 -0.24792793957E+03 -0.12429574956E+02 -0.38979487083E+03  0.47875887507E+03  0.12508901460E+03 0.  0.
          5    1    3    3  502    0 -0.36965063200E+02 -0.72320225054E+01 -0.28661096595E+01  0.38005328988E+02  0.41800000000E+01 0. -1.
         -5    1    3    3    0  502 -0.21096287637E+03 -0.51975524510E+01 -0.38692876117E+03  0.44075354608E+03  0.41800000000E+01 0. -1.
        -11    1    1    2    0    0  0.11033272990E+03 -0.10070909343E+02 -0.69215763521E+02  0.13063520361E+03  0.00000000000E+00 0.  1.
         11    1    1    2    0    0  0.13759520968E+03  0.22500484299E+02 -0.22716862064E+03  0.26654135837E+03  0.00000000000E+00 0. -1.
</event>
<event>
 7    1  0.2873461E-009  0.1254771E+03  0.7561462E-02  0.1234325E+00
         -2   -1    0    0    0  501 -0.00000000000E+00  0.00000000000E+00  0.62443998744E+02  0.62443998744E+02  0.00000000000E+00 0.  1.
          2   -1    0    0  501    0  0.00000000000E+00 -0.00000000000E+00 -0.38418354660E+03  0.38418354660E+03  0.00000000000E+00 0. -1.
         25    2    1    2    0    0 -0.52726375868E+02 -0.97919202347E+02 -0.17977357191E+03  0.24562979998E+03  0.12508885075E+03 0.  0.
          5    1    3    3  502    0 -0.23206338612E+01 -0.79432815023E+02 -0.17416984822E+03  0.19148776952E+03  0.41800000000E+01 0.  1.
         -5    1    3    3    0  502 -0.50405742007E+02 -0.18486387325E+02 -0.56037236827E+01  0.54142030463E+02  0.41800000000E+01 0.  1.
        -11    1    1    2    0    0  0.22291356632E+02  0.98943796916E+01  0.69453168785E+01  0.25358248294E+02  0.00000000000E+00 0.  1.
         11    1    1    2    0    0  0.30435019236E+02  0.88024822656E+02 -0.14891129283E+03  0.17563949707E+03  0.00000000000E+00 0. -1.
</event>
<event>
 7    1  0.2873461E-009  0.1041773E+03  0.7561462E-02  0.1271749E+00
         -1   -1    0    0    0  501 -0.00000000000E+00  0.00000000000E+00  0.52970575296E+02  0.52970575296E+02  0.00000000000E+00 0.  1.
          1   -1    0    0  501    0  0.00000000000E+00 -0.00000000000E+00 -0.63306898552E+03  0.63306898552E+03  0.00000000000E+00 0. -1.
         25    2    1    2    0    0  0.55930330120E+02  0.59153018504E+02 -0.53634018867E+03  0.55671846401E+03  0.12508944305E+03 0.  0.
          5    1    3    3  502    0  0.22421800563E+02  0.58217553485E+01 -0.44537861271E+03  0.44600023659E+03  0.41800000000E+01 0. -1.
         -5    1    3    3    0  502  0.33508529557E+02  0.53331263155E+02 -0.90961575957E+02  0.11071822742E+03  0.41800000000E+01 0. -1.
        -11    1    1    2    0    0 -0.53230953794E+02  0.85691305002E+01 -0.19606892516E+02  0.57370677820E+02  0.00000000000E+00 0. -1.
         11    1    1    2    0    0 -0.26993763260E+01 -0.67722149004E+02 -0.24151329043E+02  0.71950418990E+02  0.00000000000E+00 0.  1.
</event>
<event>
 7    1  0.2873461E-009  0.7879945E+02  0.7561462E-02  0.1332493E+00
          1   -1    0    0  501    0  0.00000000000E+00  0.00000000000E+00  0.55052387351E+02  0.55052387351E+02  0.00000000000E+00 0. -1.
         -1   -1    0    0    0  501 -0.00000000000E+00 -0.00000000000E+00 -0.25396126778E+03  0.25396126778E+03  0.00000000000E+00 0.  1.
         25    2    1    2    0    0 -0.29152148906E+02 -0.19738485055E+01 -0.15845551650E+03  0.20398957542E+03  0.12509936974E+03 0.  0.
          5    1    3    3  502    0 -0.11125467824E+00  0.22395913397E+02  0.14415827661E+02  0.26960671387E+02  0.41800000000E+01 0. -1.
         -5    1    3    3    0  502 -0.29040894227E+02 -0.24369761902E+02 -0.17287134416E+03  0.17702890404E+03  0.41800000000E+01 0. -1.
        -11    1    1    2    0    0 -0.25140869874E+02 -0.25514684043E+02 -0.11406975026E+02  0.37592306648E+02  0.00000000000E+00 0.  1.
         11    1    1    2    0    0  0.54293018780E+02  0.27488532549E+02 -0.29046388909E+02  0.67431773064E+02  0.00000000000E+00 0. -1.
</event>
<event>
 7    1  0.2873461E-009  0.1652710E+03  0.7561462E-02  0.1182871E+00
          1   -1    0    0  501    0  0.00000000000E+00  0.00000000000E+00  0.41859758321E+03  0.41859758321E+03  0.00000000000E+00 0. -1.
         -1   -1    0    0    0  501 -0.00000000000E+00 -0.00000000000E+00 -0.67904912312E+02  0.67904912312E+02  0.00000000000E+00 0.  1.
         25    2    1    2    0    0 -0.12497859462E+03 -0.22726819660E+01  0.14758418327E+03  0.23033573638E+03  0.12509454866E+03 0.  0.
          5    1    3    3  502    0 -0.23897446284E+02  0.54451050693E+02  0.63376588811E+02  0.87006145012E+02  0.41800000000E+01 0. -1.
         -5    1    3    3    0  502 -0.10108114834E+03 -0.56723732659E+02  0.84207594460E+02  0.14332959136E+03  0.41800000000E+01 0. -1.
        -11    1    1    2    0    0 -0.65680693211E+01 -0.20425598826E+02  0.18368503544E+02  0.28244407313E+02  0.00000000000E+00 0. -1.
         11    1    1    2    0    0  0.13154666394E+03  0.22698280792E+02  0.18473998408E+03  0.22792235183E+03  0.00000000000E+00 0.  1.
</event>
<event>
 7    1  0.2873461E-009  0.1712429E+03  0.7561462E-02  0.1176558E+00
          3   -1    0    0  501    0  0.00000000000E+00  0.00000000000E+00  0.18469757164E+03  0.18469757164E+03  0.00000000000E+00 0. -1.
         -3   -1    0    0    0  501 -0.00000000000E+00 -0.00000000000E+00 -0.19008627060E+03  0.19008627060E+03  0.00000000000E+00 0.  1.
         25    2    1    2    0    0  0.15084694012E+03 -0.12557415700E+02 -0.15471413554E+02  0.19697512277E+03  0.12508935336E+03 0.  0.
          5    1    3    3  502    0  0.42063940024E+02 -0.33793337048E+02 -0.56945239837E+02  0.78559515142E+02  0.41800000000E+01 0.  1.
         -5    1    3    3    0  502  0.10878300009E+03  0.21235921348E+02  0.41473826283E+02  0.11841560763E+03  0.41800000000E+01 0.  1.
        -11    1    1    2    0    0 -0.11937543504E+03 -0.31356700825E+02  0.93205311567E+01  0.12377644962E+03  0.00000000000E+00 0.  1.
         11    1    1    2    0    0 -0.31471505072E+02  0.43914116526E+02  0.76218344436E+00  0.54032269852E+02  0.00000000000E+00 0. -1.
</event>
<event>
 7    1  0.2873461E-009  0.7838989E+02  0.7561462E-02  0.1333684E+00
         -1   -1    0    0    0  501 -0.00000000000E+00  0.00000000000E+00  0.53439396929E+02  0.53439396929E+02  0.00000000000E+00 0.  1.
          1   -1    0    0  501    0  0.00000000000E+00 -0.00000000000E+00 -0.25543809576E+03  0.25543809576E+03  0.00000000000E+00 0. -1.
         25    2    1    2    0    0 -0.99297824549E+01 -0.21952086110E+02 -0.16183164353E+03  0.20595469016E+03  0.12508940358E+03 0.  0.
          5    1    3    3  502    0  0.47804054801E+02 -0.17705989018E+02 -0.13012870133E+03  0.13982017384E+03  0.41800000000E+01 0.  1.
         -5    1    3    3    0  502 -0.57733837256E+02 -0.42460970920E+01 -0.31702942196E+02  0.66134516319E+02  0.41800000000E+01 0.  1.
        -11    1    1    2    0    0  0.25482880235E+02  0.18934581123E+02  0.22093312457E+02  0.38678288519E+02  0.00000000000E+00 0.  1.
         11    1    1    2    0    0 -0.15553097780E+02  0.30175049864E+01 -0.62260367755E+02  0.64244514006E+02  0.00000000000E+00 0. -1.
</event>
<event>
 7    1  0.2873461E-009  0.9093513E+02  0.7561462E-02  0.1300603E+00
          1   -1    0    0  501    0  0.00000000000E+00  0.00000000000E+00  0.93754787914E+02  0.93754787914E+02  0.00000000000E+00 0. -1.
         -1   -1    0    0    0  501 -0.00000000000E+00 -0.00000000000E+00 -0.11911485685E+03  0.11911485685E+03  0.00000000000E+00 0.  1.
         25    2    1    2    0    0 -0.36508023426E+02 -0.36715586122E+02 -0.11017692514E+01  0.13538407814E+03  0.12508702842E+03 0.  0.
          5    1    3    3  502    0 -0.63845473855E+02  0.65390855988E+00 -0.39406567346E+02  0.75146670440E+02  0.41800000000E+01 0.  1.
         -5    1    3    3    0  502  0.27337450429E+02 -0.37369494682E+02  0.38304798095E+02  0.60237407695E+02  0.41800000000E+01 0.  1.
        -11    1    1    2    0    0  0.46971091241E+02  0.18690090541E+02 -0.25472951434E+02  0.56608074968E+02  0.00000000000E+00 0. -1.
         11    1    1    2    0    0 -0.10463067815E+02  0.18025495582E+02  0.12146517527E+01  0.20877491659E+02  0.00000000000E+00 0.  1.
</event>
<event>
 7    1  0.2873461E-009  0.1392031E+03  0.7561462E-02  0.1214405E+00
          2   -1    0    0  501    0  0.00000000000E+00  0.00000000000E+00  0.15407778239E+03  0.15407778239E+03  0.00000000000E+00 0. -1.
         -2   -1    0    0    0  501 -0.00000000000E+00 -0.00000000000E+00 -0.21054879386E+03  0.21054879386E+03  0.00000000000E+00 0.  1.
         25    2    1    2    0    0  0.11424670975E+03 -0.42304076524E+02  0.45749191155E+02  0.18050662109E+03  0.12509079177E+03 0.  0.
          5    1    3    3  502    0  0.93514894317E+02 -0.17626595243E+02 -0.28525263806E+02  0.99432868782E+02  0.41800000000E+01 0. -1.
         -5    1    3    3    0  502  0.20731815431E+02 -0.24677481281E+02  0.74274454961E+02  0.81073752307E+02  0.41800000000E+01 0. -1.
        -11    1    1    2    0    0 -0.87796808096E+02 -0.13565211827E+02 -0.43724565267E+02  0.99015817380E+02  0.00000000000E+00 0. -1.
         11    1    1    2    0    0 -0.26449901653E+02  0.55869288350E+02 -0.58495637358E+02  0.85104137785E+02  0.00000000000E+00 0.  1.
</event>
<event>
 7    1  0.2873461E-009  0.1437232E+03  0.7561462E-02  0.1208405E+00
         -1   -1    0    0    0  501 -0.00000000000E+00  0.00000000000E+00  0.25631835534E+02  0.25631835534E+02  0.00000000000E+00 0.  1.
          1   -1    0    0  501    0  0.00000000000E+00 -0.00000000000E+00 -0.10013118594E+04  0.10013118594E+04  0.00000000000E+00 0. -1.
         25    2    1    2    0    0  0.23933918966E+02 -0.98706754096E+02 -0.33231789990E+03  0.36932172445E+03  0.12508994276E+03 0.  0.
          5    1    3    3  502    0  0.64952548293E+02 -0.28363063138E+02 -0.21525367609E+03  0.22666035020E+03  0.41800000000E+01 0.  1.
         -5    1    3    3    0  502 -0.41018629327E+02 -0.70343690958E+02 -0.11706422380E+03  0.14266137425E+03  0.41800000000E+01 0.  1.
        -11    1    1    2    0    0 -0.54019395898E+02  0.87449571058E+02 -0.52564282184E+03  0.53559863589E+03  0.00000000000E+00 0. -1.
         11    1    1    2    0    0  0.30085476932E+02  0.11257183037E+02 -0.11771930217E+03  0.12202333463E+03  0.00000000000E+00 0.  1.
</event>
<event>
 7    1  0.2873461E-009  0.1648478E+03  0.7561462E-02  0.1183330E+00
         -1   -1    0    0    0  501 -0.00000000000E+00  0.00000000000E+00  0.70506329458E+02  0.70506329458E+02  0.00000000000E+00 0.  1.
          1   -1    0    0  501    0  0.00000000000E+00 -0.00000000000E+00 -0.41508609360E+03  0.41508609360E+03  0.00000000000E+00 0. -1.
         25    2    1    2    0    0  0.11530061391E+03  0.48615100220E+02 -0.12260011719E+03  0.21525333992E+03  0.12508218128E+03 0.  0.
          5    1    3    3  502    0  0.23404009229E+02  0.75825423185E+02 -0.69708414614E+02  0.10570703816E+03  0.41800000000E+01 0.  1.
         -5    1    3    3    0  502  0.91896604678E+02 -0.27210322965E+02 -0.52891702572E+02  0.10954630176E+03  0.41800000000E+01 0.  1.
        -11    1    1    2    0    0 -0.64009597265E+02  0.21412940310E+02 -0.97400628017E+02  0.11850158182E+03  0.00000000000E+00 0. -1.
         11    1    1    2    0    0 -0.51291016642E+02 -0.70028040530E+02 -0.12457901894E+03  0.15183750133E+03  0.00000000000E+00 0.  1.
</event>
<event>
 7    1  0.2873461E-009  0.1309927E+03  0.7561462E-02  0.1225990E+00
         -1   -1    0    0    0  501 -0.00000000000E+00  0.00000000000E+00  0.27325656880E+02  0.27325656880E+02  0.00000000000E+00 0.  1.
          1   -1    0    0  501    0  0.00000000000E+00 -0.00000000000E+00 -0.87705379236E+03  0.87705379236E+03  0.00000000000E+00 0. -1.
         25    2    1    2    0    0  0.61958673381E+02 -0.88403817786E+02 -0.42599498643E+03  0.45691713488E+03  0.12508967777E+03 0.  0.
          5    1    3    3  502    0  0.31296528137E+02 -0.92834441700E+02 -0.15031813269E+03  0.17947345111E+03  0.41800000000E+01 0.  1.
         -5    1    3    3    0  502  0.30662145244E+02  0.44306239136E+01 -0.27567685374E+03  0.27744368377E+03  0.41800000000E+01 0.  1.
        -11    1    1    2    0    0 -0.45583645410E+02  0.29724057316E+01 -0.73091922894E+02  0.86192419139E+02  0.00000000000E+00 0.  1.
         11    1    1    2    0    0 -0.16375027972E+02  0.85431412054E+02 -0.35064122616E+03  0.36126989521E+03  0.00000000000E+00 0. -1.
</event>
<event>
 7    1  0.2873461E-009  0.1603594E+03  0.7561462E-02  0.1188292E+00
          1   -1    0    0  501    0  0.00000000000E+00  0.00000000000E+00  0.85788188365E+03  0.85788188365E+03  0.00000000000E+00 0. -1.
         -1   -1    0    0    0  501 -0.00000000000E+00 -0.00000000000E+00 -0.34924232272E+02  0.34924232272E+02  0.00000000000E+00 0.  1.
         25    2    1    2    0    0  0.75378558822E+02  0.10389265835E+03  0.53894672714E+03  0.56796636536E+03  0.12508639370E+03 0.  0.
          5    1    3    3  502    0  0.88207127910E+02  0.17070679103E+02  0.23687599451E+03  0.25337642881E+03  0.41800000000E+01 0. -1.
         -5    1    3    3    0  502 -0.12828569088E+02  0.86821979245E+02  0.30207073263E+03  0.31458993655E+03  0.41800000000E+01 0. -1.
        -11    1    1    2    0    0 -0.62529149444E+02 -0.32685759975E+02  0.71941761222E+02  0.10076641525E+03  0.00000000000E+00 0.  1.
         11    1    1    2    0    0 -0.12849409378E+02 -0.71206898372E+02  0.21206916301E+03  0.22407333531E+03  0.00000000000E+00 0. -1.
</event>
<event>
 7    1  0.2873461E-009  0.1148538E+03  0.7561462E-02  0.1251836E+00
          1   -1    0    0  501    0  0.00000000000E+00  0.00000000000E+00  0.46389661371E+03  0.46389661371E+03  0.00000000000E+00 0. -1.
         -1   -1    0    0    0  501 -0.00000000000E+00 -0.00000000000E+00 -0.38990509243E+02  0.38990509243E+02  0.00000000000E+00 0.  1.
         25    2    1    2    0    0  0.50274711455E+02 -0.24053659799E+02  0.12756344140E+03  0.18715324333E+03  0.12509108579E+03 0.  0.
          5    1    3    3  502    0 -0.37832594649E+02 -0.19364402592E+02  0.69085274298E+02  0.81219042290E+02  0.41800000000E+01 0. -1.
         -5    1    3    3    0  502  0.88107306104E+02 -0.46892572069E+01  0.58478167097E+02  0.10593420104E+03  0.41800000000E+01 0. -1.
        -11    1    1    2    0    0  0.22703811806E+02  0.50404875809E+01  0.13161785923E+03  0.13365676360E+03  0.00000000000E+00 0.  1.
         11    1    1    2    0    0 -0.72978523260E+02  0.19013172218E+02  0.16572480384E+03  0.18207711603E+03  0.00000000000E+00 0. -1.
</event>
<event>
 7    1  0.2873461E-009  0.1674704E+03  0.7561462E-02  0.1180512E+00
         -2   -1    0    0    0  501 -0.00000000000E+00  0.00000000000E+00  0.24664428392E+03  0.24664428392E+03  0.00000000000E+00 0.  1.
          2   -1    0    0  501    0  0.00000000000E+00 -0.00000000000E+00 -0.15145839550E+03  0.15145839550E+03  0.00000000000E+00 0. -1.
         25    2    1    2    0    0  0.31378553340E+02 -0.13485069242E+03  0.13228173209E+03  0.22872350345E+03  0.12508661611E+03 0.  0.
          5    1    3    3  502    0  0.78039445783E+02 -0.75243420627E+02  0.95168559836E+02  0.14431304386E+03  0.41800000000E+01 0. -1.
         -5    1    3    3    0  502 -0.46660892443E+02 -0.59607271790E+02  0.37113172252E+02  0.84410459592E+02  0.41800000000E+01 0. -1.
        -11    1    1    2    0    0 -0.13214245166E+02 -0.13055116169E+01  0.17153260943E+02  0.21692279661E+02  0.00000000000E+00 0.  1.
         11    1    1    2    0    0 -0.18164308173E+02  0.13615620403E+03 -0.54249104612E+02  0.14768689630E+03  0.00000000000E+00 0. -1.
</event>
<event>
 7    1  0.2873461E-009  0.1134561E+03  0.7561462E-02  0.1254300E+00
          4   -1    0    0  501    0  0.00000000000E+00  0.00000000000E+00  0.72629511566E+02  0.72629511566E+02  0.00000000000E+00 0.  1.
         -4   -1    0    0    0  501 -0.00000000000E+00 -0.00000000000E+00 -0.29273215349E+03  0.29273215349E+03  0.00000000000E+00 0. -1.
         25    2    1    2    0    0  0.49514982135E+02  0.83597233984E+02 -0.12233093509E+03  0.20013232369E+03  0.12509139986E+03 0.  0.
          5    1    3    3  502    0  0.63046551235E+01 -0.89144513652E+01  0.21039431373E+02  0.24069611378E+02  0.41800000000E+01 0. -1.
         -5    1    3    3    0  502  0.43210327011E+02  0.92511685349E+02 -0.14337036647E+03  0.17606271231E+03  0.41800000000E+01 0. -1.
        -11    1    1    2    0    0 -0.31906461126E+02 -0.47716246826E+01  0.69275604365E+01  0.32996693127E+02  0.00000000000E+00 0.  1.
         11    1    1    2    0    0 -0.17608521008E+02 -0.78825609301E+02 -0.10469926727E+03  0.13223264824E+03  0.00000000000E+00 0. -1.
</event>
<event>
 7    1  0.2873461E-009  0.1967331E+03  0.7561462E-02  0.1152525E+00
         -1   -1    0    0    0  501 -0.00000000000E+00  0.00000000000E+00  0.96099099761E+02  0.96099099761E+02  0.00000000000E+00 0.  1.
          1   -1    0    0  501    0  0.00000000000E+00 -0.00000000000E+00 -0.81146924742E+03  0.81146924742E+03  0.00000000000E+00 0. -1.
         25    2    1    2    0    0  0.21503932775E+01  0.17683600979E+03 -0.61800780713E+02  0.22525407377E+03  0.12507782659E+03 0.  0.
          5    1    3    3  502    0  0.46450296659E+02  0.15343566459E+02 -0.14486316716E+02  0.51189655824E+02  0.41800000000E+01 0. -1.
         -5    1    3    3    0  502 -0.44299903381E+02  0.16149244333E+03 -0.47314463997E+02  0.17406441795E+03  0.41800000000E+01 0. -1.
        -11    1    1    2    0    0  0.54306879189E-01 -0.68868116526E+02 -0.12394830390E+03  0.14179563626E+03  0.00000000000E+00 0.  1.
         11    1    1    2    0    0 -0.22047001566E+01 -0.10796789327E+03 -0.52962106305E+03  0.54051863715E+03  0.00000000000E+00 0. -1.
</event>
<event>
 7    1  0.2873461E-009  0.9879663E+02  0.7561462E-02  0.1282847E+00
          1   -1    0    0  501    0  0.00000000000E+00  0.00000000000E+00  0.42365695031E+03  0.42365695031E+03  0.00000000000E+00 0. -1.
         -1   -1    0    0    0  501 -0.00000000000E+00 -0.00000000000E+00 -0.32531427067E+02  0.32531427067E+02  0.00000000000E+00 0.  1.
         25    2    1    2    0    0 -0.33973268545E+02 -0.27855902507E+02  0.23909861276E+03  0.27339658602E+03  0.12508961724E+03 0.  0.
          5    1    3    3  502    0 -0.65274883130E+02 -0.33442862923E+02  0.70649396054E+02  0.10192175926E+03  0.41800000000E+01 0. -1.
         -5    1    3    3    0  502  0.31301614585E+02  0.55869604165E+01  0.16844921671E+03  0.17147482676E+03  0.41800000000E+01 0. -1.
        -11    1    1    2    0    0  0.60854221590E+02  0.18665519326E+02  0.63876425516E+02  0.90176691189E+02  0.00000000000E+00 0.  1.
         11    1    1    2    0    0 -0.26880953046E+02  0.91903831813E+01  0.88150484963E+02  0.92615100167E+02  0.00000000000E+00 0. -1.
</event>
<event>
 7    1  0.2873461E-009  0.2526200E+03  0.7561462E-02  0.1111660E+00
          3   -1    0    0  501    0  0.00000000000E+00  0.00000000000E+00  0.54675475114E+02  0.54675475114E+02  0.00000000000E+00 0. -1.
         -3   -1    0    0    0  501 -0.00000000000E+00 -0.00000000000E+00 -0.12867042752E+04  0.12867042752E+04  0.00000000000E+00 0.  1.
         25    2    1    2    0    0  0.60424073891E+01  0.23220718117E+03 -0.80014180676E+03  0.84251461042E+03  0.12508905699E+03 0.  0.
          5    1    3    3  502    0  0.43731125553E+02  0.20861794003E+02 -0.16825560309E+03  0.17514293067E+03  0.41800000000E+01 0.  1.
         -5    1    3    3    0  502 -0.37688718164E+02  0.21134538716E+03 -0.63188620367E+03  0.66737167976E+03  0.41800000000E+01 0.  1.
        -11    1    1    2    0    0  0.30725984916E+02 -0.95429466075E+02 -0.12029766938E+03  0.15659629115E+03  0.00000000000E+00 0.  1.
         11    1    1    2    0    0 -0.36768392305E+02 -0.13677771509E+03 -0.31158932393E+03  0.34226884872E+03  0.00000000000E+00 0. -1.
</event>
<event>
 7    1  0.2873461E-009  0.1710451E+03  0.7561462E-02  0.1176762E+00
          2   -1    0    0  501    0  0.00000000000E+00  0.00000000000E+00  0.44060045239E+03  0.44060045239E+03  0.00000000000E+00 0. -1.
         -2   -1    0    0    0  501 -0.00000000000E+00 -0.00000000000E+00 -0.92222570901E+02  0.92222570901E+02  0.00000000000E+00 0.  1.
         25    2    1    2    0    0  0.13052075580E+03 -0.66993590314E+02  0.66850610908E+02  0.20406566784E+03  0.12509989518E+03 0.  0.
          5    1    3    3  502    0  0.14293102114E+03 -0.47658528640E+02  0.86292730911E+02  0.17367935964E+03  0.41800000000E+01 0. -1.
         -5    1    3    3    0  502 -0.12410265340E+02 -0.19335061675E+02 -0.19442120002E+02  0.30386308199E+02  0.41800000000E+01 0. -1.
        -11    1    1    2    0    0 -0.94182103019E+02  0.27718165382E+01  0.13407302611E+03  0.16387046050E+03  0.00000000000E+00 0.  1.
         11    1    1    2    0    0 -0.36338652782E+02  0.64221773776E+02  0.14745424447E+03  0.16488689495E+03  0.00000000000E+00 0. -1.
</event>
<event>
 7    1  0.2873461E-009  0.9924389E+02  0.7561462E-02  0.1281894E+00
         -1   -1    0    0    0  501 -0.00000000000E+00  0.00000000000E+00  0.27750651160E+03  0.27750651160E+03  0.00000000000E+00 0.  1.
          1   -1    0    0  501    0  0.00000000000E+00 -0.00000000000E+00 -0.43023899139E+02  0.43023899139E+02  0.00000000000E+00 0. -1.
         25    2    1    2    0    0 -0.20346140143E+02 -0.22966905893E+02  0.10126987831E+03  0.16383962632E+03  0.12508553359E+03 0.  0.
          5    1    3    3  502    0 -0.40177288120E+02  0.42212267933E+02  0.32106067964E+02  0.66666048667E+02  0.41800000000E+01 0. -1.
         -5    1    3    3    0  502  0.19831147977E+02 -0.65179173827E+02  0.69163810351E+02  0.97173577648E+02  0.41800000000E+01 0. -1.
        -11    1    1    2    0    0  0.25077553110E+02 -0.17807319849E+02  0.21096895385E+02  0.37296961070E+02  0.00000000000E+00 0. -1.
         11    1    1    2    0    0 -0.47314129675E+01  0.40774225742E+02  0.11211583876E+03  0.11939382335E+03  0.00000000000E+00 0.  1.
</event>
<event>
 7    1  0.2873461E-009  0.8094914E+02  0.7561462E-02  0.1326379E+00
          2   -1    0    0  501    0  0.00000000000E+00  0.00000000000E+00  0.91549266137E+03  0.91549266137E+03  0.00000000000E+00 0.  1.
         -2   -1    0    0    0  501 -0.00000000000E+00 -0.00000000000E+00 -0.22416276439E+02  0.22416276439E+02  0.00000000000E+00 0. -1.
         25    2    1    2    0    0  0.44457600922E+02  0.12399477689E+02  0.72478404212E+03  0.73694849248E+03  0.12510374704E+03 0.  0.
          5    1    3    3  502    0 -0.11472537820E+02  0.15130267799E+02  0.59764624599E+03  0.59796241677E+03  0.41800000000E+01 0.  1.
         -5    1    3    3    0  502  0.55930138742E+02 -0.27307901105E+01  0.12713779614E+03  0.13898607571E+03  0.41800000000E+01 0.  1.
        -11    1    1    2    0    0 -0.32165980964E+02 -0.42783814585E+02  0.35610247250E+02  0.64289927913E+02  0.00000000000E+00 0. -1.
         11    1    1    2    0    0 -0.12291619958E+02  0.30384336896E+02  0.13268209556E+03  0.13667051742E+03  0.00000000000E+00 0.  1.
</event>
<event>
 7    1  0.2873461E-009  0.1590498E+03  0.7561462E-02  0.1189774E+00
          2   -1    0    0  501    0  0.00000000000E+00  0.00000000000E+00  0.64633867014E+03  0.64633867014E+03  0.00000000000E+00 0.  1.
         -2   -1    0    0    0  501 -0.00000000000E+00 -0.00000000000E+00 -0.49598207545E+02  0.49598207545E+02  0.00000000000E+00 0. -1.
         25    2    1    2    0    0 -0.11893175157E+03 -0.35485403133E+02  0.44844264587E+03  0.48182427641E+03  0.12509936585E+03 0.  0.
          5    1    3    3  502    0 -0.78142089397E+01 -0.61322705571E+02  0.14998471652E+03  0.16227884542E+03  0.41800000000E+01 0. -1.
         -5    1    3    3    0  502 -0.11111754263E+03  0.25837302438E+02  0.29845792935E+03  0.31954543100E+03  0.41800000000E+01 0. -1.
        -11    1    1    2    0    0  0.67576512244E+02  0.54912569543E+02  0.47144703996E+02  0.99018172149E+02  0.00000000000E+00 0. -1.
         11    1    1    2    0    0  0.51355239327E+02 -0.19427166410E+02  0.10115311273E+03  0.11509442913E+03  0.00000000000E+00 0.  1.
</event>
<event>
 7    1  0.2873461E-009  0.1061295E+03  0.7561462E-02  0.1267910E+00
          1   -1    0    0  501    0  0.00000000000E+00  0.00000000000E+00  0.14728185185E+03  0.14728185185E+03  0.00000000000E+00 0. -1.
         -1   -1    0    0    0  501 -0.00000000000E+00 -0.00000000000E+00 -0.13001138643E+03  0.13001138643E+03  0.00000000000E+00 0.  1.
         25    2    1    2    0    0 -0.71698765296E+02  0.29453755599E+02  0.45196211597E+02  0.15395292707E+03  0.12510223638E+03 0.  0.
          5    1    3    3  502    0 -0.99812505820E+01  0.61998567964E+02  0.54734598159E+02  0.83407412311E+02  0.41800000000E+01 0.  1.
         -5    1    3    3    0  502 -0.61717514714E+02 -0.32544812365E+02 -0.95383865612E+01  0.70545514759E+02  0.41800000000E+01 0.  1.
        -11    1    1    2    0    0  0.44800939362E+02 -0.91526328533E+01 -0.60924384862E+02  0.76175294727E+02  0.00000000000E+00 0.  1.
         11    1    1    2    0    0  0.26897825935E+02 -0.20301122746E+02  0.32998638683E+02  0.47165016481E+02  0.00000000000E+00 0. -1.
</event>
<event>
 7    1  0.2873461E-009  0.9326213E+02  0.7561462E-02  0.1295139E+00
         -2   -1    0    0    0  501 -0.00000000000E+00  0.00000000000E+00  0.70910880831E+02  0.70910880831E+02  0.00000000000E+00 0.  1.
          2   -1    0    0  501    0  0.00000000000E+00 -0.00000000000E+00 -0.16513836524E+03  0.16513836524E+03  0.00000000000E+00 0. -1.
         25    2    1    2    0    0  0.52535244531E+01 -0.92697611765E+01 -0.55638662772E+02  0.13732194385E+03  0.12509247570E+03 0.  0.
          5    1    3    3  502    0 -0.58550142098E+02 -0.14677064062E+02 -0.35081449797E+02  0.69940802605E+02  0.41800000000E+01 0.  1.
         -5    1    3    3    0  502  0.63803666551E+02  0.54073028857E+01 -0.20557212976E+02  0.67381141243E+02  0.41800000000E+01 0.  1.
        -11    1    1    2    0    0  0.19440392775E+02  0.25673616078E+02 -0.55815790639E+02  0.64439630030E+02  0.00000000000E+00 0. -1.
         11    1    1    2    0    0 -0.24693917228E+02 -0.16403854902E+02  0.17226968998E+02  0.34287672195E+02  0.00000000000E+00 0.  1.
</event>
<event>
 7    1  0.2873461E-009  0.1161653E+03  0.7561462E-02  0.1249561E+00
         -1   -1    0    0    0  501 -0.00000000000E+00  0.00000000000E+00  0.23289748262E+02  0.23289748262E+02  0.00000000000E+00 0.  1.
          1   -1    0    0  501    0  0.00000000000E+00 -0.00000000000E+00 -0.95691834430E+03  0.95691834430E+03  0.00000000000E+00 0. -1.
         25    2    1    2    0    0 -0.76680848754E+02 -0.56897867093E+02 -0.64039850956E+03  0.65945204613E+03  0.12509768288E+03 0.  0.
          5    1    3    3  502    0 -0.21648667027E+02 -0.55010308610E+02 -0.55233997331E+03  0.55551032155E+03  0.41800000000E+01 0. -1.
         -5    1    3    3    0  502 -0.55032181727E+02 -0.18875584835E+01 -0.88058536250E+02  0.10394172458E+03  0.41800000000E+01 0. -1.
        -11    1    1    2    0    0  0.53563233038E+02  0.72362655193E+02 -0.26968271296E+03  0.28431345284E+03  0.00000000000E+00 0. -1.
         11    1    1    2    0    0  0.23117615716E+02 -0.15464788099E+02 -0.23547373528E+02  0.36442593588E+02  0.00000000000E+00 0.  1.
</event>
<event>
 7    1  0.2873461E-009  0.8903217E+02  0.7561462E-02  0.1305213E+00
          1   -1    0    0  501    0  0.00000000000E+00  0.00000000000E+00  0.19980570126E+03  0.19980570126E+03  0.00000000000E+00 0. -1.
         -1   -1    0    0    0  501 -0.00000000000E+00 -0.00000000000E+00 -0.48483822563E+02  0.48483822563E+02  0.00000000000E+00 0.  1.
         25    2    1    2    0    0 -0.34088574848E+02  0.88041706682E+01  0.77800400399E+02  0.15146113212E+03  0.12509207763E+03 0.  0.
          5    1    3    3  502    0 -0.39160519950E+01  0.58666699903E+02  0.71540188222E+02  0.92696213901E+02  0.41800000000E+01 0.  1.
         -5    1    3    3    0  502 -0.30172522853E+02 -0.49862529235E+02  0.62602121773E+01  0.58764918221E+02  0.41800000000E+01 0.  1.
        -11    1    1    2    0    0 -0.12865434637E+02  0.25623097446E+00  0.62852711942E+01  0.14320953065E+02  0.00000000000E+00 0.  1.
         11    1    1    2    0    0  0.46954009485E+02 -0.90604016426E+01  0.67236207106E+02  0.82507438639E+02  0.00000000000E+00 0. -1.
</event>
<event>
 7    1  0.2873461E-009  0.1211577E+03  0.7561462E-02  0.1241199E+00
          1   -1    0    0  501    0  0.00000000000E+00  0.00000000000E+00  0.11368416619E+04  0.11368416619E+04  0.00000000000E+00 0. -1.
         -1   -1    0    0    0  501 -0.00000000000E+00 -0.00000000000E+00 -0.27563542973E+02  0.27563542973E+02  0.00000000000E+00 0.  1.
         25    2    1    2    0    0  0.82364112056E+02  0.85977434989E+01  0.95395702588E+03  0.96568062365E+03  0.12508913429E+03 0.  0.
          5    1    3    3  502    0  0.97404949994E+02 -0.25588521982E+02  0.49327330461E+03  0.50346650552E+03  0.41800000000E+01 0. -1.
         -5    1    3    3    0  502 -0.15040837938E+02  0.34186265481E+02  0.46068372126E+03  0.46221411812E+03  0.41800000000E+01 0. -1.
        -11    1    1    2    0    0  0.62612828195E+01  0.11470171424E+02  0.78950701889E+02  0.80024882529E+02  0.00000000000E+00 0. -1.
         11    1    1    2    0    0 -0.88625394876E+02 -0.20067914923E+02  0.76370391173E+02  0.11869969871E+03  0.00000000000E+00 0.  1.
</event>
<event>
 7    1  0.2873461E-009  0.7090603E+02  0.7561462E-02  0.1357039E+00
          2   -1    0    0  501    0  0.00000000000E+00  0.00000000000E+00  0.73225863764E+02  0.73225863764E+02  0.00000000000E+00 0. -1.
         -2   -1    0    0    0  501 -0.00000000000E+00 -0.00000000000E+00 -0.16229912990E+03  0.16229912990E+03  0.00000000000E+00 0.  1.
         25    2    1    2    0    0  0.62611790799E+01 -0.31815627021E+02 -0.66691177607E+02  0.14541975203E+03  0.12509098538E+03 0.  0.
          5    1    3    3  502    0  0.12341486713E+02 -0.51313613216E+02  0.19745551871E+02  0.56504499062E+02  0.41800000000E+01 0. -1.
         -5    1    3    3    0  502 -0.60803076327E+01  0.19497986195E+02 -0.86436729479E+02  0.88915252963E+02  0.41800000000E+01 0. -1.
        -11    1    1    2    0    0 -0.30575233883E+02  0.36161502597E+01  0.17605479765E+02  0.35466524885E+02  0.00000000000E+00 0. -1.
         11    1    1    2    0    0  0.24314054803E+02  0.28199476761E+02 -0.39987568299E+02  0.54638716759E+02  0.00000000000E+00 0.  1.
</event>
<event>
 7    1  0.2873461E-009  0.1280642E+03  0.7561462E-02  0.1230357E+00
          1   -1    0    0  501    0  0.00000000000E+00  0.00000000000E+00  0.22861299241E+03  0.22861299241E+03  0.00000000000E+00 0. -1.
         -1   -1    0    0    0  501 -0.00000000000E+00 -0.00000000000E+00 -0.77379713986E+02  0.77379713986E+02  0.00000000000E+00 0.  1.
         25    2    1    2    0    0  0.30984527873E+02 -0.67825002623E+02  0.92393650736E+02  0.17246271852E+03  0.12508609290E+03 0.  0.
          5    1    3    3  502    0  0.76659155770E+02 -0.47154415691E+02  0.36358104778E+02  0.97157342829E+02  0.41800000000E+01 0. -1.
         -5    1    3    3    0  502 -0.45674627897E+02 -0.20670586932E+02  0.56035545959E+02  0.75305375695E+02  0.41800000000E+01 0. -1.
        -11    1    1    2    0    0  0.63809597466E+01  0.76986080862E+02  0.22138537408E+02  0.80359741988E+02  0.00000000000E+00 0.  1.
         11    1    1    2    0    0 -0.37365487620E+02 -0.91610782391E+01  0.36701090279E+02  0.53170245883E+02  0.00000000000E+00 0. -1.
</event>
<event>
 7    1  0.2873461E-009  0.1062084E+03  0.7561462E-02  0.1267757E+00
          2   -1    0    0  501    0  0.00000000000E+00  0.00000000000E+00  0.42949758965E+02  0.42949758965E+02  0.00000000000E+00 0. -1.
         -2   -1    0    0    0  501 -0.00000000000E+00 -0.00000000000E+00 -0.32601864748E+03  0.32601864748E+03  0.00000000000E+00 0.  1.
         25    2    1    2    0    0  0.25446491647E+02 -0.34503096064E+02 -0.13277377779E+03  0.18738801299E+03  0.12508958298E+03 0.  0.
          5    1    3    3  502    0  0.69938785640E+02 -0.38808676030E+02 -0.53609475248E+02  0.96379434053E+02  0.41800000000E+01 0.  1.
         -5    1    3    3    0  502 -0.44492293993E+02  0.43055799661E+01 -0.79164302543E+02  0.91008578940E+02  0.41800000000E+01 0.  1.
        -11    1    1    2    0    0 -0.31296653009E+02 -0.16984950987E+02 -0.18850852104E+02  0.40290491120E+02  0.00000000000E+00 0. -1.
         11    1    1    2    0    0  0.58501613622E+01  0.51488047051E+02 -0.13144425862E+03  0.14128990233E+03  0.00000000000E+00 0.  1.
</event>
<event>
 7    1  0.2873461E-009  0.2354223E+03  0.7561462E-02  0.1122880E+00
         -1   -1    0    0    0  501 -0.00000000000E+00  0.00000000000E+00  0.66146598985E+02  0.66146598985E+02  0.00000000000E+00 0.  1.
          1   -1    0    0  501    0  0.00000000000E+00 -0.00000000000E+00 -0.94320997344E+03  0.94320997344E+03  0.00000000000E+00 0. -1.
         25    2    1    2    0    0  0.16425124658E+03  0.14910455878E+03 -0.38872405916E+03  0.46471911289E+03  0.12508724261E+03 0.  0.
          5    1    3    3  502    0  0.17884891725E+03  0.12639414609E+03 -0.37465853158E+03  0.43399182372E+03  0.41800000000E+01 0.  1.
         -5    1    3    3    0  502 -0.14597670674E+02  0.22710412693E+02 -0.14065527577E+02  0.30727289171E+02  0.41800000000E+01 0.  1.
        -11    1    1    2    0    0 -0.54951338075E+02 -0.29165166070E+02 -0.24038316407E+03  0.24830288366E+03  0.00000000000E+00 0. -1.
         11    1    1    2    0    0 -0.10929990851E+03 -0.11993939271E+03 -0.24795615123E+03  0.29633457587E+03  0.00000000000E+00 0.  1.
</event>
<event>
 7    1  0.2873461E-009  0.1455704E+03  0.7561462E-02  0.1206024E+00
          2   -1    0    0  501    0  0.00000000000E+00  0.00000000000E+00  0.57826230315E+03  0.57826230315E+03  0.00000000000E+00 0. -1.
         -2   -1    0    0    0  501 -0.00000000000E+00 -0.00000000000E+00 -0.38345750449E+02  0.38345750449E+02  0.00000000000E+00 0.  1.
         25    2    1    2    0    0 -0.96729041117E+02  0.19000854161E+02  0.23827261797E+03  0.28659905822E+03  0.12509052660E+03 0.  0.
          5    1    3    3  502    0  0.29985014089E+02 -0.26577426838E+01  0.52135330282E+02  0.60346745808E+02  0.41800000000E+01 0. -1.
         -5    1    3    3    0  502 -0.12671405521E+03  0.21658596845E+02  0.18613728769E+03  0.22625231241E+03  0.41800000000E+01 0. -1.
        -11    1    1    2    0    0  0.23870519336E+02  0.34347648895E+02  0.72298987472E+02  0.83526679974E+02  0.00000000000E+00 0. -1.
         11    1    1    2    0    0  0.72858521781E+02 -0.53348503056E+02  0.22934494726E+03  0.24648231541E+03  0.00000000000E+00 0.  1.
</event>
<event>
 7    1  0.2873461E-009  0.1485473E+03  0.7561462E-02  0.1202269E+00
          1   -1    0    0  501    0  0.00000000000E+00  0.00000000000E+00  0.11508143872E+03  0.11508143872E+03  0.00000000000E+00 0. -1.
         -1   -1    0    0    0  501 -0.00000000000E+00 -0.00000000000E+00 -0.23537156090E+03  0.23537156090E+03  0.00000000000E+00 0.  1.
         25    2    1    2    0    0 -0.10680297836E+03  0.58602603120E+02 -0.58267936261E+02  0.18407335997E+03  0.12508680256E+03 0.  0.
          5    1    3    3  502    0 -0.85097109880E+02  0.94663733233E+02 -0.61931364436E+02  0.14161817256E+03  0.41800000000E+01 0.  1.
         -5    1    3    3    0  502 -0.21705868475E+02 -0.36061130113E+02  0.36634281745E+01  0.42455187402E+02  0.41800000000E+01 0.  1.
        -11    1    1    2    0    0  0.10099808460E+03 -0.41172271341E+02 -0.80477129561E+01  0.10936422954E+03  0.00000000000E+00 0. -1.
         11    1    1    2    0    0  0.58048937569E+01 -0.17430331778E+02 -0.53974472971E+02  0.57015410110E+02  0.00000000000E+00 0.  1.
</event>
<event>
 7    1  0.2873461E-009  0.2554763E+03  0.7561462E-02  0.1109892E+00
         -1   -1    0    0    0  501 -0.00000000000E+00  0.00000000000E+00  0.31886423573E+02  0.31886423573E+02  0.00000000000E+00 0.  1.
          1   -1    0    0  501    0  0.00000000000E+00 -0.00000000000E+00 -0.22527434686E+04  0.22527434686E+04  0.00000000000E+00 0. -1.
         25    2    1    2    0    0 -0.20097718912E+02 -0.24499734880E+03 -0.11108218575E+04  0.11445527917E+04  0.12509306375E+03 0.  0.
          5    1    3    3  502    0  0.24514166059E+02 -0.10720554604E+03 -0.70719442102E+03  0.71570622113E+03  0.41800000000E+01 0.  1.
         -5    1    3    3    0  502 -0.44611884971E+02 -0.13779180275E+03 -0.40362743647E+03  0.42884657054E+03  0.41800000000E+01 0.  1.
        -11    1    1    2    0    0 -0.15500898519E+02  0.18911255914E+03 -0.90211715894E+03  0.92185639138E+03  0.00000000000E+00 0. -1.
         11    1    1    2    0    0  0.35598617430E+02  0.55884789653E+02 -0.20791802863E+03  0.21822070916E+03  0.00000000000E+00 0.  1.
</event>
<event>
 7    1  0.2873461E-009  0.2631859E+03  0.7561462E-02  0.1105244E+00
          1   -1    0    0  501    0  0.00000000000E+00  0.00000000000E+00  0.32398257274E+04  0.32398257274E+04  0.00000000000E+00 0. -1.
         -1   -1    0    0    0  501 -0.00000000000E+00 -0.00000000000E+00 -0.34106107359E+02  0.34106107359E+02  0.00000000000E+00 0.  1.
         25    2    1    2    0    0 -0.18892831476E+03 -0.15392347613E+03  0.26059118878E+04  0.26202689759E+04  0.12508554732E+03 0.  0.
          5    1    3    3  502    0 -0.62318804354E+02 -0.12117048232E+03  0.16174858583E+04  0.16232202233E+04  0.41800000000E+01 0. -1.
         -5    1    3    3    0  502 -0.12660951040E+03 -0.32752993807E+02  0.98842602953E+03  0.99704875255E+03  0.41800000000E+01 0. -1.
        -11    1    1    2    0    0  0.16213629122E+03  0.80444816325E+02  0.43885872608E+03  0.47471731258E+03  0.00000000000E+00 0.  1.
         11    1    1    2    0    0  0.26792023540E+02  0.73478659802E+02  0.16094900616E+03  0.17894554634E+03  0.00000000000E+00 0. -1.
</event>
<event>
 7    1  0.3083880E-009  0.1296611E+03  0.7561462E-02  0.1227959E+00
         -1   -1    0    0    0  501 -0.00000000000E+00  0.00000000000E+00  0.37517802084E+02  0.37517802084E+02  0.00000000000E+00 0.  1.
          1   -1    0    0  501    0  0.00000000000E+00 -0.00000000000E+00 -0.88119541738E+03  0.88119541738E+03  0.00000000000E+00 0. -1.
         25    2    1    2    0    0  0.10272262446E+03 -0.21895188944E+01 -0.70597054861E+03  0.72429167466E+03  0.12508909990E+03 0.  0.
          5    1    3    3  502    0  0.50097138965E+02  0.55187669190E+02 -0.22548510538E+03  0.23752138285E+03  0.41800000000E+01 0. -1.
         -5    1    3    3    0  502  0.52625485495E+02 -0.57377188085E+02 -0.48048544323E+03  0.48677029181E+03  0.41800000000E+01 0. -1.
        -11    1    1    2    0    0 -0.31546634090E+02 -0.12662695253E+02  0.49038627321E+01  0.34345041028E+02  0.00000000000E+00 0.  1.
         11    1    1    2    0    0 -0.71175990370E+02  0.14852214148E+02 -0.14261092942E+03  0.16007650377E+03  0.00000000000E+00 0. -1.
</event>
<event>
 7    1  0.2873461E-009  0.9521965E+02  0.7561462E-02  0.1290682E+00
          2   -1    0    0  501    0  0.00000000000E+00  0.00000000000E+00  0.33343584997E+03  0.33343584997E+03  0.00000000000E+00 0.  1.
         -2   -1    0    0    0  501 -0.00000000000E+00 -0.00000000000E+00 -0.37082860585E+02  0.37082860585E+02  0.00000000000E+00 0. -1.
         25    2    1    2    0    0 -0.31530597483E+02 -0.12989654966E+02  0.16447369263E+03  0.20942759478E+03  0.12508162205E+03 0.  0.
          5    1    3    3  502    0 -0.14634123900E+02 -0.68740520964E+02  0.10162765024E+03  0.12363279702E+03  0.41800000000E+01 0.  1.
         -5    1    3    3    0  502 -0.16896473583E+02  0.55750865999E+02  0.62846042387E+02  0.85794797761E+02  0.41800000000E+01 0.  1.
        -11    1    1    2    0    0  0.18867390005E+02 -0.19272760235E+02  0.12215093876E+03  0.12509304350E+03  0.00000000000E+00 0.  1.
         11    1    1    2    0    0  0.12663207478E+02  0.32262415201E+02  0.97283579985E+01  0.35998072276E+02  0.00000000000E+00 0. -1.
</event>
<event>
 7    1  0.2873461E-009  0.1125620E+03  0.7561462E-02  0.1255898E+00
          1   -1    0    0  501    0  0.00000000000E+00  0.00000000000E+00  0.29783846451E+03  0.29783846451E+03  0.00000000000E+00 0. -1.
         -1   -1    0    0    0  501 -0.00000000000E+00 -0.00000000000E+00 -0.62402150804E+02  0.62402150804E+02  0.00000000000E+00 0.  1.
         25    2    1    2    0    0 -0.34914376731E+02  0.73309333129E+02  0.14962397553E+03  0.21125496623E+03  0.12509218472E+03 0.  0.
          5    1    3    3  502    0  0.35727246161E+02 -0.18894393417E+01  0.96065401065E+01  0.37279540127E+02  0.41800000000E+01 0.  1.
         -5    1    3    3    0  502 -0.70641622891E+02  0.75198772471E+02  0.14001743542E+03  0.17397542610E+03  0.41800000000E+01 0.  1.
        -11    1    1    2    0    0  0.10311637649E+02 -0.52847559013E+02 -0.36547671463E+01  0.53968061736E+02  0.00000000000E+00 0.  1.
         11    1    1    2    0    0  0.24602739082E+02 -0.20461774116E+02  0.89467105328E+02  0.95017587351E+02  0.00000000000E+00 0. -1.
</event>
<event>
 7    1  0.2873461E-009  0.9428597E+02  0.7561462E-02  0.1292792E+00
          2   -1    0    0  501    0  0.00000000000E+00  0.00000000000E+00  0.25749210521E+03  0.25749210521E+03  0.00000000000E+00 0. -1.
         -2   -1    0    0    0  501 -0.00000000000E+00 -0.00000000000E+00 -0.68689298487E+02  0.68689298487E+02  0.00000000000E+00 0.  1.
         25    2    1    2    0    0 -0.50874173434E+02 -0.18785039814E+02  0.17143666257E+03  0.21904074112E+03  0.12508899934E+03 0.  0.
          5    1    3    3  502    0 -0.49422096613E+01  0.43220714365E+02  0.11593007185E+03  0.12389394475E+03  0.41800000000E+01 0.  1.
         -5    1    3    3    0  502 -0.45931963773E+02 -0.62005754179E+02  0.55506590722E+02  0.95146796378E+02  0.41800000000E+01 0.  1.
        -11    1    1    2    0    0  0.29217084097E+02  0.31104859311E+02 -0.30991770647E+02  0.52741256372E+02  0.00000000000E+00 0.  1.
         11    1    1    2    0    0  0.21657089337E+02 -0.12319819497E+02  0.48357914803E+02  0.54399406201E+02  0.00000000000E+00 0. -1.
</event>
<event>
 6    1  0.2873461E-009  0.1776565E+03  0.7561462E-02  0.1170091E+00
          1   -1    0    0  501    0  0.00000000000E+00  0.00000000000E+00  0.40980868497E+03  0.40980868497E+03  0.00000000000E+00 0. -1.
         -1   -1    0    0    0  501 -0.00000000000E+00 -0.00000000000E+00 -0.10247565174E+03  0.10247565174E+03  0.00000000000E+00 0.  1.
          5    1    1    2  502    0  0.63400988786E+02 -0.22883000994E+02  0.18320338287E+03  0.19525437001E+03  0.41800000000E+01 0.  1.
         -5    1    1    2    0  502  0.86093496787E+02 -0.50860246766E+02  0.33993025262E+02  0.10569698698E+03  0.41800000000E+01 0.  1.
        -11    1    1    2    0    0 -0.12710406150E+03  0.93537541479E+02  0.89533531875E+02  0.18144136090E+03  0.00000000000E+00 0. -1.
         11    1    1    2    0    0 -0.22390424076E+02 -0.19794293719E+02  0.60309322818E+00  0.29891618818E+02  0.00000000000E+00 0.  1.
</event>
<event>
 7    1  0.2873461E-009  0.1915625E+03  0.7561462E-02  0.1157060E+00
          1   -1    0    0  501    0  0.00000000000E+00  0.00000000000E+00  0.11174244149E+03  0.11174244149E+03  0.00000000000E+00 0. -1.
         -1   -1    0    0    0  501 -0.00000000000E+00 -0.00000000000E+00 -0.34876024244E+03  0.34876024244E+03  0.00000000000E+00 0.  1.
         25    2    1    2    0    0  0.16138049647E+03 -0.68966909147E+01 -0.77696788479E+02  0.21857666078E+03  0.12509091380E+03 0.  0.
          5    1    3    3  502    0  0.15088225385E+03  0.39814644168E+02 -0.55951491216E+02  0.16582732642E+03  0.41800000000E+01 0.  1.
         -5    1    3    3    0  502  0.10498242616E+02 -0.46711335082E+02 -0.21745297263E+02  0.52749334368E+02  0.41800000000E+01 0.  1.
        -11    1    1    2    0    0 -0.77399233933E+02  0.41861113395E+02 -0.10058552325E+03  0.13364296358E+03  0.00000000000E+00 0.  1.
         11    1    1    2    0    0 -0.83981262532E+02 -0.34964422480E+02 -0.58735489220E+02  0.10828305957E+03  0.00000000000E+00 0. -1.
</event>
<event>
 7    1  0.2873461E-009  0.1171879E+03  0.7561462E-02  0.1247809E+00
          2   -1    0    0  501    0  0.00000000000E+00  0.00000000000E+00  0.43270950964E+03  0.43270950964E+03  0.00000000000E+00 0. -1.
         -2   -1    0    0    0  501 -0.00000000000E+00 -0.00000000000E+00 -0.35955449331E+02  0.35955449331E+02  0.00000000000E+00 0.  1.
         25    2    1    2    0    0 -0.35650166695E+02 -0.51054424553E+02  0.25913747997E+03  0.29440896933E+03  0.12508764545E+03 0.  0.
          5    1    3    3  502    0 -0.13138389739E+01 -0.84281343887E+02  0.11602103978E+03  0.14346924817E+03  0.41800000000E+01 0.  1.
         -5    1    3    3    0  502 -0.34336327721E+02  0.33226919333E+02  0.14311644020E+03  0.15093972116E+03  0.41800000000E+01 0.  1.
        -11    1    1    2    0    0 -0.16073178914E+02  0.47529893395E+02  0.93801803918E+02  0.10637770568E+03  0.00000000000E+00 0.  1.
         11    1    1    2    0    0  0.51723345609E+02  0.35245311584E+01  0.43814776417E+02  0.67878283960E+02  0.00000000000E+00 0. -1.
</event>
<event>
 7    1  0.2873461E-009  0.1867755E+03  0.7561462E-02  0.1161402E+00
         -2   -1    0    0    0  501 -0.00000000000E+00  0.00000000000E+00  0.42530525928E+02  0.42530525928E+02  0.00000000000E+00 0.  1.
          2   -1    0    0  501    0  0.00000000000E+00 -0.00000000000E+00 -0.94412462727E+03  0.94412462727E+03  0.00000000000E+00 0. -1.
         25    2    1    2    0    0  0.76762725004E+02 -0.14173997555E+03 -0.35524417762E+03  0.40966829649E+03  0.12508777238E+03 0.  0.
          5    1    3    3  502    0 -0.24729516289E+02 -0.10502374928E+02 -0.14868403142E+02  0.30990170490E+02  0.41800000000E+01 0.  1.
         -5    1    3    3    0  502  0.10149224129E+03 -0.13123760062E+03 -0.34037577448E+03  0.37867812600E+03  0.41800000000E+01 0.  1.
        -11    1    1    2    0    0 -0.50397256890E+02  0.17425632571E+02 -0.10585788473E+03  0.11853028276E+03  0.00000000000E+00 0. -1.
         11    1    1    2    0    0 -0.26365468114E+02  0.12431434298E+03 -0.44049203899E+03  0.45845657395E+03  0.00000000000E+00 0.  1.
</event>
<event>
 7    1  0.3335655E-009  0.1592637E+03  0.7561462E-02  0.1189531E+00
         -2   -1    0    0    0  501 -0.00000000000E+00  0.00000000000E+00  0.27795693097E+03  0.27795693097E+03  0.00000000000E+00 0.  1.
          2   -1    0    0  501    0  0.00000000000E+00 -0.00000000000E+00 -0.11553388820E+03  0.11553388820E+03  0.00000000000E+00 0. -1.
         25    2    1    2    0    0  0.19428389520E+02  0.12717154922E+03  0.15157552231E+03  0.23489172662E+03  0.12509563949E+03 0.  0.
          5    1    3    3  502    0  0.59015564842E+02  0.78831825186E+02  0.13999155909E+03  0.17120865215E+03  0.41800000000E+01 0.  1.
         -5    1    3    3    0  502 -0.39587175322E+02  0.48339724031E+02  0.11583963219E+02  0.63683074464E+02  0.41800000000E+01 0.  1.
        -11    1    1    2    0    0 -0.53473404616E+02 -0.50932748550E+02  0.13452556484E+02  0.75063447510E+02  0.00000000000E+00 0. -1.
         11    1    1    2    0    0  0.34045015096E+02 -0.76238800667E+02 -0.26050360182E+01  0.83535645042E+02  0.00000000000E+00 0.  1.
</event>
<event>
 7    1  0.2873461E-009  0.1616874E+03  0.7561462E-02  0.1186805E+00
          2   -1    0    0  501    0  0.00000000000E+00  0.00000000000E+00  0.10665933393E+04  0.10665933393E+04  0.00000000000E+00 0. -1.
         -2   -1    0    0    0  501 -0.00000000000E+00 -0.00000000000E+00 -0.25532870585E+02  0.25532870585E+02  0.00000000000E+00 0.  1.
         25    2    1    2    0    0  0.68555585186E+02 -0.10366776879E+03  0.52404955218E+03  0.55292175402E+03  0.12509060069E+03 0.  0.
          5    1    3    3  502    0 -0.45511784719E+01 -0.10257904673E+03  0.32266813267E+03  0.33863752051E+03  0.41800000000E+01 0.  1.
         -5    1    3    3    0  502  0.73106763658E+02 -0.10887220555E+01  0.20138141951E+03  0.21428423351E+03  0.41800000000E+01 0.  1.
        -11    1    1    2    0    0 -0.58511592484E+02  0.18138663034E+02  0.29019974127E+03  0.29659485394E+03  0.00000000000E+00 0. -1.
         11    1    1    2    0    0 -0.10043992702E+02  0.85529105754E+02  0.22681117526E+03  0.24260960192E+03  0.00000000000E+00 0.  1.
</event>
<event>
 7    1  0.2873461E-009  0.9570875E+02  0.7561462E-02  0.1289588E+00
          1   -1    0    0  501    0  0.00000000000E+00  0.00000000000E+00  0.70535224632E+02  0.70535224632E+02  0.00000000000E+00 0. -1.
         -1   -1    0    0    0  501 -0.00000000000E+00 -0.00000000000E+00 -0.18676741681E+03  0.18676741681E+03  0.00000000000E+00 0.  1.
         25    2    1    2    0    0 -0.40396892833E+02 -0.27111611752E+02 -0.11094182084E+03  0.17413340227E+03  0.12508959083E+03 0.  0.
          5    1    3    3  502    0  0.35794022917E+02 -0.19508278505E+02 -0.82915225977E+02  0.92488875578E+02  0.41800000000E+01 0.  1.
         -5    1    3    3    0  502 -0.76190915750E+02 -0.76033332465E+01 -0.28026594859E+02  0.81644526692E+02  0.41800000000E+01 0.  1.
        -11    1    1    2    0    0  0.11979108410E+02  0.40577368026E+02 -0.21862078816E+02  0.47623233031E+02  0.00000000000E+00 0.  1.
         11    1    1    2    0    0  0.28417784423E+02 -0.13465756274E+02  0.16571707479E+02  0.35546006137E+02  0.00000000000E+00 0. -1.
</event>
<event>
 7    1  0.2873461E-009  0.1411991E+03  0.7561462E-02  0.1211725E+00
         -1   -1    0    0    0  501 -0.00000000000E+00  0.00000000000E+00  0.20502239650E+03  0.20502239650E+03  0.00000000000E+00 0.  1.
          1   -1    0    0  501    0  0.00000000000E+00 -0.00000000000E+00 -0.10869901916E+03  0.10869901916E+03  0.00000000000E+00 0. -1.
         25    2    1    2    0    0 -0.80784560150E+02  0.47123684014E+02  0.94562474887E+02  0.18255028775E+03  0.12504302919E+03 0.  0.
          5    1    3    3  502    0  0.77800473627E+01  0.65003668645E+02  0.36535926879E+02  0.75088963418E+02  0.41800000000E+01 0.  1.
         -5    1    3    3    0  502 -0.88564607513E+02 -0.17879984631E+02  0.58026548008E+02  0.10746132434E+03  0.41800000000E+01 0.  1.
        -11    1    1    2    0    0 -0.51034019123E+01 -0.39826069942E+02  0.17061387192E+02  0.43626270652E+02  0.00000000000E+00 0.  1.
         11    1    1    2    0    0  0.85887962063E+02 -0.72976140721E+01 -0.15300484733E+02  0.87544857253E+02  0.00000000000E+00 0. -1.
</event>
<event>
 7    1  0.2873461E-009  0.5999552E+02  0.7561462E-02  0.1397851E+00
         -2   -1    0    0    0  501 -0.00000000000E+00  0.00000000000E+00  0.18636445823E+02  0.18636445823E+02  0.00000000000E+00 0.  1.
          2   -1    0    0  501    0  0.00000000000E+00 -0.00000000000E+00 -0.69653427211E+03  0.69653427211E+03  0.00000000000E+00 0. -1.
         25    2    1    2    0    0 -0.30543279790E+02  0.24255986322E+02 -0.43270718529E+03  0.45211344614E+03  0.12509922128E+03 0.  0.
          5    1    3    3  502    0 -0.18673579163E+02  0.87045634062E+01 -0.43156385493E+03  0.43207557819E+03  0.41800000000E+01 0.  1.
         -5    1    3    3    0  502 -0.11869700627E+02  0.15551422916E+02 -0.11433303593E+01  0.20037867950E+02  0.41800000000E+01 0.  1.
        -11    1    1    2    0    0 -0.47114519660E+00  0.22691538365E+02 -0.17900173592E+02  0.28905779799E+02  0.00000000000E+00 0.  1.
         11    1    1    2    0    0  0.31014424987E+02 -0.46947524687E+02 -0.22729046740E+03  0.23415149199E+03  0.00000000000E+00 0. -1.
</event>
<event>
 7    1  0.2873461E-009  0.1024603E+03  0.7561462E-02  0.1275206E+00
          1   -1    0    0  501    0  0.00000000000E+00  0.00000000000E+00  0.12351573700E+04  0.12351573700E+04  0.00000000000E+00 0. -1.
         -1   -1    0    0    0  501 -0.00000000000E+00 -0.00000000000E+00 -0.20590743850E+02  0.20590743850E+02  0.00000000000E+00 0.  1.
         25    2    1    2    0    0 -0.47087315532E+02  0.35887812263E+02  0.10530788725E+04  0.10621343520E+04  0.12509644130E+03 0.  0.
          5    1    3    3  502    0 -0.39044922020E+02  0.79302502361E+02  0.82891691084E+03  0.83362708107E+03  0.41800000000E+01 0. -1.
         -5    1    3    3    0  502 -0.80423935112E+01 -0.43414690098E+02  0.22416196164E+03  0.22850727090E+03  0.41800000000E+01 0. -1.
        -11    1    1    2    0    0  0.33720111545E+02  0.65165294791E-01  0.70048522864E+01  0.34440065689E+02  0.00000000000E+00 0.  1.
         11    1    1    2    0    0  0.13367203987E+02 -0.35952977558E+02  0.15448290137E+03  0.15917369618E+03  0.00000000000E+00 0. -1.
</event>
<event>
 7    1  0.2873461E-009  0.2525715E+03  0.7561462E-02  0.1111690E+00
         -1   -1    0    0    0  501 -0.00000000000E+00  0.00000000000E+00  0.10963006378E+03  0.10963006378E+03  0.00000000000E+00 0.  1.
          1   -1    0    0  501    0  0.00000000000E+00 -0.00000000000E+00 -0.72299499732E+03  0.72299499732E+03  0.00000000000E+00 0. -1.
         25    2    1    2    0    0 -0.35913741910E+02 -0.24150004208E+03 -0.44534001285E+03  0.52305535892E+03  0.12508842581E+03 0.  0.
          5    1    3    3  502    0 -0.19320386254E+02 -0.65949700890E+02 -0.36801120552E+02  0.78066863946E+02  0.41800000000E+01 0.  1.
         -5    1    3    3    0  502 -0.16593355657E+02 -0.17555034119E+03 -0.40853889229E+03  0.44498849498E+03  0.41800000000E+01 0.  1.
        -11    1    1    2    0    0  0.54875556175E+02  0.78304478398E+02 -0.57904200235E+02  0.11178467877E+03  0.00000000000E+00 0.  1.
         11    1    1    2    0    0 -0.18961814265E+02  0.16319556369E+03 -0.11012072046E+03  0.19778502340E+03  0.00000000000E+00 0. -1.
</event>
<event>
 7    1  0.2873461E-009  0.9944188E+02  0.7561462E-02  0.1281474E+00
         -1   -1    0    0    0  501 -0.00000000000E+00  0.00000000000E+00  0.74021942523E+02  0.74021942523E+02  0.00000000000E+00 0.  1.
          1   -1    0    0  501    0  0.00000000000E+00 -0.00000000000E+00 -0.16975269170E+03  0.16975269170E+03  0.00000000000E+00 0. -1.
         25    2    1    2    0    0 -0.35794594905E+01  0.10451454382E+02 -0.87494814018E+02  0.15305017962E+03  0.12508784742E+03 0.  0.
          5    1    3    3  502    0 -0.59202209865E+02  0.65597605513E+01 -0.74803201314E+02  0.95712713044E+02  0.41800000000E+01 0.  1.
         -5    1    3    3    0  502  0.55622750375E+02  0.38916938310E+01 -0.12691612704E+02  0.57337466574E+02  0.41800000000E+01 0.  1.
        -11    1    1    2    0    0  0.42568357966E+02 -0.12033677601E+02  0.13251098631E+02  0.46178632628E+02  0.00000000000E+00 0.  1.
         11    1    1    2    0    0 -0.38988898475E+02  0.15822232187E+01 -0.21487033793E+02  0.44545821979E+02  0.00000000000E+00 0. -1.
</event>
<event>
 7    1  0.2873461E-009  0.9798481E+02  0.7561462E-02  0.1284592E+00
         -3   -1    0    0    0  501 -0.00000000000E+00  0.00000000000E+00  0.39532421211E+03  0.39532421211E+03  0.00000000000E+00 0.  1.
          3   -1    0    0  501    0  0.00000000000E+00 -0.00000000000E+00 -0.32261493033E+02  0.32261493033E+02  0.00000000000E+00 0. -1.
         25    2    1    2    0    0  0.14105257528E+02  0.10984547010E+02  0.25870695675E+03  0.28791526935E+03  0.12508514816E+03 0.  0.
          5    1    3    3  502    0  0.16498303975E+02 -0.49882059310E+02  0.59142169450E+02  0.79219205262E+02  0.41800000000E+01 0. -1.
         -5    1    3    3    0  502 -0.23930464471E+01  0.60866606319E+02  0.19956478730E+03  0.20869606409E+03  0.41800000000E+01 0. -1.
        -11    1    1    2    0    0 -0.22859314907E+02 -0.43171978192E+02  0.27903416220E+02  0.56258053786E+02  0.00000000000E+00 0. -1.
         11    1    1    2    0    0  0.87540573796E+01  0.32187431182E+02  0.76452346104E+02  0.83412382003E+02  0.00000000000E+00 0.  1.
</event>
<event>
 7    1  0.2873461E-009  0.3307105E+03  0.7561462E-02  0.1070823E+00
          1   -1    0    0  501    0  0.00000000000E+00  0.00000000000E+00  0.28811200074E+03  0.28811200074E+03  0.00000000000E+00 0. -1.
         -1   -1    0    0    0  501 -0.00000000000E+00 -0.00000000000E+00 -0.39397273821E+03  0.39397273821E+03  0.00000000000E+00 0.  1.
         25    2    1    2    0    0  0.86580322114E+01  0.31839803285E+03 -0.37613148911E+02  0.34425897752E+03  0.12508887155E+03 0.  0.
          5    1    3    3  502    0  0.15927062254E+02  0.32637369485E+03 -0.45939923857E+02  0.33000213485E+03  0.41800000000E+01 0.  1.
         -5    1    3    3    0  502 -0.72690300429E+01 -0.79756619941E+01  0.83267749453E+01  0.14256842673E+02  0.41800000000E+01 0.  1.
        -11    1    1    2    0    0 -0.26925139414E+02 -0.90231812313E+02 -0.53857638643E+02  0.10847759366E+03  0.00000000000E+00 0.  1.
         11    1    1    2    0    0  0.18267107202E+02 -0.22816622054E+03 -0.14389949920E+02  0.22934816777E+03  0.00000000000E+00 0. -1.
</event>
<event>
 7    1  0.2873461E-009  0.3639062E+03  0.7561462E-02  0.1057048E+00
         -1   -1    0    0    0  501 -0.00000000000E+00  0.00000000000E+00  0.18328758629E+03  0.18328758629E+03  0.00000000000E+00 0.  1.
          1   -1    0    0  501    0  0.00000000000E+00 -0.00000000000E+00 -0.83911395534E+03  0.83911395534E+03  0.00000000000E+00 0. -1.
         25    2    1    2    0    0  0.30557433176E+03  0.16719826866E+03 -0.14523273548E+03  0.39758064474E+03  0.12508752275E+03 0.  0.
          5    1    3    3  502    0  0.10194881134E+02 -0.18223663375E+02 -0.95257778323E+01  0.23329173827E+02  0.41800000000E+01 0.  1.
         -5    1    3    3    0  502  0.29537945062E+03  0.18542193203E+03 -0.13570695765E+03  0.37425147092E+03  0.41800000000E+01 0.  1.
        -11    1    1    2    0    0 -0.76050566664E+02 -0.40920973936E+01 -0.81095367891E+02  0.11125148379E+03  0.00000000000E+00 0.  1.
         11    1    1    2    0    0 -0.22952376509E+03 -0.16310617126E+03 -0.42949826568E+03  0.51356941310E+03  0.00000000000E+00 0. -1.
</event>
<event>
 7    1  0.2873461E-009  0.1189851E+03  0.7561462E-02  0.1244781E+00
          4   -1    0    0  501    0  0.00000000000E+00  0.00000000000E+00  0.11129035793E+03  0.11129035793E+03  0.00000000000E+00 0. -1.
         -4   -1    0    0    0  501 -0.00000000000E+00 -0.00000000000E+00 -0.13126492985E+03  0.13126492985E+03  0.00000000000E+00 0.  1.
         25    2    1    2    0    0  0.38985301083E+02 -0.32975537847E+02 -0.84041431424E+01  0.13537056531E+03  0.12508925027E+03 0.  0.
          5    1    3    3  502    0 -0.72696883196E+01  0.43781182577E+02  0.42046991383E+01  0.44774906040E+02  0.41800000000E+01 0. -1.
         -5    1    3    3    0  502  0.46254989402E+02 -0.76756720424E+02 -0.12608842281E+02  0.90595659269E+02  0.41800000000E+01 0. -1.
        -11    1    1    2    0    0 -0.47999645722E+02 -0.18484293839E+02 -0.18116195618E+02  0.54532849292E+02  0.00000000000E+00 0.  1.
         11    1    1    2    0    0  0.90143446400E+01  0.51459831686E+02  0.65457668397E+01  0.52651873186E+02  0.00000000000E+00 0. -1.
</event>
<event>
 6    1  0.2873461E-009  0.1138016E+03  0.7561462E-02  0.1253688E+00
          2   -1    0    0  501    0  0.00000000000E+00  0.00000000000E+00  0.11218459881E+04  0.11218459881E+04  0.00000000000E+00 0.  1.
         -2   -1    0    0    0  501 -0.00000000000E+00 -0.00000000000E+00 -0.12404945320E+02  0.12404945320E+02  0.00000000000E+00 0. -1.
          5    1    1    2  502    0  0.50426333646E+02  0.45126865953E+02  0.42370850752E+03  0.42909861443E+03  0.41800000000E+01 0. -1.
         -5    1    1    2    0  502 -0.62083185706E+02 -0.69932422607E+01  0.30591311437E+03  0.31225555772E+03  0.41800000000E+01 0. -1.
        -11    1    1    2    0    0 -0.27396314953E+02 -0.49447276455E+02  0.16934174873E+03  0.17852792242E+03  0.00000000000E+00 0.  1.
         11    1    1    2    0    0  0.39053167013E+02  0.11313652763E+02  0.21047767219E+03  0.21436883888E+03  0.00000000000E+00 0. -1.
</event>
<event>
 7    1  0.2873461E-009  0.1162232E+03  0.7561462E-02  0.1249461E+00
         -2   -1    0    0    0  501 -0.00000000000E+00  0.00000000000E+00  0.26167820918E+02  0.26167820918E+02  0.00000000000E+00 0.  1.
          2   -1    0    0  501    0  0.00000000000E+00 -0.00000000000E+00 -0.61195422040E+03  0.61195422040E+03  0.00000000000E+00 0. -1.
         25    2    1    2    0    0  0.51758360949E+02 -0.35204993388E+02 -0.37182706711E+03  0.39726714158E+03  0.12508994547E+03 0.  0.
          5    1    3    3  502    0  0.85503087922E+02 -0.21208842949E+02 -0.32997043990E+03  0.34155315351E+03  0.41800000000E+01 0.  1.
         -5    1    3    3    0  502 -0.33744726972E+02 -0.13996150439E+02 -0.41856627204E+02  0.55713988068E+02  0.41800000000E+01 0.  1.
        -11    1    1    2    0    0  0.13226602892E+02  0.40186212620E+02 -0.57703176055E+02  0.71550899614E+02  0.00000000000E+00 0.  1.
         11    1    1    2    0    0 -0.64984963841E+02 -0.49812192317E+01 -0.15625615632E+03  0.16930400012E+03  0.00000000000E+00 0. -1.
</event>
<event>
 7    1  0.2873461E-009  0.1185334E+03  0.7561462E-02  0.1245536E+00
         -1   -1    0    0    0  501 -0.00000000000E+00  0.00000000000E+00  0.20140967619E+03  0.20140967619E+03  0.00000000000E+00 0.  1.
          1   -1    0    0  501    0  0.00000000000E+00 -0.00000000000E+00 -0.84167363814E+02  0.84167363814E+02  0.00000000000E+00 0. -1.
         25    2    1    2    0    0 -0.37067667811E+02 -0.52176640289E+02  0.27671392068E+02  0.14321624977E+03  0.12509506173E+03 0.  0.
          5    1    3    3  502    0 -0.63072751471E+02 -0.75334354631E+02  0.39824688705E+02  0.10609861072E+03  0.41800000000E+01 0.  1.
         -5    1    3    3    0  502  0.26005083660E+02  0.23157714342E+02 -0.12153296637E+02  0.37117639053E+02  0.41800000000E+01 0.  1.
        -11    1    1    2    0    0 -0.24360622802E+02  0.29301237210E+02  0.58510898623E+02  0.69824979076E+02  0.00000000000E+00 0.  1.
         11    1    1    2    0    0  0.61428290613E+02  0.22875403079E+02  0.31060021689E+02  0.72535811162E+02  0.00000000000E+00 0. -1.
</event>
<event>
 7    1  0.2873461E-009  0.1306063E+03  0.7561462E-02  0.1226559E+00
          4   -1    0    0  501    0  0.00000000000E+00  0.00000000000E+00  0.12765637830E+04  0.12765637830E+04  0.00000000000E+00 0. -1.
         -4   -1    0    0    0  501 -0.00000000000E+00 -0.00000000000E+00 -0.20645483589E+02  0.20645483589E+02  0.00000000000E+00 0.  1.
         25    2    1    2    0    0 -0.10441547027E+02  0.11723794877E+03  0.58074848700E+03  0.60561591349E+03  0.12509223389E+03 0.  0.
          5    1    3    3  502    0  0.11910250487E+02  0.63291051159E+02  0.50871600540E+03  0.51279338702E+03  0.41800000000E+01 0.  1.
         -5    1    3    3    0  502 -0.22351797514E+02  0.53946897612E+02  0.72032481607E+02  0.92822526471E+02  0.41800000000E+01 0.  1.
        -11    1    1    2    0    0 -0.23004662207E+02 -0.87623819964E+01  0.45112241811E+02  0.51391713172E+02  0.00000000000E+00 0.  1.
         11    1    1    2    0    0  0.33446209234E+02 -0.10847556677E+03  0.63005757057E+03  0.64020163990E+03  0.00000000000E+00 0. -1.
</event>
<event>
 7    1  0.2873461E-009  0.9425479E+02  0.7561462E-02  0.1292863E+00
         -3   -1    0    0    0  501 -0.00000000000E+00  0.00000000000E+00  0.19167343096E+03  0.19167343096E+03  0.00000000000E+00 0.  1.
          3   -1    0    0  501    0  0.00000000000E+00 -0.00000000000E+00 -0.11812405312E+03  0.11812405312E+03  0.00000000000E+00 0. -1.
         25    2    1    2    0    0 -0.70204627430E+01 -0.34452794265E+02 -0.61728294861E+02  0.14385573069E+03  0.12509119448E+03 0.  0.
          5    1    3    3  502    0 -0.51697555564E+00  0.37520527473E+02  0.12889226129E+02  0.39895636300E+02  0.41800000000E+01 0.  1.
         -5    1    3    3    0  502 -0.65034871873E+01 -0.71973321738E+02 -0.74617520990E+02  0.10396009439E+03  0.41800000000E+01 0.  1.
        -11    1    1    2    0    0 -0.26985514436E+02 -0.37225575931E+01  0.74079593088E+01  0.28230361059E+02  0.00000000000E+00 0. -1.
         11    1    1    2    0    0  0.34005977179E+02  0.38175351858E+02  0.12786971339E+03  0.13771139232E+03  0.00000000000E+00 0.  1.
</event>
<event>
 7    1  0.2873461E-009  0.1165134E+03  0.7561462E-02  0.1248962E+00
         -1   -1    0    0    0  501 -0.00000000000E+00  0.00000000000E+00  0.61615283721E+02  0.61615283721E+02  0.00000000000E+00 0.  1.
          1   -1    0    0  501    0  0.00000000000E+00 -0.00000000000E+00 -0.25522252814E+03  0.25522252814E+03  0.00000000000E+00 0. -1.
         25    2    1    2    0    0  0.49769898642E+02 -0.40003291988E+02 -0.12726007419E+03  0.18952281940E+03  0.12508583617E+03 0.  0.
          5    1    3    3  502    0 -0.38669769577E+02  0.31671123427E+01 -0.54640873734E+02  0.67145209525E+02  0.41800000000E+01 0. -1.
         -5    1    3    3    0  502  0.88439668219E+02 -0.43170404331E+02 -0.72619200454E+02  0.12237760988E+03  0.41800000000E+01 0. -1.
        -11    1    1    2    0    0  0.26579273741E+00  0.45195410882E+02 -0.14700243377E+01  0.45220092681E+02  0.00000000000E+00 0.  1.
         11    1    1    2    0    0 -0.50035691379E+02 -0.51921188932E+01 -0.64877145897E+02  0.82094899782E+02  0.00000000000E+00 0. -1.
</event>
<event>
 6    1  0.2873461E-009  0.1069368E+03  0.7561462E-02  0.1266350E+00
         -1   -1    0    0    0  501 -0.00000000000E+00  0.00000000000E+00  0.13975214328E+03  0.13975214328E+03  0.00000000000E+00 0.  1.
          1   -1    0    0  501    0  0.00000000000E+00 -0.00000000000E+00 -0.10584333428E+03  0.10584333428E+03  0.00000000000E+00 0. -1.
          5    1    1    2  502    0  0.36658673240E+02 -0.21390819643E+02 -0.54235190096E+01  0.42992004456E+02  0.41800000000E+01 0. -1.
         -5    1    1    2    0  502 -0.72465216456E+02  0.56933513902E+02 -0.21715981046E+01  0.92275786854E+02  0.41800000000E+01 0. -1.
        -11    1    1    2    0    0  0.52941841752E+02 -0.22909862988E+02 -0.62691998186E+01  0.58025884712E+02  0.00000000000E+00 0. -1.
         11    1    1    2    0    0 -0.17135298536E+02 -0.12632831270E+02  0.47773125936E+02  0.52301801533E+02  0.00000000000E+00 0.  1.
</event>
<event>
 7    1  0.2873461E-009  0.1244377E+03  0.7561462E-02  0.1235951E+00
         -2   -1    0    0    0  501 -0.00000000000E+00  0.00000000000E+00  0.89128223607E+02  0.89128223607E+02  0.00000000000E+00 0. -1.
          2   -1    0    0  501    0  0.00000000000E+00 -0.00000000000E+00 -0.25537896926E+03  0.25537896926E+03  0.00000000000E+00 0.  1.
         25    2    1    2    0    0 -0.56223570289E+02  0.87901972109E+02 -0.96476052355E+02  0.18932117496E+03  0.12508809718E+03 0.  0.
          5    1    3    3  502    0  0.89737617559E+01  0.73762452674E+02 -0.31033508302E+01  0.74488462267E+02  0.41800000000E+01 0. -1.
         -5    1    3    3    0  502 -0.65197332045E+02  0.14139519436E+02 -0.93372701524E+02  0.11483271270E+03  0.41800000000E+01 0. -1.
        -11    1    1    2    0    0  0.23167357626E+02 -0.60113152769E+02 -0.87370700211E+02  0.10855393521E+03  0.00000000000E+00 0.  1.
         11    1    1    2    0    0  0.33056212663E+02 -0.27788819340E+02  0.17596006916E+02  0.46632082683E+02  0.00000000000E+00 0. -1.
</event>
<event>
 7    1  0.2873461E-009  0.1212394E+03  0.7561462E-02  0.1241066E+00
         -2   -1    0    0    0  501 -0.00000000000E+00  0.00000000000E+00  0.92312736739E+03  0.92312736739E+03  0.00000000000E+00 0.  1.
          2   -1    0    0  501    0  0.00000000000E+00 -0.00000000000E+00 -0.22669955065E+02  0.22669955065E+02  0.00000000000E+00 0. -1.
         25    2    1    2    0    0 -0.56473306016E+02  0.71608363870E+02  0.63057736719E+03  0.64930118488E+03  0.12508885084E+03 0.  0.
          5    1    3    3  502    0 -0.48923661528E+02  0.88511718780E+02  0.27201573792E+03  0.29023763211E+03  0.41800000000E+01 0. -1.
         -5    1    3    3    0  502 -0.75496444882E+01 -0.16903354911E+02  0.35856162927E+03  0.35906355277E+03  0.41800000000E+01 0. -1.
        -11    1    1    2    0    0  0.75937799075E+02 -0.69071283251E+02  0.21598646069E+03  0.23913917015E+03  0.00000000000E+00 0. -1.
         11    1    1    2    0    0 -0.19464493059E+02 -0.25370806189E+01  0.53893584439E+02  0.57356967422E+02  0.00000000000E+00 0.  1.
</event>
<event>
 7    1  0.2873461E-009  0.1227501E+03  0.7561462E-02  0.1238628E+00
          1   -1    0    0  501    0  0.00000000000E+00  0.00000000000E+00  0.81166035352E+03  0.81166035352E+03  0.00000000000E+00 0. -1.
         -1   -1    0    0    0  501 -0.00000000000E+00 -0.00000000000E+00 -0.24257365881E+02  0.24257365881E+02  0.00000000000E+00 0.  1.
         25    2    1    2    0    0  0.60913030542E+02 -0.51748788179E+02  0.53696917049E+03  0.55711000855E+03  0.12508931691E+03 0.  0.
          5    1    3    3  502    0  0.34989595394E+02  0.24326441079E+02  0.61868444488E+02  0.75241108078E+02  0.41800000000E+01 0. -1.
         -5    1    3    3    0  502  0.25923435147E+02 -0.76075229259E+02  0.47510072600E+03  0.48186890047E+03  0.41800000000E+01 0. -1.
        -11    1    1    2    0    0  0.96339703201E+01 -0.19615161581E+02  0.37249332460E+02  0.43186580285E+02  0.00000000000E+00 0. -1.
         11    1    1    2    0    0 -0.70547000862E+02  0.71363949761E+02  0.21318448469E+03  0.23562113057E+03  0.00000000000E+00 0.  1.
</event>
<event>
 7    1  0.2873461E-009  0.1692233E+03  0.7561462E-02  0.1178660E+00
          2   -1    0    0  501    0  0.00000000000E+00  0.00000000000E+00  0.21225799366E+02  0.21225799366E+02  0.00000000000E+00 0. -1.
         -2   -1    0    0    0  501 -0.00000000000E+00 -0.00000000000E+00 -0.14698186947E+04  0.14698186947E+04  0.00000000000E+00 0.  1.
         25    2    1    2    0    0  0.13300857037E+03  0.14053534999E+02 -0.90779552433E+03  0.92608283040E+03  0.12509161895E+03 0.  0.
          5    1    3    3  502    0  0.10071458907E+03  0.61814365772E+02 -0.71826874084E+03  0.72793674226E+03  0.41800000000E+01 0. -1.
         -5    1    3    3    0  502  0.32293981303E+02 -0.47760830773E+02 -0.18952678348E+03  0.19814608813E+03  0.41800000000E+01 0. -1.
        -11    1    1    2    0    0 -0.10872834244E+03 -0.49471912842E+02 -0.36767547417E+03  0.38659355519E+03  0.00000000000E+00 0. -1.
         11    1    1    2    0    0 -0.24280227932E+02  0.35418377844E+02 -0.17312189688E+03  0.17836810852E+03  0.00000000000E+00 0.  1.
</event>
<event>
 7    1  0.2873461E-009  0.1155394E+03  0.7561462E-02  0.1250642E+00
          2   -1    0    0  501    0  0.00000000000E+00  0.00000000000E+00  0.10825391245E+04  0.10825391245E+04  0.00000000000E+00 0. -1.
         -2   -1    0    0    0  501 -0.00000000000E+00 -0.00000000000E+00 -0.12593421864E+02  0.12593421864E+02  0.00000000000E+00 0.  1.
         25    2    1    2    0    0 -0.44684996836E+02 -0.37907089024E+01  0.60159383450E+03  0.61609640084E+03  0.12509402466E+03 0.  0.
          5    1    3    3  502    0 -0.28611454998E+01  0.56696940517E+02  0.32029559609E+03  0.32531441789E+03  0.41800000000E+01 0.  1.
         -5    1    3    3    0  502 -0.41823851337E+02 -0.60487649419E+02  0.28129823841E+03  0.29078198295E+03  0.41800000000E+01 0.  1.
        -11    1    1    2    0    0  0.65348857044E+02  0.25846843292E+02  0.33759544610E+03  0.34483215867E+03  0.00000000000E+00 0. -1.
         11    1    1    2    0    0 -0.20663860208E+02 -0.22056134390E+02  0.13075642200E+03  0.13420398681E+03  0.00000000000E+00 0.  1.
</event>
<event>
 6    1  0.2873461E-009  0.2322563E+03  0.7561462E-02  0.1125062E+00
         -2   -1    0    0    0  501 -0.00000000000E+00  0.00000000000E+00  0.34558672686E+03  0.34558672686E+03  0.00000000000E+00 0.  1.
          2   -1    0    0  501    0  0.00000000000E+00 -0.00000000000E+00 -0.20261468051E+03  0.20261468051E+03  0.00000000000E+00 0. -1.
          5    1    1    2  502    0  0.48397428011E+02 -0.17868647010E-01  0.54144185753E+02  0.72741849084E+02  0.41800000000E+01 0.  1.
         -5    1    1    2    0  502  0.18060135006E+03 -0.34926128449E+02 -0.51140886318E+02  0.19097001007E+03  0.41800000000E+01 0.  1.
        -11    1    1    2    0    0 -0.39147549659E+02  0.10425689806E+02  0.69610993595E+02  0.80541393590E+02  0.00000000000E+00 0.  1.
         11    1    1    2    0    0 -0.18985122842E+03  0.24518307290E+02  0.70357753314E+02  0.20394815462E+03  0.00000000000E+00 0. -1.
</event>
<event>
 7    1  0.2873461E-009  0.1194445E+03  0.7561462E-02  0.1244016E+00
         -3   -1    0    0    0  501 -0.00000000000E+00  0.00000000000E+00  0.57239596518E+03  0.57239596518E+03  0.00000000000E+00 0.  1.
          3   -1    0    0  501    0  0.00000000000E+00 -0.00000000000E+00 -0.31564385741E+02  0.31564385741E+02  0.00000000000E+00 0. -1.
         25    2    1    2    0    0  0.75109214572E+02  0.12969449970E+02  0.35022849708E+03  0.37962824534E+03  0.12509198113E+03 0.  0.
          5    1    3    3  502    0 -0.21421146995E+02 -0.15970066822E+02  0.17797305984E+03  0.18001608540E+03  0.41800000000E+01 0.  1.
         -5    1    3    3    0  502  0.96530361567E+02  0.28939516791E+02  0.17225543724E+03  0.19961215994E+03  0.41800000000E+01 0.  1.
        -11    1    1    2    0    0 -0.64467103458E+00  0.26634329671E+02  0.85602831889E+02  0.89652930488E+02  0.00000000000E+00 0.  1.
         11    1    1    2    0    0 -0.74464543537E+02 -0.39603779640E+02  0.10500025047E+03  0.13467917509E+03  0.00000000000E+00 0. -1.
</event>
<event>
 7    1  0.2873461E-009  0.1575989E+03  0.7561462E-02  0.1191435E+00
         -1   -1    0    0    0  501 -0.00000000000E+00  0.00000000000E+00  0.29923249319E+03  0.29923249319E+03  0.00000000000E+00 0.  1.
          1   -1    0    0  501    0  0.00000000000E+00 -0.00000000000E+00 -0.94850424380E+02  0.94850424380E+02  0.00000000000E+00 0. -1.
         25    2    1    2    0    0  0.84008549410E+02 -0.10041586675E+03  0.13039682558E+03  0.22314167802E+03  0.12509234061E+03 0.  0.
          5    1    3    3  502    0  0.85455793247E+02 -0.15604182556E+02  0.30823738577E+02  0.92270029656E+02  0.41800000000E+01 0.  1.
         -5    1    3    3    0  502 -0.14472438377E+01 -0.84811684193E+02  0.99573087001E+02  0.13087164836E+03  0.41800000000E+01 0.  1.
        -11    1    1    2    0    0 -0.66179146290E+02  0.33741370726E+02  0.69582858725E+02  0.10178375966E+03  0.00000000000E+00 0.  1.
         11    1    1    2    0    0 -0.17829403119E+02  0.66674496024E+02  0.44023845079E+01  0.69157479892E+02  0.00000000000E+00 0. -1.
</event>
<event>
 7    1  0.2873461E-009  0.1007567E+03  0.7561462E-02  0.1278713E+00
         -3   -1    0    0    0  501 -0.00000000000E+00  0.00000000000E+00  0.81016359834E+02  0.81016359834E+02  0.00000000000E+00 0.  1.
          3   -1    0    0  501    0  0.00000000000E+00 -0.00000000000E+00 -0.19676318280E+03  0.19676318280E+03  0.00000000000E+00 0. -1.
         25    2    1    2    0    0  0.39351691956E+02  0.45275654020E+02 -0.90466204395E+02  0.16561530535E+03  0.12508339107E+03 0.  0.
          5    1    3    3  502    0  0.64379524673E+02  0.26710133658E+02 -0.10875556456E+03  0.12924163284E+03  0.41800000000E+01 0.  1.
         -5    1    3    3    0  502 -0.25027832716E+02  0.18565520362E+02  0.18289360163E+02  0.36373672511E+02  0.41800000000E+01 0.  1.
        -11    1    1    2    0    0 -0.64253957856E+02 -0.36148382929E+02  0.24858594289E+01  0.73766226592E+02  0.00000000000E+00 0.  1.
         11    1    1    2    0    0  0.24902265900E+02 -0.91272710908E+01 -0.27766478002E+02  0.38398010692E+02  0.00000000000E+00 0. -1.
</event>
<event>
 7    1  0.2873461E-009  0.1296464E+03  0.7561462E-02  0.1227981E+00
         -1   -1    0    0    0  501 -0.00000000000E+00  0.00000000000E+00  0.11403839295E+03  0.11403839295E+03  0.00000000000E+00 0.  1.
          1   -1    0    0  501    0  0.00000000000E+00 -0.00000000000E+00 -0.15185737855E+03  0.15185737855E+03  0.00000000000E+00 0. -1.
         25    2    1    2    0    0  0.53502862822E+02 -0.50764218075E+02 -0.81694842579E+01  0.14544417280E+03  0.12509078608E+03 0.  0.
          5    1    3    3  502    0  0.90689400021E+02 -0.13394529986E+02 -0.11328607459E+02  0.92465076957E+02  0.41800000000E+01 0. -1.
         -5    1    3    3    0  502 -0.37186537199E+02 -0.37369688089E+02  0.31591232016E+01  0.52979095841E+02  0.41800000000E+01 0. -1.
        -11    1    1    2    0    0 -0.50639035928E+02 -0.11811561117E+02 -0.21577261937E+01  0.52043065994E+02  0.00000000000E+00 0. -1.
         11    1    1    2    0    0 -0.28638268945E+01  0.62575779193E+02 -0.27491775144E+02  0.68408532703E+02  0.00000000000E+00 0.  1.
</event>
<event>
 7    1  0.2873461E-009  0.1059679E+03  0.7561462E-02  0.1268224E+00
          1   -1    0    0  501    0  0.00000000000E+00  0.00000000000E+00  0.80538346111E+03  0.80538346111E+03  0.00000000000E+00 0.  1.
         -1   -1    0    0    0  501 -0.00000000000E+00 -0.00000000000E+00 -0.17338734482E+02  0.17338734482E+02  0.00000000000E+00 0. -1.
         25    2    1    2    0    0 -0.15408860789E+01 -0.42072713774E+02  0.36323986498E+03  0.38648372870E+03  0.12511588815E+03 0.  0.
          5    1    3    3  502    0  0.28646438402E+02  0.26615704595E+02  0.23152091872E+03  0.23483701235E+03  0.41800000000E+01 0. -1.
         -5    1    3    3    0  502 -0.30187324481E+02 -0.68688418369E+02  0.13171894626E+03  0.15164671635E+03  0.41800000000E+01 0. -1.
        -11    1    1    2    0    0 -0.29438610975E+02  0.56179093691E+02  0.31321740307E+03  0.31957450457E+03  0.00000000000E+00 0.  1.
         11    1    1    2    0    0  0.30979497054E+02 -0.14106379917E+02  0.11158745857E+03  0.11666396232E+03  0.00000000000E+00 0. -1.
</event>
<event>
 7    1  0.2873461E-009  0.3281074E+03  0.7561462E-02  0.1071977E+00
          1   -1    0    0  501    0  0.00000000000E+00  0.00000000000E+00  0.25489752899E+03  0.25489752899E+03  0.00000000000E+00 0. -1.
         -1   -1    0    0    0  501 -0.00000000000E+00 -0.00000000000E+00 -0.58432847462E+03  0.58432847462E+03  0.00000000000E+00 0.  1.
         25    2    1    2    0    0 -0.27894952325E+03 -0.15565174990E+03  0.36294031723E+02  0.34497448759E+03  0.12509930686E+03 0.  0.
          5    1    3    3  502    0 -0.45457440378E+01 -0.36688476187E+02  0.26547632233E+02  0.45705111869E+02  0.41800000000E+01 0. -1.
         -5    1    3    3    0  502 -0.27440377921E+03 -0.11896327372E+03  0.97463994898E+01  0.29926937572E+03  0.41800000000E+01 0. -1.
        -11    1    1    2    0    0  0.24620046275E+03  0.13080280686E+03 -0.35570205827E+03  0.45193804487E+03  0.00000000000E+00 0.  1.
         11    1    1    2    0    0  0.32749060504E+02  0.24848943040E+02 -0.10022919089E+02  0.42313471155E+02  0.00000000000E+00 0. -1.
</event>
<event>
 7    1  0.2873461E-009  0.1536628E+03  0.7561462E-02  0.1196043E+00
         -1   -1    0    0    0  501 -0.00000000000E+00  0.00000000000E+00  0.28626990341E+03  0.28626990341E+03  0.00000000000E+00 0.  1.
          1   -1    0    0  501    0  0.00000000000E+00 -0.00000000000E+00 -0.93987831320E+02  0.93987831320E+02  0.00000000000E+00 0. -1.
         25    2    1    2    0    0 -0.90799634081E+02  0.67533612940E+02  0.47716081545E+02  0.17530099692E+03  0.12509297605E+03 0.  0.
          5    1    3    3  502    0 -0.20931268660E+02  0.89896289640E+02  0.42313773862E+02  0.10162376079E+03  0.41800000000E+01 0.  1.
         -5    1    3    3    0  502 -0.69868365422E+02 -0.22362676700E+02  0.54023076828E+01  0.73677236133E+02  0.41800000000E+01 0.  1.
        -11    1    1    2    0    0  0.77761965073E+02 -0.53831965485E+01  0.56007346899E+02  0.95982940796E+02  0.00000000000E+00 0. -1.
         11    1    1    2    0    0  0.13037669008E+02 -0.62150416391E+02  0.88558643649E+02  0.10897379701E+03  0.00000000000E+00 0.  1.
</event>
<event>
 7    1  0.2873461E-009  0.2632373E+03  0.7561462E-02  0.1105214E+00
          1   -1    0    0  501    0  0.00000000000E+00  0.00000000000E+00  0.31038550955E+04  0.31038550955E+04  0.00000000000E+00 0. -1.
         -1   -1    0    0    0  501 -0.00000000000E+00 -0.00000000000E+00 -0.28762205282E+02  0.28762205282E+02  0.00000000000E+00 0.  1.
         25    2    1    2    0    0  0.26126951634E+03  0.29391596532E+02  0.20281653474E+04  0.20489579051E+04  0.12509274243E+03 0.  0.
          5    1    3    3  502    0  0.90881293013E+02  0.64510514703E+01  0.11807896866E+04  0.11843068782E+04  0.41800000000E+01 0.  1.
         -5    1    3    3    0  502  0.17038822333E+03  0.22940545061E+02  0.84737566084E+03  0.86465102685E+03  0.41800000000E+01 0.  1.
        -11    1    1    2    0    0 -0.11908740905E+03 -0.20439880248E+02  0.66791924584E+03  0.67876042803E+03  0.00000000000E+00 0. -1.
         11    1    1    2    0    0 -0.14218210729E+03 -0.89517162840E+01  0.37900829700E+03  0.40489896771E+03  0.00000000000E+00 0.  1.
</event>
<event>
 7    1  0.2873461E-009  0.1198476E+03  0.7561462E-02  0.1243349E+00
         -3   -1    0    0    0  501 -0.00000000000E+00  0.00000000000E+00  0.96074106182E+02  0.96074106182E+02  0.00000000000E+00 0.  1.
          3   -1    0    0  501    0  0.00000000000E+00 -0.00000000000E+00 -0.25819993326E+03  0.25819993326E+03  0.00000000000E+00 0. -1.
         25    2    1    2    0    0  0.47816059411E+02  0.85633619296E+02 -0.15235216524E+03  0.22017684059E+03  0.12508863491E+03 0.  0.
          5    1    3    3  502    0  0.13829085651E+02 -0.17544411383E+02  0.99666276721E+01  0.24816447124E+02  0.41800000000E+01 0.  1.
         -5    1    3    3    0  502  0.33986973760E+02  0.10317803068E+03 -0.16231879291E+03  0.19536039346E+03  0.41800000000E+01 0.  1.
        -11    1    1    2    0    0 -0.26908403882E+02 -0.82915530505E+02  0.27385914900E+02  0.91373058027E+02  0.00000000000E+00 0.  1.
         11    1    1    2    0    0 -0.20907655529E+02 -0.27180887911E+01 -0.37159576733E+02  0.42724140826E+02  0.00000000000E+00 0. -1.
</event>
<event>
 7    1  0.2873461E-009  0.1116950E+03  0.7561462E-02  0.1257463E+00
          2   -1    0    0  501    0  0.00000000000E+00  0.00000000000E+00  0.15077118712E+03  0.15077118712E+03  0.00000000000E+00 0. -1.
         -2   -1    0    0    0  501 -0.00000000000E+00 -0.00000000000E+00 -0.11103068150E+03  0.11103068150E+03  0.00000000000E+00 0.  1.
         25    2    1    2    0    0  0.36246250374E+02  0.31869802681E+02 -0.29855169592E+02  0.13736043666E+03  0.12508830249E+03 0.  0.
          5    1    3    3  502    0 -0.44060843935E+01  0.74588720962E+02 -0.13758909820E+02  0.76089886804E+02  0.41800000000E+01 0.  1.
         -5    1    3    3    0  502  0.40652334767E+02 -0.42718918281E+02 -0.16096259772E+02  0.61270549857E+02  0.41800000000E+01 0.  1.
        -11    1    1    2    0    0 -0.39551601678E+02 -0.54069676346E+02  0.19855860296E+02  0.69872128088E+02  0.00000000000E+00 0.  1.
         11    1    1    2    0    0  0.33053513039E+01  0.22199873665E+02  0.49739814908E+02  0.54569303872E+02  0.00000000000E+00 0. -1.
</event>
<event>
 7    1  0.2873461E-009  0.1089301E+03  0.7561462E-02  0.1262564E+00
          1   -1    0    0  501    0  0.00000000000E+00  0.00000000000E+00  0.17233010211E+03  0.17233010211E+03  0.00000000000E+00 0. -1.
         -1   -1    0    0    0  501 -0.00000000000E+00 -0.00000000000E+00 -0.34303674683E+03  0.34303674683E+03  0.00000000000E+00 0.  1.
         25    2    1    2    0    0  0.86843743299E+02  0.17254644990E+02 -0.29810652519E+03  0.33518778991E+03  0.12507515990E+03 0.  0.
          5    1    3    3  502    0  0.50926814271E+02  0.50486577390E+02 -0.26827791939E+03  0.27772819328E+03  0.41800000000E+01 0.  1.
         -5    1    3    3    0  502  0.35916929028E+02 -0.33231932400E+02 -0.29828605799E+02  0.57459596637E+02  0.41800000000E+01 0.  1.
        -11    1    1    2    0    0 -0.51423563520E+02 -0.29687936326E+02  0.14389077293E+02  0.61096661068E+02  0.00000000000E+00 0.  1.
         11    1    1    2    0    0 -0.35420179779E+02  0.12433291336E+02  0.11301080317E+03  0.11908239796E+03  0.00000000000E+00 0. -1.
</event>
<event>
 7    1  0.2873461E-009  0.6342614E+02  0.7561462E-02  0.1383991E+00
         -2   -1    0    0    0  501 -0.00000000000E+00  0.00000000000E+00  0.29132661707E+03  0.29132661707E+03  0.00000000000E+00 0.  1.
          2   -1    0    0  501    0  0.00000000000E+00 -0.00000000000E+00 -0.90949990409E+02  0.90949990409E+02  0.00000000000E+00 0. -1.
         25    2    1    2    0    0 -0.20224953524E+02 -0.39408433758E+02  0.23501932114E+03  0.26989610290E+03  0.12509097353E+03 0.  0.
          5    1    3    3  502    0 -0.30765834232E+02 -0.42292235212E+02  0.22552598152E+02  0.57107458344E+02  0.41800000000E+01 0. -1.
         -5    1    3    3    0  502  0.10540880708E+02  0.28838014538E+01  0.21246672299E+03  0.21278864456E+03  0.41800000000E+01 0. -1.
        -11    1    1    2    0    0  0.34393876639E+02  0.25351957745E+02  0.24988195715E+02  0.49498186198E+02  0.00000000000E+00 0.  1.
         11    1    1    2    0    0 -0.14168923115E+02  0.14056476012E+02 -0.59630890189E+02  0.62882318380E+02  0.00000000000E+00 0. -1.
</event>
<event>
 7    1  0.2873461E-009  0.8726786E+02  0.7561462E-02  0.1309606E+00
          1   -1    0    0  501    0  0.00000000000E+00  0.00000000000E+00  0.59895369126E+03  0.59895369126E+03  0.00000000000E+00 0. -1.
         -1   -1    0    0    0  501 -0.00000000000E+00 -0.00000000000E+00 -0.20857246570E+02  0.20857246570E+02  0.00000000000E+00 0.  1.
         25    2    1    2    0    0  0.13577658472E+02  0.73740304158E+01  0.27157794033E+03  0.29940074386E+03  0.12508996209E+03 0.  0.
          5    1    3    3  502    0 -0.22166557615E+02 -0.25244513348E+02  0.12942114105E+02  0.36243791857E+02  0.41800000000E+01 0. -1.
         -5    1    3    3    0  502  0.35744216087E+02  0.32618543764E+02  0.25863582622E+03  0.26315695200E+03  0.41800000000E+01 0. -1.
        -11    1    1    2    0    0  0.32252007623E+01 -0.48020309520E+02  0.18568576195E+03  0.19182167301E+03  0.00000000000E+00 0.  1.
         11    1    1    2    0    0 -0.16802859234E+02  0.40646279105E+02  0.12083274242E+03  0.12858852096E+03  0.00000000000E+00 0. -1.
</event>
<event>
 7    1  0.2873461E-009  0.6809943E+02  0.7561462E-02  0.1366678E+00
          3   -1    0    0  501    0  0.00000000000E+00  0.00000000000E+00  0.50652479832E+02  0.50652479832E+02  0.00000000000E+00 0. -1.
         -3   -1    0    0    0  501 -0.00000000000E+00 -0.00000000000E+00 -0.21712289710E+03  0.21712289710E+03  0.00000000000E+00 0.  1.
         25    2    1    2    0    0  0.40263549790E+00  0.66211926408E+01 -0.16147505141E+03  0.20436999568E+03  0.12509556586E+03 0.  0.
          5    1    3    3  502    0 -0.45734740151E+02 -0.16537803098E+02 -0.18325205955E+02  0.52138766396E+02  0.41800000000E+01 0.  1.
         -5    1    3    3    0  502  0.46137375649E+02  0.23158995739E+02 -0.14314984545E+03  0.15223122928E+03  0.41800000000E+01 0.  1.
        -11    1    1    2    0    0 -0.17611832908E+02 -0.50045117790E+01 -0.28715287318E+02  0.34055682672E+02  0.00000000000E+00 0.  1.
         11    1    1    2    0    0  0.17209197410E+02 -0.16166808618E+01  0.23719921461E+02  0.29349698578E+02  0.00000000000E+00 0. -1.
</event>
<event>
 7    1  0.2873461E-009  0.1881723E+03  0.7561462E-02  0.1160120E+00
         -1   -1    0    0    0  501 -0.00000000000E+00  0.00000000000E+00  0.15522324469E+03  0.15522324469E+03  0.00000000000E+00 0.  1.
          1   -1    0    0  501    0  0.00000000000E+00 -0.00000000000E+00 -0.31432996429E+03  0.31432996429E+03  0.00000000000E+00 0. -1.
         25    2    1    2    0    0 -0.16934034690E+03 -0.51067918997E+02 -0.16252438906E+03  0.27082337077E+03  0.12508811165E+03 0.  0.
          5    1    3    3  502    0 -0.15431743155E+03 -0.74370520610E+02 -0.17044279942E+03  0.24168794817E+03  0.41800000000E+01 0. -1.
         -5    1    3    3    0  502 -0.15022915354E+02  0.23302601613E+02  0.79184103593E+01  0.29135422604E+02  0.41800000000E+01 0. -1.
        -11    1    1    2    0    0  0.88926699042E+02  0.24069491234E+02  0.46935063630E+02  0.10339341569E+03  0.00000000000E+00 0.  1.
         11    1    1    2    0    0  0.80413647857E+02  0.26998427763E+02 -0.43517394170E+02  0.95336422519E+02  0.00000000000E+00 0. -1.
</event>
<event>
 7    1  0.2873461E-009  0.1104431E+03  0.7561462E-02  0.1259752E+00
          2   -1    0    0  501    0  0.00000000000E+00  0.00000000000E+00  0.42031562127E+03  0.42031562127E+03  0.00000000000E+00 0.  1.
         -2   -1    0    0    0  501 -0.00000000000E+00 -0.00000000000E+00 -0.37675544109E+02  0.37675544109E+02  0.00000000000E+00 0. -1.
         25    2    1    2    0    0 -0.47574911085E+02 -0.59836910625E+01  0.29916419601E+03  0.32779038328E+03  0.12509253565E+03 0.  0.
          5    1    3    3  502    0 -0.72852205660E+02  0.38283584128E+02  0.19692332598E+03  0.21346977631E+03  0.41800000000E+01 0. -1.
         -5    1    3    3    0  502  0.25277294575E+02 -0.44267275190E+02  0.10224087003E+03  0.11432060697E+03  0.41800000000E+01 0. -1.
        -11    1    1    2    0    0 -0.35528422235E+01  0.30448422722E+02  0.62773575107E+02  0.69858792330E+02  0.00000000000E+00 0.  1.
         11    1    1    2    0    0  0.51127753308E+02 -0.24464731660E+02  0.20702306044E+02  0.60341989767E+02  0.00000000000E+00 0. -1.
</event>
<event>
 7    1  0.2873461E-009  0.1291954E+03  0.7561462E-02  0.1228654E+00
          2   -1    0    0  501    0  0.00000000000E+00  0.00000000000E+00  0.75460673358E+03  0.75460673358E+03  0.00000000000E+00 0. -1.
         -2   -1    0    0    0  501 -0.00000000000E+00 -0.00000000000E+00 -0.37145118216E+02  0.37145118216E+02  0.00000000000E+00 0.  1.
         25    2    1    2    0    0 -0.10710914165E+03  0.67166074468E+01  0.54018678835E+03  0.56477284275E+03  0.12509642902E+03 0.  0.
          5    1    3    3  502    0 -0.29328650059E+02  0.24459517774E+02  0.41160938960E+03  0.41339835478E+03  0.41800000000E+01 0. -1.
         -5    1    3    3    0  502 -0.77780491591E+02 -0.17742910328E+02  0.12857739875E+03  0.15137448797E+03  0.41800000000E+01 0. -1.
        -11    1    1    2    0    0  0.63934688586E+02  0.40831135841E+02  0.78543897059E+02  0.10919693138E+03  0.00000000000E+00 0.  1.
         11    1    1    2    0    0  0.43174453064E+02 -0.47547743288E+02  0.98730929951E+02  0.11778207766E+03  0.00000000000E+00 0. -1.
</event>
<event>
 7    1  0.2873461E-009  0.1030717E+03  0.7561462E-02  0.1273966E+00
         -1   -1    0    0    0  501 -0.00000000000E+00  0.00000000000E+00  0.16472272824E+02  0.16472272824E+02  0.00000000000E+00 0.  1.
          1   -1    0    0  501    0  0.00000000000E+00 -0.00000000000E+00 -0.78406297795E+03  0.78406297795E+03  0.00000000000E+00 0. -1.
         25    2    1    2    0    0  0.13948830270E+02  0.29378768784E+02 -0.50305368854E+03  0.51939240646E+03  0.12509107247E+03 0.  0.
          5    1    3    3  502    0  0.33395310003E+02  0.63932632521E+02 -0.18111354549E+03  0.19499286395E+03  0.41800000000E+01 0.  1.
         -5    1    3    3    0  502 -0.19446479733E+02 -0.34553863737E+02 -0.32194014305E+03  0.32439954251E+03  0.41800000000E+01 0.  1.
        -11    1    1    2    0    0 -0.55257175120E+01 -0.61025330851E+02 -0.15047183522E+03  0.16246968257E+03  0.00000000000E+00 0. -1.
         11    1    1    2    0    0 -0.84231127577E+01  0.31646562067E+02 -0.11406518136E+03  0.11867316174E+03  0.00000000000E+00 0.  1.
</event>
<event>
 7    1  0.2873461E-009  0.1185724E+03  0.7561462E-02  0.1245471E+00
          1   -1    0    0  501    0  0.00000000000E+00  0.00000000000E+00  0.56582010874E+03  0.56582010874E+03  0.00000000000E+00 0. -1.
         -1   -1    0    0    0  501 -0.00000000000E+00 -0.00000000000E+00 -0.43477557217E+02  0.43477557217E+02  0.00000000000E+00 0.  1.
         25    2    1    2    0    0  0.10655128485E+03 -0.57234380085E+01  0.34233830888E+03  0.37977499494E+03  0.12509034740E+03 0.  0.
          5    1    3    3  502    0  0.53862766918E+02 -0.36948239478E+02  0.29522040817E+03  0.30238870988E+03  0.41800000000E+01 0.  1.
         -5    1    3    3    0  502  0.52688517936E+02  0.31224801470E+02  0.47117900703E+02  0.77386285063E+02  0.41800000000E+01 0.  1.
        -11    1    1    2    0    0 -0.40645330425E+02  0.15848838315E+02  0.15034145304E+03  0.15654322427E+03  0.00000000000E+00 0. -1.
         11    1    1    2    0    0 -0.65905954430E+02 -0.10125400306E+02  0.29662789609E+02  0.72979446751E+02  0.00000000000E+00 0.  1.
</event>
<event>
 7    1  0.2873461E-009  0.1634739E+03  0.7561462E-02  0.1184830E+00
         -1   -1    0    0    0  501 -0.00000000000E+00  0.00000000000E+00  0.53986083077E+02  0.53986083077E+02  0.00000000000E+00 0.  1.
          1   -1    0    0  501    0  0.00000000000E+00 -0.00000000000E+00 -0.58506285018E+03  0.58506285018E+03  0.00000000000E+00 0. -1.
         25    2    1    2    0    0  0.12429117006E+03  0.37077284793E+02 -0.17618016297E+03  0.25201140254E+03  0.12508907700E+03 0.  0.
          5    1    3    3  502    0  0.66070133362E+02 -0.42917055102E+02 -0.98196698726E+02  0.12596507525E+03  0.41800000000E+01 0. -1.
         -5    1    3    3    0  502  0.58221036700E+02  0.79994339895E+02 -0.77983464243E+02  0.12604632730E+03  0.41800000000E+01 0. -1.
        -11    1    1    2    0    0 -0.70765284111E+02  0.17167636732E+02 -0.12298388716E+03  0.14292476933E+03  0.00000000000E+00 0.  1.
         11    1    1    2    0    0 -0.53525885951E+02 -0.54244921526E+02 -0.23191271698E+03  0.24411276139E+03  0.00000000000E+00 0. -1.
</event>
<event>
 7    1  0.2873461E-009  0.9682314E+02  0.7561462E-02  0.1287122E+00
         -1   -1    0    0    0  501 -0.00000000000E+00  0.00000000000E+00  0.13224187631E+02  0.13224187631E+02  0.00000000000E+00 0.  1.
          1   -1    0    0  501    0  0.00000000000E+00 -0.00000000000E+00 -0.94519832202E+03  0.94519832202E+03  0.00000000000E+00 0. -1.
         25    2    1    2    0    0  0.25137837543E+02 -0.42614532283E+00 -0.51818611602E+03  0.53366335593E+03  0.12509050381E+03 0.  0.
          5    1    3    3  502    0  0.61622280255E+02 -0.56188321915E+01 -0.46322916390E+03  0.46736239407E+03  0.41800000000E+01 0.  1.
         -5    1    3    3    0  502 -0.36484442712E+02  0.51926868687E+01 -0.54956952120E+02  0.66300961858E+02  0.41800000000E+01 0.  1.
        -11    1    1    2    0    0  0.34094596477E+02  0.74271230664E+01 -0.18891273922E+03  0.19210837230E+03  0.00000000000E+00 0. -1.
         11    1    1    2    0    0 -0.59232434020E+02 -0.70009777435E+01 -0.22487527915E+03  0.23265078143E+03  0.00000000000E+00 0.  1.
</event>
<event>
 6    1  0.2873461E-009  0.1102479E+03  0.7561462E-02  0.1260111E+00
         -2   -1    0    0    0  501 -0.00000000000E+00  0.00000000000E+00  0.41466271082E+03  0.41466271082E+03  0.00000000000E+00 0. -1.
          2   -1    0    0  501    0  0.00000000000E+00 -0.00000000000E+00 -0.46953728268E+02  0.46953728268E+02  0.00000000000E+00 0.  1.
          5    1    1    2  502    0 -0.42876424763E+02 -0.34562421986E+02  0.70820545644E+02  0.89810750466E+02  0.41800000000E+01 0.  1.
         -5    1    1    2    0  502  0.66475319365E+01  0.66390649445E+02  0.12879339497E+02  0.68082727622E+02  0.41800000000E+01 0.  1.
        -11    1    1    2    0    0  0.48549156325E+02  0.14344206383E+02  0.83924435269E+02  0.98010650808E+02  0.00000000000E+00 0.  1.
         11    1    1    2    0    0 -0.12320263498E+02 -0.46172433842E+02  0.20008466215E+03  0.20571231020E+03  0.00000000000E+00 0. -1.
</event>
<event>
 7    1  0.2873461E-009  0.9474762E+02  0.7561462E-02  0.1291746E+00
          1   -1    0    0  501    0  0.00000000000E+00  0.00000000000E+00  0.21196826892E+03  0.21196826892E+03  0.00000000000E+00 0. -1.
         -1   -1    0    0    0  501 -0.00000000000E+00 -0.00000000000E+00 -0.61164813566E+02  0.61164813566E+02  0.00000000000E+00 0.  1.
         25    2    1    2    0    0  0.30253292581E+01 -0.39567498301E+01  0.13010727606E+03  0.18054867867E+03  0.12508042852E+03 0.  0.
          5    1    3    3  502    0  0.48950705895E+02 -0.19705130871E+02  0.11946951777E+03  0.13067096795E+03  0.41800000000E+01 0.  1.
         -5    1    3    3    0  502 -0.45925376636E+02  0.15748381040E+02  0.10637758293E+02  0.49877710714E+02  0.41800000000E+01 0.  1.
        -11    1    1    2    0    0 -0.28063571673E+02 -0.32919850988E+02 -0.42400339688E+00  0.43260379367E+02  0.00000000000E+00 0.  1.
         11    1    1    2    0    0  0.25038242415E+02  0.36876600818E+02  0.21120182689E+02  0.49324024450E+02  0.00000000000E+00 0. -1.
</event>
<event>
 7    1  0.2873461E-009  0.1250427E+03  0.7561462E-02  0.1235003E+00
          2   -1    0    0  501    0  0.00000000000E+00  0.00000000000E+00  0.82275712131E+02  0.82275712131E+02  0.00000000000E+00 0. -1.
         -2   -1    0    0    0  501 -0.00000000000E+00 -0.00000000000E+00 -0.30227617730E+03  0.30227617730E+03  0.00000000000E+00 0.  1.
         25    2    1    2    0    0 -0.11741823745E+02 -0.10044820075E+03 -0.53801855223E+02  0.16961522025E+03  0.12508785655E+03 0.  0.
          5    1    3    3  502    0  0.30522415561E+02  0.88755613900E+00  0.20463824454E+02  0.36995217514E+02  0.41800000000E+01 0. -1.
         -5    1    3    3    0  502 -0.42264239306E+02 -0.10133575689E+03 -0.74265679678E+02  0.13262000274E+03  0.41800000000E+01 0. -1.
        -11    1    1    2    0    0  0.27526840564E+02  0.64528245001E+02 -0.16066427892E+03  0.17531295410E+03  0.00000000000E+00 0.  1.
         11    1    1    2    0    0 -0.15785016819E+02  0.35919955746E+02 -0.55343310240E+01  0.39623715079E+02  0.00000000000E+00 0. -1.
</event>
<event>
 7    1  0.2873461E-009  0.1173004E+03  0.7561462E-02  0.1247618E+00
         -2   -1    0    0    0  501 -0.00000000000E+00  0.00000000000E+00  0.24351519354E+03  0.24351519354E+03  0.00000000000E+00 0.  1.
          2   -1    0    0  501    0  0.00000000000E+00 -0.00000000000E+00 -0.62690532093E+02  0.62690532093E+02  0.00000000000E+00 0. -1.
         25    2    1    2    0    0 -0.53412332897E+02  0.11903310698E+02  0.12512915972E+03  0.18520792197E+03  0.12510036625E+03 0.  0.
          5    1    3    3  502    0 -0.69743510887E+02  0.49748574469E+02  0.11333565044E+03  0.14213205140E+03  0.41800000000E+01 0.  1.
         -5    1    3    3    0  502  0.16331177990E+02 -0.37845263771E+02  0.11793509275E+02  0.43075870571E+02  0.41800000000E+01 0.  1.
        -11    1    1    2    0    0  0.72662736801E+02  0.15122413509E+02  0.37496514783E+02  0.83153769191E+02  0.00000000000E+00 0. -1.
         11    1    1    2    0    0 -0.19250403905E+02 -0.27025724207E+02  0.18198986944E+02  0.37844034473E+02  0.00000000000E+00 0.  1.
</event>
<event>
 7    1  0.2873461E-009  0.1109667E+03  0.7561462E-02  0.1258790E+00
         -1   -1    0    0    0  501 -0.00000000000E+00  0.00000000000E+00  0.66380282092E+02  0.66380282092E+02  0.00000000000E+00 0.  1.
          1   -1    0    0  501    0  0.00000000000E+00 -0.00000000000E+00 -0.34628063596E+03  0.34628063596E+03  0.00000000000E+00 0. -1.
         25    2    1    2    0    0  0.38989068257E+02  0.23766445723E+02 -0.28363365966E+03  0.31333681230E+03  0.12508762394E+03 0.  0.
          5    1    3    3  502    0  0.53175430329E+01  0.70468390887E+02 -0.11443623085E+03  0.13456297303E+03  0.41800000000E+01 0. -1.
         -5    1    3    3    0  502  0.33671525224E+02 -0.46701945164E+02 -0.16919742881E+03  0.17877383927E+03  0.41800000000E+01 0. -1.
        -11    1    1    2    0    0 -0.24056525984E+01 -0.48945152223E+02  0.18712222385E+02  0.52455336784E+02  0.00000000000E+00 0.  1.
         11    1    1    2    0    0 -0.36583415658E+02  0.25178706500E+02 -0.14978916591E+02  0.46868768967E+02  0.00000000000E+00 0. -1.
</event>
<event>
 7    1  0.2873461E-009  0.1091558E+03  0.7561462E-02  0.1262141E+00
          1   -1    0    0  501    0  0.00000000000E+00  0.00000000000E+00  0.17396318055E+04  0.17396318055E+04  0.00000000000E+00 0. -1.
         -1   -1    0    0    0  501 -0.00000000000E+00 -0.00000000000E+00 -0.87665397425E+01  0.87665397425E+01  0.00000000000E+00 0.  1.
         25    2    1    2    0    0 -0.15951273838E+02 -0.21447939616E+01  0.13701266931E+04  0.13759191890E+04  0.12508963334E+03 0.  0.
          5    1    3    3  502    0 -0.29465016644E+02 -0.59485485727E+02  0.78924861415E+03  0.79204643649E+03  0.41800000000E+01 0. -1.
         -5    1    3    3    0  502  0.13513742806E+02  0.57340691766E+02  0.58087807890E+03  0.58387275251E+03  0.41800000000E+01 0. -1.
        -11    1    1    2    0    0  0.53974587889E+02 -0.44050695423E+01  0.20496393409E+03  0.21199734681E+03  0.00000000000E+00 0.  1.
         11    1    1    2    0    0 -0.38023314051E+02  0.65498635038E+01  0.15577463858E+03  0.16048180940E+03  0.00000000000E+00 0. -1.
</event>
<event>
 7    1  0.2873461E-009  0.1771661E+03  0.7561462E-02  0.1170574E+00
         -1   -1    0    0    0  501 -0.00000000000E+00  0.00000000000E+00  0.16481963858E+03  0.16481963858E+03  0.00000000000E+00 0.  1.
          1   -1    0    0  501    0  0.00000000000E+00 -0.00000000000E+00 -0.44586847088E+03  0.44586847088E+03  0.00000000000E+00 0. -1.
         25    2    1    2    0    0  0.45533793761E+02 -0.15911576821E+03  0.65822833156E+02  0.21765913230E+03  0.12510674819E+03 0.  0.
          5    1    3    3  502    0 -0.13988659969E+02 -0.98971820156E+02 -0.14289991374E+02  0.10105830023E+03  0.41800000000E+01 0.  1.
         -5    1    3    3    0  502  0.59522453730E+02 -0.60143948053E+02  0.80112824530E+02  0.11660083207E+03  0.41800000000E+01 0.  1.
        -11    1    1    2    0    0 -0.10204397587E+01  0.69485379470E+02 -0.22415428541E+03  0.23467936195E+03  0.00000000000E+00 0. -1.
         11    1    1    2    0    0 -0.44513354002E+02  0.89630388739E+02 -0.12271738005E+03  0.15834961521E+03  0.00000000000E+00 0.  1.
</event>
<event>
 7    1  0.2873461E-009  0.2472164E+03  0.7561462E-02  0.1115077E+00
          2   -1    0    0  501    0  0.00000000000E+00  0.00000000000E+00  0.70398609709E+03  0.70398609709E+03  0.00000000000E+00 0. -1.
         -2   -1    0    0    0  501 -0.00000000000E+00 -0.00000000000E+00 -0.94344959897E+02  0.94344959897E+02  0.00000000000E+00 0.  1.
         25    2    1    2    0    0  0.25976455447E+02  0.23055934123E+03  0.27630573489E+03  0.38187034580E+03  0.12509083022E+03 0.  0.
          5    1    3    3  502    0 -0.20950364294E+02  0.74343676122E+01  0.72772449856E+02  0.76206885804E+02  0.41800000000E+01 0.  1.
         -5    1    3    3    0  502  0.46926819741E+02  0.22312497361E+03  0.20353328503E+03  0.30566345999E+03  0.41800000000E+01 0.  1.
        -11    1    1    2    0    0  0.25969310407E+02 -0.98333260383E+02  0.96003074606E+02  0.13985859113E+03  0.00000000000E+00 0. -1.
         11    1    1    2    0    0 -0.51945765853E+02 -0.13222608084E+03  0.23733232770E+03  0.27660212005E+03  0.00000000000E+00 0.  1.
</event>
<event>
 7    1  0.2873461E-009  0.1696895E+03  0.7561462E-02  0.1178172E+00
         -1   -1    0    0    0  501 -0.00000000000E+00  0.00000000000E+00  0.99715142212E+03  0.99715142212E+03  0.00000000000E+00 0.  1.
          1   -1    0    0  501    0  0.00000000000E+00 -0.00000000000E+00 -0.40255325471E+02  0.40255325471E+02  0.00000000000E+00 0. -1.
         25    2    1    2    0    0 -0.24537573135E+02 -0.14796876558E+03  0.69386917395E+03  0.72083218716E+03  0.12509102046E+03 0.  0.
          5    1    3    3  502    0 -0.66588092245E+02 -0.77308227869E+02  0.49800738581E+03  0.50836931934E+03  0.41800000000E+01 0.  1.
         -5    1    3    3    0  502  0.42050519110E+02 -0.70660537716E+02  0.19586178814E+03  0.21246286782E+03  0.41800000000E+01 0.  1.
        -11    1    1    2    0    0 -0.10661418606E+02  0.31298288281E+02  0.81375000455E+01  0.34050955978E+02  0.00000000000E+00 0. -1.
         11    1    1    2    0    0  0.35198991741E+02  0.11667047730E+03  0.25488942265E+03  0.28252360445E+03  0.00000000000E+00 0.  1.
</event>
<event>
 7    1  0.2873461E-009  0.1059875E+03  0.7561462E-02  0.1268186E+00
          2   -1    0    0  501    0  0.00000000000E+00  0.00000000000E+00  0.22398982708E+02  0.22398982708E+02  0.00000000000E+00 0. -1.
         -2   -1    0    0    0  501 -0.00000000000E+00 -0.00000000000E+00 -0.55206478410E+03  0.55206478410E+03  0.00000000000E+00 0.  1.
         25    2    1    2    0    0  0.18137294864E+02  0.11064634488E+02 -0.35864681897E+03  0.38042913724E+03  0.12508956832E+03 0.  0.
          5    1    3    3  502    0 -0.37726149174E+02 -0.34709459732E+02 -0.10925064271E+03  0.12075257454E+03  0.41800000000E+01 0.  1.
         -5    1    3    3    0  502  0.55863444037E+02  0.45774094219E+02 -0.24939617626E+03  0.25967656269E+03  0.41800000000E+01 0.  1.
        -11    1    1    2    0    0 -0.30138525190E+02  0.31724317653E+02 -0.58478964075E+02  0.73038019349E+02  0.00000000000E+00 0.  1.
         11    1    1    2    0    0  0.12001230326E+02 -0.42788952140E+02 -0.11254001835E+03  0.12099661022E+03  0.00000000000E+00 0. -1.
</event>
<event>
 7    1  0.2873461E-009  0.9361876E+02  0.7561462E-02  0.1294318E+00
          1   -1    0    0  501    0  0.00000000000E+00  0.00000000000E+00  0.81505340003E+02  0.81505340003E+02  0.00000000000E+00 0. -1.
         -1   -1    0    0    0  501 -0.00000000000E+00 -0.00000000000E+00 -0.12406927839E+03  0.12406927839E+03  0.00000000000E+00 0.  1.
         25    2    1    2    0    0  0.10015854023E+01 -0.43896838246E+01 -0.26148061309E+02  0.12787862798E+03  0.12509576286E+03 0.  0.
          5    1    3    3  502    0 -0.53660007258E+02  0.97372079457E+01  0.16352710600E+02  0.57088467675E+02  0.41800000000E+01 0.  1.
         -5    1    3    3    0  502  0.54661592660E+02 -0.14126891770E+02 -0.42500771909E+02  0.70790160306E+02  0.41800000000E+01 0.  1.
        -11    1    1    2    0    0  0.39500398568E+01  0.39890025831E+02 -0.93800656956E+01  0.41167980374E+02  0.00000000000E+00 0.  1.
         11    1    1    2    0    0 -0.49516252591E+01 -0.35500342006E+02 -0.70358113780E+01  0.36528010034E+02  0.00000000000E+00 0. -1.
</event>
<event>
 7    1  0.3891259E-009  0.5349856E+02  0.7561462E-02  0.1427336E+00
          2   -1    0    0  501    0  0.00000000000E+00  0.00000000000E+00  0.33904589674E+03  0.33904589674E+03  0.00000000000E+00 0. -1.
         -2   -1    0    0    0  501 -0.00000000000E+00 -0.00000000000E+00 -0.43304935589E+02  0.43304935589E+02  0.00000000000E+00 0.  1.
         25    2    1    2    0    0  0.28780177634E+02  0.13336974350E+02  0.96947636850E+02  0.16140483796E+03  0.12508598609E+03 0.  0.
          5    1    3    3  502    0  0.32312959786E+02  0.13614416201E+02  0.12650640725E+03  0.13134238910E+03  0.41800000000E+01 0.  1.
         -5    1    3    3    0  502 -0.35327821524E+01 -0.27744185131E+00 -0.29558770402E+02  0.30062448859E+02  0.41800000000E+01 0.  1.
        -11    1    1    2    0    0 -0.25296933334E+02  0.20271099190E+02  0.18113887253E+02  0.37134420824E+02  0.00000000000E+00 0.  1.
         11    1    1    2    0    0 -0.34832442993E+01 -0.33608073540E+02  0.18067943704E+03  0.18381157354E+03  0.00000000000E+00 0. -1.
</event>
<event>
 7    1  0.2873461E-009  0.1030935E+03  0.7561462E-02  0.1273922E+00
          1   -1    0    0  501    0  0.00000000000E+00  0.00000000000E+00  0.31610794784E+02  0.31610794784E+02  0.00000000000E+00 0. -1.
         -1   -1    0    0    0  501 -0.00000000000E+00 -0.00000000000E+00 -0.41958430350E+03  0.41958430350E+03  0.00000000000E+00 0.  1.
         25    2    1    2    0    0 -0.30687490911E+02 -0.33155440349E+02 -0.22547684323E+03  0.26177919243E+03  0.12509010125E+03 0.  0.
          5    1    3    3  502    0  0.34178809822E+02 -0.54512378721E+02 -0.11452000546E+03  0.13142334087E+03  0.41800000000E+01 0. -1.
         -5    1    3    3    0  502 -0.64866300734E+02  0.21356938372E+02 -0.11095683777E+03  0.13035585156E+03  0.41800000000E+01 0. -1.
        -11    1    1    2    0    0  0.41654454970E+02  0.42036269574E+02 -0.16481269795E+03  0.17511529626E+03  0.00000000000E+00 0.  1.
         11    1    1    2    0    0 -0.10966964058E+02 -0.88808292256E+01  0.23160324664E+01  0.14300609594E+02  0.00000000000E+00 0. -1.
</event>
<event>
 7    1  0.2873461E-009  0.8892388E+02  0.7561462E-02  0.1305479E+00
          1   -1    0    0  501    0  0.00000000000E+00  0.00000000000E+00  0.37690956279E+03  0.37690956279E+03  0.00000000000E+00 0. -1.
         -1   -1    0    0    0  501 -0.00000000000E+00 -0.00000000000E+00 -0.41389392685E+02  0.41389392685E+02  0.00000000000E+00 0.  1.
         25    2    1    2    0    0 -0.27584722331E+02  0.22785686835E+02  0.23871258675E+03  0.27186706803E+03  0.12509156316E+03 0.  0.
          5    1    3    3  502    0 -0.22338721933E+02  0.69450814203E+02  0.19227304906E+03  0.20569110794E+03  0.41800000000E+01 0.  1.
         -5    1    3    3    0  502 -0.52460003975E+01 -0.46665127368E+02  0.46439537685E+02  0.66175960083E+02  0.41800000000E+01 0.  1.
        -11    1    1    2    0    0 -0.21312910678E+01  0.11822410317E+02 -0.18709774940E+02  0.22234375765E+02  0.00000000000E+00 0.  1.
         11    1    1    2    0    0  0.29716013399E+02 -0.34608097152E+02  0.11551735830E+03  0.12419751169E+03  0.00000000000E+00 0. -1.
</event>
<event>
 7    1  0.2873461E-009  0.9658383E+02  0.7561462E-02  0.1287648E+00
         -2   -1    0    0    0  501 -0.00000000000E+00  0.00000000000E+00  0.10138966809E+04  0.10138966809E+04  0.00000000000E+00 0.  1.
          2   -1    0    0  501    0  0.00000000000E+00 -0.00000000000E+00 -0.12278580302E+02  0.12278580302E+02  0.00000000000E+00 0. -1.
         25    2    1    2    0    0  0.82847199961E+01 -0.34276726914E+02  0.59110349843E+03  0.60522793917E+03  0.12511587388E+03 0.  0.
          5    1    3    3  502    0 -0.43024507517E+02 -0.18252115118E+02  0.92526990309E+02  0.10374470728E+03  0.41800000000E+01 0. -1.
         -5    1    3    3    0  502  0.51309227513E+02 -0.16024611796E+02  0.49857650812E+03  0.50148323188E+03  0.41800000000E+01 0. -1.
        -11    1    1    2    0    0 -0.45827698775E+02  0.80407677065E+01  0.23448948484E+03  0.23906097637E+03  0.00000000000E+00 0.  1.
         11    1    1    2    0    0  0.37542978778E+02  0.26235959208E+02  0.17602511734E+03  0.18188634568E+03  0.00000000000E+00 0. -1.
</event>
<event>
 7    1  0.2873461E-009  0.7318456E+02  0.7561462E-02  0.1349587E+00
          2   -1    0    0  501    0  0.00000000000E+00  0.00000000000E+00  0.26396457746E+02  0.26396457746E+02  0.00000000000E+00 0. -1.
         -2   -1    0    0    0  501 -0.00000000000E+00 -0.00000000000E+00 -0.54148657847E+03  0.54148657847E+03  0.00000000000E+00 0.  1.
         25    2    1    2    0    0  0.39366826591E+01  0.40156534869E+02 -0.21817989629E+03  0.25471501121E+03  0.12509686258E+03 0.  0.
          5    1    3    3  502    0 -0.96474140091E+01  0.36526625631E+02 -0.20257207044E+01  0.38063669311E+02  0.41800000000E+01 0. -1.
         -5    1    3    3    0  502  0.13584096668E+02  0.36299092381E+01 -0.21615417559E+03  0.21665134190E+03  0.41800000000E+01 0. -1.
        -11    1    1    2    0    0  0.31678055942E+02 -0.47723952655E+02 -0.12580153261E+03  0.13822843591E+03  0.00000000000E+00 0.  1.
         11    1    1    2    0    0 -0.35614738601E+02  0.75674177853E+01 -0.17110869182E+03  0.17493958909E+03  0.00000000000E+00 0. -1.
</event>
<event>
 7    1  0.2873461E-009  0.3138508E+03  0.7561462E-02  0.1078515E+00
         -1   -1    0    0    0  501 -0.00000000000E+00  0.00000000000E+00  0.12777217855E+04  0.12777217855E+04  0.00000000000E+00 0.  1.
          1   -1    0    0  501    0  0.00000000000E+00 -0.00000000000E+00 -0.80633130939E+02  0.80633130939E+02  0.00000000000E+00 0. -1.
         25    2    1    2    0    0  0.46425915371E+02  0.29417847365E+03  0.50555528920E+03  0.59994228944E+03  0.12509300639E+03 0.  0.
          5    1    3    3  502    0  0.61503831278E+02  0.77136882689E+02  0.21809981064E+03  0.23941140268E+03  0.41800000000E+01 0.  1.
         -5    1    3    3    0  502 -0.15077915907E+02  0.21704159097E+03  0.28745547856E+03  0.36053088676E+03  0.41800000000E+01 0.  1.
        -11    1    1    2    0    0 -0.73999804384E+02 -0.22613490075E+03  0.52269296526E+03  0.57430035724E+03  0.00000000000E+00 0.  1.
         11    1    1    2    0    0  0.27573889013E+02 -0.68043572908E+02  0.16884040007E+03  0.18411226973E+03  0.00000000000E+00 0. -1.
</event>
<event>
 7    1  0.2873461E-009  0.1144681E+03  0.7561462E-02  0.1252512E+00
          1   -1    0    0  501    0  0.00000000000E+00  0.00000000000E+00  0.13688409201E+03  0.13688409201E+03  0.00000000000E+00 0. -1.
         -1   -1    0    0    0  501 -0.00000000000E+00 -0.00000000000E+00 -0.10176777961E+03  0.10176777961E+03  0.00000000000E+00 0.  1.
         25    2    1    2    0    0 -0.16954782774E+02 -0.35460816995E+02  0.39126620144E+02  0.13683557056E+03  0.12509255280E+03 0.  0.
          5    1    3    3  502    0 -0.41896273236E+02 -0.71932167527E+02  0.39990141376E+02  0.92445758385E+02  0.41800000000E+01 0.  1.
         -5    1    3    3    0  502  0.24941490462E+02  0.36471350531E+02 -0.86352123181E+00  0.44389812175E+02  0.41800000000E+01 0.  1.
        -11    1    1    2    0    0  0.48378256322E+02 -0.64682125737E+01 -0.71271998027E+01  0.49326366537E+02  0.00000000000E+00 0. -1.
         11    1    1    2    0    0 -0.31423473548E+02  0.41929029569E+02  0.31168920567E+01  0.52489934526E+02  0.00000000000E+00 0.  1.
</event>
<event>
 7    1  0.2873461E-009  0.1032386E+03  0.7561462E-02  0.1273629E+00
         -2   -1    0    0    0  501 -0.00000000000E+00  0.00000000000E+00  0.33325214996E+03  0.33325214996E+03  0.00000000000E+00 0.  1.
          2   -1    0    0  501    0  0.00000000000E+00 -0.00000000000E+00 -0.47221897933E+02  0.47221897933E+02  0.00000000000E+00 0. -1.
         25    2    1    2    0    0 -0.47340339172E+02 -0.43371402077E+02  0.16502887033E+03  0.21680448744E+03  0.12508985370E+03 0.  0.
          5    1    3    3  502    0 -0.26035533465E+02  0.41781928003E+02  0.37946491419E+02  0.62297569146E+02  0.41800000000E+01 0.  1.
         -5    1    3    3    0  502 -0.21304805707E+02 -0.85153330081E+02  0.12708237891E+03  0.15450691829E+03  0.41800000000E+01 0.  1.
        -11    1    1    2    0    0  0.25326954561E+02  0.39378664110E+02  0.13103617514E+03  0.13914960658E+03  0.00000000000E+00 0.  1.
         11    1    1    2    0    0  0.22013384612E+02  0.39927379676E+01 -0.10034793450E+02  0.24519953877E+02  0.00000000000E+00 0. -1.
</event>
<event>
 7    1  0.2873461E-009  0.1179818E+03  0.7561462E-02  0.1246464E+00
         -3   -1    0    0    0  501 -0.00000000000E+00  0.00000000000E+00  0.25800460277E+03  0.25800460277E+03  0.00000000000E+00 0.  1.
          3   -1    0    0  501    0  0.00000000000E+00 -0.00000000000E+00 -0.98339024707E+02  0.98339024707E+02  0.00000000000E+00 0. -1.
         25    2    1    2    0    0  0.81747237239E+02  0.68087309213E+02  0.33262198479E+02  0.16752959777E+03  0.12506518225E+03 0.  0.
          5    1    3    3  502    0  0.34169858709E+02  0.39923770560E+02 -0.46564319866E+02  0.70336299195E+02  0.41800000000E+01 0. -1.
         -5    1    3    3    0  502  0.47577378530E+02  0.28163538653E+02  0.79826518344E+02  0.97193298577E+02  0.41800000000E+01 0. -1.
        -11    1    1    2    0    0  0.10262610813E+02 -0.23321620461E+02  0.64192426695E+02  0.69064367127E+02  0.00000000000E+00 0.  1.
         11    1    1    2    0    0 -0.92009848052E+02 -0.44765688752E+02  0.62210952891E+02  0.11974966258E+03  0.00000000000E+00 0. -1.
</event>
<event>
 7    1  0.2873461E-009  0.1160713E+03  0.7561462E-02  0.1249723E+00
          1   -1    0    0  501    0  0.00000000000E+00  0.00000000000E+00  0.34862850443E+03  0.34862850443E+03  0.00000000000E+00 0. -1.
         -1   -1    0    0    0  501 -0.00000000000E+00 -0.00000000000E+00 -0.45975622845E+02  0.45975622845E+02  0.00000000000E+00 0.  1.
         25    2    1    2    0    0  0.36865682057E+02  0.48660043309E+02  0.20697123168E+03  0.24942102533E+03  0.12508748461E+03 0.  0.
          5    1    3    3  502    0  0.36136954232E+00 -0.38692293910E+02  0.31797918191E+02  0.50257379530E+02  0.41800000000E+01 0.  1.
         -5    1    3    3    0  502  0.36504312515E+02  0.87352337219E+02  0.17517331349E+03  0.19916364580E+03  0.41800000000E+01 0.  1.
        -11    1    1    2    0    0 -0.92862927109E+01  0.21311845431E+02 -0.29353696386E+00  0.23249003247E+02  0.00000000000E+00 0.  1.
         11    1    1    2    0    0 -0.27579389347E+02 -0.69971888741E+02  0.95975186870E+02  0.12193409870E+03  0.00000000000E+00 0. -1.
</event>
<event>
 7    1  0.2873461E-009  0.1114726E+03  0.7561462E-02  0.1257867E+00
          1   -1    0    0  501    0  0.00000000000E+00  0.00000000000E+00  0.46188072662E+03  0.46188072662E+03  0.00000000000E+00 0. -1.
         -1   -1    0    0    0  501 -0.00000000000E+00 -0.00000000000E+00 -0.46797548231E+02  0.46797548231E+02  0.00000000000E+00 0.  1.
         25    2    1    2    0    0 -0.30025242181E+02 -0.64002310508E+02  0.10476004231E+03  0.17781336987E+03  0.12508044260E+03 0.  0.
          5    1    3    3  502    0 -0.60027715455E+02 -0.74447799179E+02  0.10947726018E+03  0.14542539091E+03  0.41800000000E+01 0. -1.
         -5    1    3    3    0  502  0.30002473274E+02  0.10445488670E+02 -0.47172178782E+01  0.32387978952E+02  0.41800000000E+01 0. -1.
        -11    1    1    2    0    0  0.44973082917E+02  0.66238783335E+02  0.30419625154E+03  0.31455605869E+03  0.00000000000E+00 0. -1.
         11    1    1    2    0    0 -0.14947840735E+02 -0.22364728268E+01  0.61268845408E+01  0.16308846297E+02  0.00000000000E+00 0.  1.
</event>
<event>
 7    1  0.2873461E-009  0.1083613E+03  0.7561462E-02  0.1263635E+00
          1   -1    0    0  501    0  0.00000000000E+00  0.00000000000E+00  0.96814457048E+02  0.96814457048E+02  0.00000000000E+00 0. -1.
         -1   -1    0    0    0  501 -0.00000000000E+00 -0.00000000000E+00 -0.20364110140E+03  0.20364110140E+03  0.00000000000E+00 0.  1.
         25    2    1    2    0    0 -0.59379295452E+02  0.53422320074E+02 -0.10073393363E+03  0.17937110951E+03  0.12508726766E+03 0.  0.
          5    1    3    3  502    0 -0.46687037789E+02  0.67344479245E+01 -0.11853855650E+03  0.12764753842E+03  0.41800000000E+01 0.  1.
         -5    1    3    3    0  502 -0.12692257664E+02  0.46687872150E+02  0.17804622876E+02  0.51723571089E+02  0.41800000000E+01 0.  1.
        -11    1    1    2    0    0  0.13222374867E+02 -0.70395317152E+02 -0.89589235762E+00  0.71631937689E+02  0.00000000000E+00 0.  1.
         11    1    1    2    0    0  0.46156920585E+02  0.16972997078E+02 -0.51968183635E+01  0.49452511249E+02  0.00000000000E+00 0. -1.
</event>
<event>
 7    1  0.2873461E-009  0.2043428E+03  0.7561462E-02  0.1146126E+00
         -1   -1    0    0    0  501 -0.00000000000E+00  0.00000000000E+00  0.13956126769E+03  0.13956126769E+03  0.00000000000E+00 0.  1.
          1   -1    0    0  501    0  0.00000000000E+00 -0.00000000000E+00 -0.31623490611E+03  0.31623490611E+03  0.00000000000E+00 0. -1.
         25    2    1    2    0    0  0.16166292998E+03  0.62336891683E+02 -0.14348588434E+03  0.25740384769E+03  0.12509097014E+03 0.  0.
          5    1    3    3  502    0  0.85656592661E+02  0.97161525884E+02 -0.94786404981E+02  0.16055948726E+03  0.41800000000E+01 0.  1.
         -5    1    3    3    0  502  0.76006337314E+02 -0.34824634201E+02 -0.48699479359E+02  0.96844360440E+02  0.41800000000E+01 0.  1.
        -11    1    1    2    0    0 -0.37236061703E+02 -0.60381011886E+02 -0.75857396990E+01  0.71343775722E+02  0.00000000000E+00 0. -1.
         11    1    1    2    0    0 -0.12442686827E+03 -0.19558797975E+01 -0.25602014380E+02  0.12704855038E+03  0.00000000000E+00 0.  1.
</event>
<event>
 7    1  0.2873461E-009  0.1357962E+03  0.7561462E-02  0.1219100E+00
          1   -1    0    0  501    0  0.00000000000E+00  0.00000000000E+00  0.30177473403E+03  0.30177473403E+03  0.00000000000E+00 0. -1.
         -1   -1    0    0    0  501 -0.00000000000E+00 -0.00000000000E+00 -0.77667724930E+02  0.77667724930E+02  0.00000000000E+00 0.  1.
         25    2    1    2    0    0 -0.85939688830E+02 -0.61813702452E+02  0.11823186979E+03  0.20206835773E+03  0.12508509998E+03 0.  0.
          5    1    3    3  502    0 -0.95749323870E+02 -0.72950680709E+02  0.47170107366E+02  0.12935310691E+03  0.41800000000E+01 0. -1.
         -5    1    3    3    0  502  0.98096350406E+01  0.11136978257E+02  0.71061762422E+02  0.72715250827E+02  0.41800000000E+01 0. -1.
        -11    1    1    2    0    0  0.50701236115E+02 -0.13594779168E+02  0.16000673550E+02  0.54876724741E+02  0.00000000000E+00 0.  1.
         11    1    1    2    0    0  0.35238452715E+02  0.75408481620E+02  0.89874465764E+02  0.12249737649E+03  0.00000000000E+00 0. -1.
</event>
<event>
 7    1  0.2873461E-009  0.9314095E+02  0.7561462E-02  0.1295419E+00
         -1   -1    0    0    0  501 -0.00000000000E+00  0.00000000000E+00  0.12738569829E+02  0.12738569829E+02  0.00000000000E+00 0.  1.
          1   -1    0    0  501    0  0.00000000000E+00 -0.00000000000E+00 -0.23128891307E+04  0.23128891307E+04  0.00000000000E+00 0. -1.
         25    2    1    2    0    0  0.58749163761E+02  0.39692025396E+02 -0.19787251258E+04  0.19839424950E+04  0.12509108255E+03 0.  0.
          5    1    3    3  502    0 -0.14438640466E+02 -0.64161871981E+01 -0.12474802823E+04  0.12475873392E+04  0.41800000000E+01 0. -1.
         -5    1    3    3    0  502  0.73187804227E+02  0.46108212594E+02 -0.73124484353E+03  0.73635515585E+03  0.41800000000E+01 0. -1.
        -11    1    1    2    0    0 -0.53501505189E+02 -0.11582117652E+02 -0.30245611381E+03  0.30736990303E+03  0.00000000000E+00 0. -1.
         11    1    1    2    0    0 -0.52476585714E+01 -0.28109907743E+02 -0.18969321207E+02  0.34315302430E+02  0.00000000000E+00 0.  1.
</event>
<event>
 7    1  0.2873461E-009  0.7170756E+02  0.7561462E-02  0.1354381E+00
         -1   -1    0    0    0  501 -0.00000000000E+00  0.00000000000E+00  0.52649506569E+03  0.52649506569E+03  0.00000000000E+00 0.  1.
          1   -1    0    0  501    0  0.00000000000E+00 -0.00000000000E+00 -0.60904085346E+02  0.60904085346E+02  0.00000000000E+00 0. -1.
         25    2    1    2    0    0  0.14926785598E+02 -0.46247104725E+02  0.46680872278E+03  0.48571547953E+03  0.12509012657E+03 0.  0.
          5    1    3    3  502    0  0.10789418840E+02 -0.45325900107E+02  0.48569173651E+02  0.67433565890E+02  0.41800000000E+01 0.  1.
         -5    1    3    3    0  502  0.41373667584E+01 -0.92120461763E+00  0.41823954913E+03  0.41828191364E+03  0.41800000000E+01 0.  1.
        -11    1    1    2    0    0 -0.44765903503E+02  0.40348598972E+02  0.21213366533E+02  0.63890550750E+02  0.00000000000E+00 0.  1.
         11    1    1    2    0    0  0.29839117905E+02  0.58985057526E+01 -0.22431108965E+02  0.37793120761E+02  0.00000000000E+00 0. -1.
</event>
<event>
 7    1  0.2873461E-009  0.3381395E+03  0.7561462E-02  0.1067591E+00
         -2   -1    0    0    0  501 -0.00000000000E+00  0.00000000000E+00  0.18222916762E+03  0.18222916762E+03  0.00000000000E+00 0.  1.
          2   -1    0    0  501    0  0.00000000000E+00 -0.00000000000E+00 -0.70481738622E+03  0.70481738622E+03  0.00000000000E+00 0. -1.
         25    2    1    2    0    0 -0.31442726954E+03  0.55751818539E+02 -0.12111326776E+03  0.36371639404E+03  0.12509363917E+03 0.  0.
          5    1    3    3  502    0 -0.29465218888E+01 -0.20296489022E+02 -0.15741673676E+02  0.26189733637E+02  0.41800000000E+01 0.  1.
         -5    1    3    3    0  502 -0.31148074765E+03  0.76048307560E+02 -0.10537159408E+03  0.33752666040E+03  0.41800000000E+01 0.  1.
        -11    1    1    2    0    0  0.20743033782E+03 -0.84371084246E+02 -0.28726535769E+03  0.36423510352E+03  0.00000000000E+00 0.  1.
         11    1    1    2    0    0  0.10699693172E+03  0.28619265708E+02 -0.11420959314E+03  0.15909505628E+03  0.00000000000E+00 0. -1.
</event>
<event>
 7    1  0.2873461E-009  0.1366525E+03  0.7561462E-02  0.1217906E+00
          3   -1    0    0  501    0  0.00000000000E+00  0.00000000000E+00  0.17169198847E+03  0.17169198847E+03  0.00000000000E+00 0. -1.
         -3   -1    0    0    0  501 -0.00000000000E+00 -0.00000000000E+00 -0.13364154393E+03  0.13364154393E+03  0.00000000000E+00 0.  1.
         25    2    1    2    0    0  0.70665899731E+02  0.58138076672E+02 -0.34340815781E+02  0.15874651694E+03  0.12508980641E+03 0.  0.
          5    1    3    3  502    0  0.64251221426E+02  0.94862796081E+02 -0.38640714556E+02  0.12098655610E+03  0.41800000000E+01 0. -1.
         -5    1    3    3    0  502  0.64146783050E+01 -0.36724719410E+02  0.42998987750E+01  0.37759960844E+02  0.41800000000E+01 0. -1.
        -11    1    1    2    0    0  0.16736054508E+02 -0.19162751741E+02  0.36258970786E+02  0.44294689718E+02  0.00000000000E+00 0. -1.
         11    1    1    2    0    0 -0.87401954239E+02 -0.38975324931E+02  0.36132289530E+02  0.10229232574E+03  0.00000000000E+00 0.  1.
</event>
<event>
 7    1  0.2873461E-009  0.1697290E+03  0.7561462E-02  0.1178131E+00
         -2   -1    0    0    0  501 -0.00000000000E+00  0.00000000000E+00  0.28084034103E+03  0.28084034103E+03  0.00000000000E+00 0.  1.
          2   -1    0    0  501    0  0.00000000000E+00 -0.00000000000E+00 -0.18540084634E+03  0.18540084634E+03  0.00000000000E+00 0. -1.
         25    2    1    2    0    0  0.10721333618E+03 -0.95087062893E+02 -0.93651212413E+02  0.21202533986E+03  0.12509175102E+03 0.  0.
          5    1    3    3  502    0  0.37301364683E+02  0.22574425844E+02  0.37919792220E+01  0.43964167407E+02  0.41800000000E+01 0. -1.
         -5    1    3    3    0  502  0.69911971492E+02 -0.11766148874E+03 -0.97443191635E+02  0.16806117245E+03  0.41800000000E+01 0. -1.
        -11    1    1    2    0    0 -0.53680112240E+02  0.90211277922E+02  0.77927026506E+02  0.13073733428E+03  0.00000000000E+00 0. -1.
         11    1    1    2    0    0 -0.53533223936E+02  0.48757849710E+01  0.11116368060E+03  0.12347851323E+03  0.00000000000E+00 0.  1.
</event>
<event>
 7    1  0.2873461E-009  0.9859842E+02  0.7561462E-02  0.1283271E+00
          2   -1    0    0  501    0  0.00000000000E+00  0.00000000000E+00  0.31493130492E+03  0.31493130492E+03  0.00000000000E+00 0. -1.
         -2   -1    0    0    0  501 -0.00000000000E+00 -0.00000000000E+00 -0.47274581137E+02  0.47274581137E+02  0.00000000000E+00 0.  1.
         25    2    1    2    0    0 -0.35243830478E+02  0.36472626015E+02  0.18446277975E+03  0.22857255133E+03  0.12508602668E+03 0.  0.
          5    1    3    3  502    0 -0.69673149839E+02  0.13941879082E+02  0.47673518771E+02  0.85667733674E+02  0.41800000000E+01 0.  1.
         -5    1    3    3    0  502  0.34429319361E+02  0.22530746933E+02  0.13678926098E+03  0.14290481765E+03  0.41800000000E+01 0.  1.
        -11    1    1    2    0    0  0.35891299155E+02  0.10725065681E+02 -0.59425966198E+00  0.37464190015E+02  0.00000000000E+00 0.  1.
         11    1    1    2    0    0 -0.64746867695E+00 -0.47197691696E+02  0.83788203696E+02  0.96169144718E+02  0.00000000000E+00 0. -1.
</event>
<event>
 7    1  0.2873461E-009  0.1058796E+03  0.7561462E-02  0.1268396E+00
         -1   -1    0    0    0  501 -0.00000000000E+00  0.00000000000E+00  0.19170790831E+03  0.19170790831E+03  0.00000000000E+00 0.  1.
          1   -1    0    0  501    0  0.00000000000E+00 -0.00000000000E+00 -0.91786485305E+02  0.91786485305E+02  0.00000000000E+00 0. -1.
         25    2    1    2    0    0  0.69787652024E+02  0.17893797975E+02  0.30517673762E+02  0.14754520895E+03  0.12509099045E+03 0.  0.
          5    1    3    3  502    0  0.87445057562E+02  0.43790629259E+02  0.50494075697E+02  0.11014255029E+03  0.41800000000E+01 0.  1.
         -5    1    3    3    0  502 -0.17657405538E+02 -0.25896831284E+02 -0.19976401935E+02  0.37402658664E+02  0.41800000000E+01 0.  1.
        -11    1    1    2    0    0 -0.61562793586E+02 -0.29307696961E+02  0.88819351820E+02  0.11197229976E+03  0.00000000000E+00 0.  1.
         11    1    1    2    0    0 -0.82248584376E+01  0.11413898985E+02 -0.19415602578E+02  0.23976884907E+02  0.00000000000E+00 0. -1.
</event>
<event>
 7    1  0.2873461E-009  0.1533200E+03  0.7561462E-02  0.1196452E+00
          2   -1    0    0  501    0  0.00000000000E+00  0.00000000000E+00  0.62305439927E+03  0.62305439927E+03  0.00000000000E+00 0. -1.
         -2   -1    0    0    0  501 -0.00000000000E+00 -0.00000000000E+00 -0.41737022610E+02  0.41737022610E+02  0.00000000000E+00 0.  1.
         25    2    1    2    0    0 -0.63657419294E+02 -0.98573703940E+02  0.26757723080E+03  0.31782623111E+03  0.12508755574E+03 0.  0.
          5    1    3    3  502    0  0.37568220964E+02 -0.18628387070E+02  0.57826009909E+02  0.71552133813E+02  0.41800000000E+01 0. -1.
         -5    1    3    3    0  502 -0.10122564026E+03 -0.79945316870E+02  0.20975122089E+03  0.24627409730E+03  0.41800000000E+01 0. -1.
        -11    1    1    2    0    0  0.76088662536E+02  0.66529948844E+02  0.28422333804E+03  0.30165978277E+03  0.00000000000E+00 0. -1.
         11    1    1    2    0    0 -0.12431243242E+02  0.32043755096E+02  0.29516807820E+02  0.45305407989E+02  0.00000000000E+00 0.  1.
</event>
<event>
 7    1  0.2873461E-009  0.1244671E+03  0.7561462E-02  0.1235904E+00
          2   -1    0    0  501    0  0.00000000000E+00  0.00000000000E+00  0.15899010831E+03  0.15899010831E+03  0.00000000000E+00 0. -1.
         -2   -1    0    0    0  501 -0.00000000000E+00 -0.00000000000E+00 -0.12566201786E+03  0.12566201786E+03  0.00000000000E+00 0.  1.
         25    2    1    2    0    0 -0.52754571957E+02 -0.54146807434E+02  0.65140562851E+02  0.16001856451E+03  0.12509087273E+03 0.  0.
          5    1    3    3  502    0 -0.96054169091E+01  0.33485117274E+02  0.50004292442E+02  0.61085340103E+02  0.41800000000E+01 0. -1.
         -5    1    3    3    0  502 -0.43149155048E+02 -0.87631924708E+02  0.15136270408E+02  0.98933224405E+02  0.41800000000E+01 0. -1.
        -11    1    1    2    0    0  0.24038057528E+02  0.76181591264E+02 -0.58676543369E+01  0.80099266068E+02  0.00000000000E+00 0.  1.
         11    1    1    2    0    0  0.28716514429E+02 -0.22034783830E+02 -0.25944818070E+02  0.44534295595E+02  0.00000000000E+00 0. -1.
</event>
<event>
 7    1  0.2873461E-009  0.1104427E+03  0.7561462E-02  0.1259752E+00
          2   -1    0    0  501    0  0.00000000000E+00  0.00000000000E+00  0.29352026170E+03  0.29352026170E+03  0.00000000000E+00 0. -1.
         -2   -1    0    0    0  501 -0.00000000000E+00 -0.00000000000E+00 -0.69069989486E+02  0.69069989486E+02  0.00000000000E+00 0.  1.
         25    2    1    2    0    0 -0.61408934163E+02 -0.11214223266E+01  0.49269316779E+02  0.14781743688E+03  0.12510081649E+03 0.  0.
          5    1    3    3  502    0  0.52021975430E+01  0.46013540541E+02 -0.91325620184E+01  0.47383381701E+02  0.41800000000E+01 0. -1.
         -5    1    3    3    0  502 -0.66611131706E+02 -0.47134962868E+02  0.58401878798E+02  0.10043405517E+03  0.41800000000E+01 0. -1.
        -11    1    1    2    0    0  0.61912716634E+00  0.26716670838E+02 -0.90465167978E+00  0.26739151329E+02  0.00000000000E+00 0.  1.
         11    1    1    2    0    0  0.60789806997E+02 -0.25595248512E+02  0.17608560712E+03  0.18803366298E+03  0.00000000000E+00 0. -1.
</event>
<event>
 7    1  0.2873461E-009  0.6909599E+02  0.7561462E-02  0.1363194E+00
          1   -1    0    0  501    0  0.00000000000E+00  0.00000000000E+00  0.20579022468E+02  0.20579022468E+02  0.00000000000E+00 0. -1.
         -1   -1    0    0    0  501 -0.00000000000E+00 -0.00000000000E+00 -0.71928962311E+03  0.71928962311E+03  0.00000000000E+00 0.  1.
         25    2    1    2    0    0  0.42962017681E+02  0.56688816546E+01 -0.49258618610E+03  0.51006308831E+03  0.12508130210E+03 0.  0.
          5    1    3    3  502    0  0.28627503351E+02  0.40579230459E+01 -0.49410536057E+03  0.49496826205E+03  0.41800000000E+01 0. -1.
         -5    1    3    3    0  502  0.14334514331E+02  0.16109586086E+01  0.15191744732E+01  0.15094826260E+02  0.41800000000E+01 0. -1.
        -11    1    1    2    0    0  0.43059614591E+01  0.32759656704E+02 -0.34865659305E+02  0.48034889511E+02  0.00000000000E+00 0. -1.
         11    1    1    2    0    0 -0.47267979140E+02 -0.38428538359E+02 -0.17125875524E+03  0.18177066776E+03  0.00000000000E+00 0.  1.
</event>
<event>
 7    1  0.2873461E-009  0.1642759E+03  0.7561462E-02  0.1183952E+00
         -2   -1    0    0    0  501 -0.00000000000E+00  0.00000000000E+00  0.99165620845E+02  0.99165620845E+02  0.00000000000E+00 0.  1.
          2   -1    0    0  501    0  0.00000000000E+00 -0.00000000000E+00 -0.33441407335E+03  0.33441407335E+03  0.00000000000E+00 0. -1.
         25    2    1    2    0    0 -0.61647829583E+02 -0.13105478769E+03 -0.14130173793E+03  0.23788521719E+03  0.12508950055E+03 0.  0.
          5    1    3    3  502    0  0.11787550650E+02 -0.22818024787E+02  0.18062641486E+02  0.31675542978E+02  0.41800000000E+01 0. -1.
         -5    1    3    3    0  502 -0.73435380233E+02 -0.10823676290E+03 -0.15936437941E+03  0.20620967421E+03  0.41800000000E+01 0. -1.
        -11    1    1    2    0    0 -0.14469996273E+02  0.76901737732E+02 -0.43342027093E+02  0.89452721428E+02  0.00000000000E+00 0. -1.
         11    1    1    2    0    0  0.76117825856E+02  0.54153049957E+02 -0.50604687486E+02  0.10624175558E+03  0.00000000000E+00 0.  1.
</event>
<event>
 7    1  0.2873461E-009  0.1292784E+03  0.7561462E-02  0.1228530E+00
         -2   -1    0    0    0  501 -0.00000000000E+00  0.00000000000E+00  0.31380123233E+02  0.31380123233E+02  0.00000000000E+00 0.  1.
          2   -1    0    0  501    0  0.00000000000E+00 -0.00000000000E+00 -0.65271190150E+03  0.65271190150E+03  0.00000000000E+00 0. -1.
         25    2    1    2    0    0  0.69076059571E+02  0.59770292532E+02 -0.29451182613E+03  0.33276181274E+03  0.12509683614E+03 0.  0.
          5    1    3    3  502    0  0.91718391083E+02  0.53673158621E+02 -0.28950697287E+03  0.30842313622E+03  0.41800000000E+01 0. -1.
         -5    1    3    3    0  502 -0.22642331512E+02  0.60971339111E+01 -0.50048532591E+01  0.24338676513E+02  0.41800000000E+01 0. -1.
        -11    1    1    2    0    0 -0.85347269411E+02 -0.68937664790E+02 -0.26696584358E+03  0.28863007407E+03  0.00000000000E+00 0.  1.
         11    1    1    2    0    0  0.16271209840E+02  0.91673722580E+01 -0.59854108561E+02  0.62700137921E+02  0.00000000000E+00 0. -1.
</event>
<event>
 7    1  0.2873461E-009  0.4182667E+03  0.7561462E-02  0.1037632E+00
          2   -1    0    0  501    0  0.00000000000E+00  0.00000000000E+00  0.22117048920E+04  0.22117048920E+04  0.00000000000E+00 0.  1.
         -2   -1    0    0    0  501 -0.00000000000E+00 -0.00000000000E+00 -0.89998734470E+02  0.89998734470E+02  0.00000000000E+00 0. -1.
         25    2    1    2    0    0 -0.33441856855E+03 -0.23308609904E+03  0.69718417106E+03  0.81723866858E+03  0.12509342304E+03 0.  0.
          5    1    3    3  502    0 -0.22678604294E+02  0.92842190712E+01  0.86479324528E+02  0.89981452463E+02  0.41800000000E+01 0. -1.
         -5    1    3    3    0  502 -0.31173996425E+03 -0.24237031811E+03  0.61070484653E+03  0.72725721611E+03  0.41800000000E+01 0. -1.
        -11    1    1    2    0    0  0.14959287558E+03  0.52943297646E+02  0.49836841574E+03  0.52302208271E+03  0.00000000000E+00 0.  1.
         11    1    1    2    0    0  0.18482569296E+03  0.18014280140E+03  0.92615357075E+03  0.96144287521E+03  0.00000000000E+00 0. -1.
</event>
<event>
 7    1  0.2873461E-009  0.1349537E+03  0.7561462E-02  0.1220285E+00
         -2   -1    0    0    0  501 -0.00000000000E+00  0.00000000000E+00  0.70535492605E+02  0.70535492605E+02  0.00000000000E+00 0.  1.
          2   -1    0    0  501    0  0.00000000000E+00 -0.00000000000E+00 -0.26891069902E+03  0.26891069902E+03  0.00000000000E+00 0. -1.
         25    2    1    2    0    0 -0.51597211005E+02 -0.64551053890E+02 -0.81733424766E+02  0.17075333055E+03  0.12508891408E+03 0.  0.
          5    1    3    3  502    0 -0.15046713030E+01  0.36589494943E+02 -0.17202877905E+02  0.40675134716E+02  0.41800000000E+01 0.  1.
         -5    1    3    3    0  502 -0.50092539702E+02 -0.10114054883E+03 -0.64530546861E+02  0.13007819583E+03  0.41800000000E+01 0.  1.
        -11    1    1    2    0    0  0.10946892813E+02 -0.21950709810E+02 -0.36425043967E+02  0.43914142954E+02  0.00000000000E+00 0. -1.
         11    1    1    2    0    0  0.40650318192E+02  0.86501763700E+02 -0.80216737680E+02  0.12477871812E+03  0.00000000000E+00 0.  1.
</event>
<event>
 7    1  0.2873461E-009  0.8628290E+02  0.7561462E-02  0.1312111E+00
         -2   -1    0    0    0  501 -0.00000000000E+00  0.00000000000E+00  0.20573521269E+02  0.20573521269E+02  0.00000000000E+00 0.  1.
          2   -1    0    0  501    0  0.00000000000E+00 -0.00000000000E+00 -0.11383950927E+04  0.11383950927E+04  0.00000000000E+00 0. -1.
         25    2    1    2    0    0 -0.44671925983E+02 -0.19537617597E+02 -0.96208497086E+03  0.97140737931E+03  0.12508999137E+03 0.  0.
          5    1    3    3  502    0 -0.10149386240E+02 -0.47900228714E+02 -0.14519309065E+03  0.15328388018E+03  0.41800000000E+01 0. -1.
         -5    1    3    3    0  502 -0.34522539742E+02  0.28362611117E+02 -0.81689188022E+03  0.81812349913E+03  0.41800000000E+01 0. -1.
        -11    1    1    2    0    0  0.38248109876E+02  0.41044878592E+02 -0.38136057848E+02  0.67837739319E+02  0.00000000000E+00 0.  1.
         11    1    1    2    0    0  0.64238161060E+01 -0.21507260996E+02 -0.11760054274E+03  0.11972349536E+03  0.00000000000E+00 0. -1.
</event>
<event>
 7    1  0.2873461E-009  0.9176895E+02  0.7561462E-02  0.1298624E+00
         -2   -1    0    0    0  501 -0.00000000000E+00  0.00000000000E+00  0.13947635320E+03  0.13947635320E+03  0.00000000000E+00 0.  1.
          2   -1    0    0  501    0  0.00000000000E+00 -0.00000000000E+00 -0.11559149060E+03  0.11559149060E+03  0.00000000000E+00 0. -1.
         25    2    1    2    0    0 -0.40139197279E+02 -0.44684612504E+02 -0.92679510215E+01  0.13907328968E+03  0.12509042822E+03 0.  0.
          5    1    3    3  502    0 -0.38092721414E+02 -0.52197829862E+01 -0.61982230853E+02  0.73058681214E+02  0.41800000000E+01 0.  1.
         -5    1    3    3    0  502 -0.20464758642E+01 -0.39464829517E+02  0.52714279832E+02  0.66014608463E+02  0.41800000000E+01 0.  1.
        -11    1    1    2    0    0 -0.24142399981E+02  0.31189274540E+02  0.31187762015E+02  0.50282231679E+02  0.00000000000E+00 0. -1.
         11    1    1    2    0    0  0.64281597259E+02  0.13495337964E+02  0.19650516093E+01  0.65712322442E+02  0.00000000000E+00 0.  1.
</event>
<event>
 7    1  0.2873461E-009  0.1152260E+03  0.7561462E-02  0.1251187E+00
          2   -1    0    0  501    0  0.00000000000E+00  0.00000000000E+00  0.19776521273E+03  0.19776521273E+03  0.00000000000E+00 0. -1.
         -2   -1    0    0    0  501 -0.00000000000E+00 -0.00000000000E+00 -0.12014338654E+03  0.12014338654E+03  0.00000000000E+00 0.  1.
         25    2    1    2    0    0  0.42024459190E+02 -0.92712895729E+02 -0.76871825786E+01  0.16145701417E+03  0.12509012129E+03 0.  0.
          5    1    3    3  502    0  0.37687774048E+02 -0.68745056914E+02 -0.63138385713E+02  0.10074809831E+03  0.41800000000E+01 0. -1.
         -5    1    3    3    0  502  0.43366851422E+01 -0.23967838815E+02  0.55451203134E+02  0.60708915857E+02  0.41800000000E+01 0. -1.
        -11    1    1    2    0    0 -0.29590285514E+02  0.10539425505E+03  0.58026381859E+02  0.12389751808E+03  0.00000000000E+00 0. -1.
         11    1    1    2    0    0 -0.12434173676E+02 -0.12681359319E+02  0.27282626905E+02  0.32554067027E+02  0.00000000000E+00 0.  1.
</event>
<event>
 6    1  0.2873461E-009  0.1814589E+03  0.7561462E-02  0.1166399E+00
         -1   -1    0    0    0  501 -0.00000000000E+00  0.00000000000E+00  0.13834004878E+03  0.13834004878E+03  0.00000000000E+00 0.  1.
          1   -1    0    0  501    0  0.00000000000E+00 -0.00000000000E+00 -0.29140096376E+03  0.29140096376E+03  0.00000000000E+00 0. -1.
          5    1    1    2  502    0 -0.66132300470E+01 -0.22958691987E+02  0.16350522397E+02  0.29251467178E+02  0.41800000000E+01 0.  1.
         -5    1    1    2    0  502 -0.80988078506E+02  0.14375656903E+03 -0.12707580509E+02  0.16554146007E+03  0.41800000000E+01 0.  1.
        -11    1    1    2    0    0  0.78341831481E+02 -0.32480469169E+02 -0.61514892963E+02  0.10476881928E+03  0.00000000000E+00 0. -1.
         11    1    1    2    0    0  0.92594770722E+01 -0.88317407876E+02 -0.95188963908E+02  0.13017926601E+03  0.00000000000E+00 0.  1.
</event>
<event>
 6    1  0.2873461E-009  0.8335343E+02  0.7561462E-02  0.1319796E+00
         -2   -1    0    0    0  501 -0.00000000000E+00  0.00000000000E+00  0.80083080484E+03  0.80083080484E+03  0.00000000000E+00 0.  1.
          2   -1    0    0  501    0  0.00000000000E+00 -0.00000000000E+00 -0.15591046259E+02  0.15591046259E+02  0.00000000000E+00 0. -1.
          5    1    1    2  502    0  0.19532454155E+02 -0.14216699631E+02  0.43868353724E+03  0.43936812534E+03  0.41800000000E+01 0.  1.
         -5    1    1    2    0  502 -0.49377479320E+02  0.81908540136E+01  0.75257966426E+02  0.90479055389E+02  0.41800000000E+01 0.  1.
        -11    1    1    2    0    0 -0.84618431341E+00  0.43509311258E+02  0.14094218090E+03  0.14750754066E+03  0.00000000000E+00 0.  1.
         11    1    1    2    0    0  0.30691209478E+02 -0.37483465641E+02  0.13035607400E+03  0.13906712971E+03  0.00000000000E+00 0. -1.
</event>
<event>
 7    1  0.2873461E-009  0.1197106E+03  0.7561462E-02  0.1243575E+00
          1   -1    0    0  501    0  0.00000000000E+00  0.00000000000E+00  0.24692910450E+02  0.24692910450E+02  0.00000000000E+00 0. -1.
         -1   -1    0    0    0  501 -0.00000000000E+00 -0.00000000000E+00 -0.70377171416E+03  0.70377171416E+03  0.00000000000E+00 0.  1.
         25    2    1    2    0    0  0.63552579114E+02 -0.33853308210E+02 -0.40824989048E+03  0.43300968456E+03  0.12507772407E+03 0.  0.
          5    1    3    3  502    0 -0.27167084762E+02 -0.20568249120E+00 -0.21601118315E+03  0.21775306300E+03  0.41800000000E+01 0. -1.
         -5    1    3    3    0  502  0.90719663876E+02 -0.33647625718E+02 -0.19223870733E+03  0.21525662156E+03  0.41800000000E+01 0. -1.
        -11    1    1    2    0    0 -0.34738846893E+01  0.52162581397E+02 -0.15663339232E+03  0.16512729139E+03  0.00000000000E+00 0. -1.
         11    1    1    2    0    0 -0.60078694425E+02 -0.18309273187E+02 -0.11419552090E+03  0.13032764865E+03  0.00000000000E+00 0.  1.
</event>
<event>
 7    1  0.2873461E-009  0.1108264E+03  0.7561462E-02  0.1259047E+00
          1   -1    0    0  501    0  0.00000000000E+00  0.00000000000E+00  0.44135073914E+03  0.44135073914E+03  0.00000000000E+00 0. -1.
         -1   -1    0    0    0  501 -0.00000000000E+00 -0.00000000000E+00 -0.46047690792E+02  0.46047690792E+02  0.00000000000E+00 0.  1.
         25    2    1    2    0    0 -0.40528288752E+02  0.11988764597E+02  0.34570151664E+03  0.37005509742E+03  0.12507982993E+03 0.  0.
          5    1    3    3  502    0 -0.76697572454E+02  0.19678346116E+02  0.13895864514E+03  0.15998978838E+03  0.41800000000E+01 0. -1.
         -5    1    3    3    0  502  0.36169283701E+02 -0.76895815186E+01  0.20674287150E+03  0.21006530904E+03  0.41800000000E+01 0. -1.
        -11    1    1    2    0    0  0.58202727126E+02  0.25620624148E+02  0.38469210398E+02  0.74322634340E+02  0.00000000000E+00 0.  1.
         11    1    1    2    0    0 -0.17674438374E+02 -0.37609388745E+02  0.11132321314E+02  0.43020698175E+02  0.00000000000E+00 0. -1.
</event>
<event>
 7    1  0.2873461E-009  0.7882112E+02  0.7561462E-02  0.1332431E+00
          2   -1    0    0  501    0  0.00000000000E+00  0.00000000000E+00  0.38021982120E+03  0.38021982120E+03  0.00000000000E+00 0. -1.
         -2   -1    0    0    0  501 -0.00000000000E+00 -0.00000000000E+00 -0.36874400738E+02  0.36874400738E+02  0.00000000000E+00 0.  1.
         25    2    1    2    0    0  0.92117598124E+01 -0.28852621980E+02  0.26115879129E+03  0.29115533582E+03  0.12510069940E+03 0.  0.
          5    1    3    3  502    0  0.46876693957E+02 -0.52617060987E+02  0.90752420316E+02  0.11497588328E+03  0.41800000000E+01 0.  1.
         -5    1    3    3    0  502 -0.37664934144E+02  0.23764439008E+02  0.17040637098E+03  0.17617945254E+03  0.41800000000E+01 0.  1.
        -11    1    1    2    0    0  0.10767680311E+02  0.12508006447E+02 -0.16854252663E+02  0.23589383150E+02  0.00000000000E+00 0.  1.
         11    1    1    2    0    0 -0.19979440123E+02  0.16344615532E+02  0.99040881830E+02  0.10234950297E+03  0.00000000000E+00 0. -1.
</event>
<event>
 7    1  0.2873461E-009  0.1146815E+03  0.7561462E-02  0.1252138E+00
         -2   -1    0    0    0  501 -0.00000000000E+00  0.00000000000E+00  0.38795450865E+03  0.38795450865E+03  0.00000000000E+00 0. -1.
          2   -1    0    0  501    0  0.00000000000E+00 -0.00000000000E+00 -0.52464292133E+02  0.52464292133E+02  0.00000000000E+00 0.  1.
         25    2    1    2    0    0 -0.91063762428E+02  0.15043987823E+02  0.20807932214E+03  0.25973713165E+03  0.12508973922E+03 0.  0.
          5    1    3    3  502    0  0.10079680815E+02 -0.23884621094E+02  0.11137383354E+03  0.11442761156E+03  0.41800000000E+01 0.  1.
         -5    1    3    3    0  502 -0.10114344324E+03  0.38928608917E+02  0.96705488596E+02  0.14530952009E+03  0.41800000000E+01 0.  1.
        -11    1    1    2    0    0  0.43583391272E+02 -0.17819312073E+02  0.12441406399E+03  0.13302593430E+03  0.00000000000E+00 0. -1.
         11    1    1    2    0    0  0.47480371156E+02  0.27753242496E+01  0.29968303847E+01  0.47655734830E+02  0.00000000000E+00 0.  1.
</event>
<event>
 7    1  0.2873461E-009  0.1113265E+03  0.7561462E-02  0.1258133E+00
          2   -1    0    0  501    0  0.00000000000E+00  0.00000000000E+00  0.34687901158E+03  0.34687901158E+03  0.00000000000E+00 0. -1.
         -2   -1    0    0    0  501 -0.00000000000E+00 -0.00000000000E+00 -0.57363221221E+02  0.57363221221E+02  0.00000000000E+00 0.  1.
         25    2    1    2    0    0 -0.68511017578E+02 -0.45104807887E+02  0.10606766614E+03  0.18337258830E+03  0.12508778165E+03 0.  0.
          5    1    3    3  502    0 -0.16568284209E+02  0.18445123276E+02 -0.20515082999E+02  0.32451065387E+02  0.41800000000E+01 0. -1.
         -5    1    3    3    0  502 -0.51942733369E+02 -0.63549931163E+02  0.12658274913E+03  0.15092152292E+03  0.41800000000E+01 0. -1.
        -11    1    1    2    0    0  0.85561358170E+02  0.47886197415E+02  0.11923048604E+03  0.15436885280E+03  0.00000000000E+00 0.  1.
         11    1    1    2    0    0 -0.17050340593E+02 -0.27813895286E+01  0.64217638185E+02  0.66500791695E+02  0.00000000000E+00 0. -1.
</event>
<event>
 7    1  0.2873461E-009  0.1291123E+03  0.7561462E-02  0.1228779E+00
         -2   -1    0    0    0  501 -0.00000000000E+00  0.00000000000E+00  0.31821737151E+03  0.31821737151E+03  0.00000000000E+00 0. -1.
          2   -1    0    0  501    0  0.00000000000E+00 -0.00000000000E+00 -0.68739046480E+02  0.68739046480E+02  0.00000000000E+00 0.  1.
         25    2    1    2    0    0  0.24158817836E+02 -0.90344508764E+02  0.87635392088E+02  0.17909014307E+03  0.12509012213E+03 0.  0.
          5    1    3    3  502    0 -0.29866467310E+02 -0.57099546590E+02  0.95237170981E+02  0.11506500435E+03  0.41800000000E+01 0. -1.
         -5    1    3    3    0  502  0.54025285147E+02 -0.33244962174E+02 -0.76017788932E+01  0.64025138715E+02  0.41800000000E+01 0. -1.
        -11    1    1    2    0    0  0.33938860757E+02  0.45087467228E+02  0.77970153193E+02  0.96250042906E+02  0.00000000000E+00 0.  1.
         11    1    1    2    0    0 -0.58097678594E+02  0.45257041536E+02  0.83872779751E+02  0.11161623202E+03  0.00000000000E+00 0. -1.
</event>
<event>
 7    1  0.2873461E-009  0.7576273E+02  0.7561462E-02  0.1341525E+00
         -2   -1    0    0    0  501 -0.00000000000E+00  0.00000000000E+00  0.33111421629E+02  0.33111421629E+02  0.00000000000E+00 0.  1.
          2   -1    0    0  501    0  0.00000000000E+00 -0.00000000000E+00 -0.39440620652E+03  0.39440620652E+03  0.00000000000E+00 0. -1.
         25    2    1    2    0    0  0.22940937331E+02 -0.33753078924E+01 -0.15205259721E+03  0.19825807760E+03  0.12509433922E+03 0.  0.
          5    1    3    3  502    0 -0.68905551942E+01 -0.35947099484E+02  0.30207904246E+01  0.36963107107E+02  0.41800000000E+01 0. -1.
         -5    1    3    3    0  502  0.29831492526E+02  0.32571791592E+02 -0.15507338763E+03  0.16129497049E+03  0.41800000000E+01 0. -1.
        -11    1    1    2    0    0 -0.36637391388E+02 -0.21095930110E+02 -0.41683948009E+02  0.59370769209E+02  0.00000000000E+00 0.  1.
         11    1    1    2    0    0  0.13696454057E+02  0.24471238002E+02 -0.16755823968E+03  0.16988878135E+03  0.00000000000E+00 0. -1.
</event>
<event>
 7    1  0.2873461E-009  0.1375607E+03  0.7561462E-02  0.1216649E+00
         -1   -1    0    0    0  501 -0.00000000000E+00  0.00000000000E+00  0.11971810816E+04  0.11971810816E+04  0.00000000000E+00 0.  1.
          1   -1    0    0  501    0  0.00000000000E+00 -0.00000000000E+00 -0.29824966951E+02  0.29824966951E+02  0.00000000000E+00 0. -1.
         25    2    1    2    0    0  0.99767814793E+02 -0.28601460472E+02  0.98332024382E+03  0.99666258698E+03  0.12508377180E+03 0.  0.
          5    1    3    3  502    0  0.23577860349E+00  0.39950903864E+02  0.30692143269E+03  0.30953896129E+03  0.41800000000E+01 0. -1.
         -5    1    3    3    0  502  0.99532036189E+02 -0.68552364335E+02  0.67639881113E+03  0.68712362569E+03  0.41800000000E+01 0. -1.
        -11    1    1    2    0    0 -0.74304256173E+02  0.41892784700E+02  0.18264970237E+03  0.20158631320E+03  0.00000000000E+00 0.  1.
         11    1    1    2    0    0 -0.25463558620E+02 -0.13291324228E+02  0.13861684248E+01  0.28757148333E+02  0.00000000000E+00 0. -1.
</event>
<event>
 7    1  0.2873461E-009  0.1228347E+03  0.7561462E-02  0.1238493E+00
          1   -1    0    0  501    0  0.00000000000E+00  0.00000000000E+00  0.10543683072E+03  0.10543683072E+03  0.00000000000E+00 0. -1.
         -1   -1    0    0    0  501 -0.00000000000E+00 -0.00000000000E+00 -0.17321373807E+03  0.17321373807E+03  0.00000000000E+00 0.  1.
         25    2    1    2    0    0  0.40455539301E+02  0.67372175063E+02 -0.25871269144E+02  0.14997470291E+03  0.12508968108E+03 0.  0.
          5    1    3    3  502    0  0.72830200006E+02  0.57181443394E+01  0.57109328851E+01  0.73396337524E+02  0.41800000000E+01 0. -1.
         -5    1    3    3    0  502 -0.32374660705E+02  0.61654030723E+02 -0.31582202029E+02  0.76578365386E+02  0.41800000000E+01 0. -1.
        -11    1    1    2    0    0  0.17418842727E+02 -0.61166233801E+01 -0.40369227072E+02  0.44390355461E+02  0.00000000000E+00 0.  1.
         11    1    1    2    0    0 -0.57874382028E+02 -0.61255551682E+02 -0.15364111294E+01  0.84285510417E+02  0.00000000000E+00 0. -1.
</event>
<event>
 7    1  0.2873461E-009  0.1138146E+03  0.7561462E-02  0.1253665E+00
         -2   -1    0    0    0  501 -0.00000000000E+00  0.00000000000E+00  0.21589594236E+03  0.21589594236E+03  0.00000000000E+00 0. -1.
          2   -1    0    0  501    0  0.00000000000E+00 -0.00000000000E+00 -0.15016739084E+03  0.15016739084E+03  0.00000000000E+00 0.  1.
         25    2    1    2    0    0 -0.19759943631E+02 -0.77631617683E+02  0.14923915268E+03  0.21056331938E+03  0.12508982109E+03 0.  0.
          5    1    3    3  502    0 -0.49824396660E+02  0.87661230884E+01  0.26021700753E+02  0.57043112876E+02  0.41800000000E+01 0.  1.
         -5    1    3    3    0  502  0.30064453029E+02 -0.86397740771E+02  0.12321745193E+03  0.15352020651E+03  0.41800000000E+01 0.  1.
        -11    1    1    2    0    0  0.27492330528E+02  0.57749960429E+02 -0.10644195557E+03  0.12418041743E+03  0.00000000000E+00 0.  1.
         11    1    1    2    0    0 -0.77323868968E+01  0.19881657254E+02  0.22931354412E+02  0.31319596381E+02  0.00000000000E+00 0. -1.
</event>
<event>
 7    1  0.2873461E-009  0.5764612E+02  0.7561462E-02  0.1407984E+00
          1   -1    0    0  501    0  0.00000000000E+00  0.00000000000E+00  0.44040977344E+02  0.44040977344E+02  0.00000000000E+00 0. -1.
         -1   -1    0    0    0  501 -0.00000000000E+00 -0.00000000000E+00 -0.27369978575E+03  0.27369978575E+03  0.00000000000E+00 0.  1.
         25    2    1    2    0    0 -0.94157708862E+01  0.14011583120E+02 -0.13768373242E+03  0.18678680143E+03  0.12509003881E+03 0.  0.
          5    1    3    3  502    0 -0.13037980453E+02  0.72825611011E+01 -0.16107838340E+03  0.16182318323E+03  0.41800000000E+01 0.  1.
         -5    1    3    3    0  502  0.36222095668E+01  0.67290220189E+01  0.23394650976E+02  0.24963618202E+02  0.41800000000E+01 0.  1.
        -11    1    1    2    0    0  0.61582481023E+01  0.38233989044E+02 -0.25610827132E+02  0.46429262371E+02  0.00000000000E+00 0. -1.
         11    1    1    2    0    0  0.32575227839E+01 -0.52245572164E+02 -0.66364248846E+02  0.84524699292E+02  0.00000000000E+00 0.  1.
</event>
<event>
 7    1  0.2873461E-009  0.1000414E+03  0.7561462E-02  0.1280209E+00
         -3   -1    0    0    0  501 -0.00000000000E+00  0.00000000000E+00  0.41547900218E+02  0.41547900218E+02  0.00000000000E+00 0. -1.
          3   -1    0    0  501    0  0.00000000000E+00 -0.00000000000E+00 -0.45478159168E+03  0.45478159168E+03  0.00000000000E+00 0.  1.
         25    2    1    2    0    0  0.68917561703E+02  0.42315027630E+02 -0.28148456745E+03  0.31846625290E+03  0.12508797163E+03 0.  0.
          5    1    3    3  502    0 -0.19066178662E+02  0.18311972624E+02 -0.49066839018E+01  0.27210208692E+02  0.41800000000E+01 0.  1.
         -5    1    3    3    0  502  0.87983740365E+02  0.24003055006E+02 -0.27657788355E+03  0.29125604421E+03  0.41800000000E+01 0.  1.
        -11    1    1    2    0    0 -0.10828734647E+02 -0.13117750271E+02  0.11512600641E+02  0.20539640692E+02  0.00000000000E+00 0. -1.
         11    1    1    2    0    0 -0.58088827057E+02 -0.29197277360E+02 -0.14326172465E+03  0.15732359831E+03  0.00000000000E+00 0.  1.
</event>
<event>
 7    1  0.2873461E-009  0.1149693E+03  0.7561462E-02  0.1251635E+00
         -2   -1    0    0    0  501 -0.00000000000E+00  0.00000000000E+00  0.16418013326E+03  0.16418013326E+03  0.00000000000E+00 0.  1.
          2   -1    0    0  501    0  0.00000000000E+00 -0.00000000000E+00 -0.10697041939E+03  0.10697041939E+03  0.00000000000E+00 0. -1.
         25    2    1    2    0    0 -0.40681748171E+02  0.34822088579E+02  0.86867450667E+02  0.16142461489E+03  0.12507745528E+03 0.  0.
          5    1    3    3  502    0  0.32231795656E+02  0.48491915679E+02  0.20719275604E+02  0.61944453496E+02  0.41800000000E+01 0.  1.
         -5    1    3    3    0  502 -0.72913543827E+02 -0.13669827100E+02  0.66148175063E+02  0.99480161392E+02  0.41800000000E+01 0.  1.
        -11    1    1    2    0    0  0.26020534623E+02 -0.61522949839E+02  0.58449646955E+00  0.66801820447E+02  0.00000000000E+00 0.  1.
         11    1    1    2    0    0  0.14661213548E+02  0.26700861260E+02 -0.30242233259E+02  0.42924117315E+02  0.00000000000E+00 0. -1.
</event>
<event>
 7    1  0.2873461E-009  0.1130068E+03  0.7561462E-02  0.1255101E+00
          1   -1    0    0  501    0  0.00000000000E+00  0.00000000000E+00  0.12216930079E+03  0.12216930079E+03  0.00000000000E+00 0. -1.
         -1   -1    0    0    0  501 -0.00000000000E+00 -0.00000000000E+00 -0.19526419903E+03  0.19526419903E+03  0.00000000000E+00 0.  1.
         25    2    1    2    0    0 -0.84902290794E+02  0.59594668724E+02 -0.72200192809E+02  0.17782179452E+03  0.12509116372E+03 0.  0.
          5    1    3    3  502    0  0.72283472247E+01 -0.46543658289E+01  0.26541779787E+02  0.28210824148E+02  0.41800000000E+01 0. -1.
         -5    1    3    3    0  502 -0.92130638019E+02  0.64249034553E+02 -0.98741972596E+02  0.14961097037E+03  0.41800000000E+01 0. -1.
        -11    1    1    2    0    0  0.53265571656E+02 -0.42168261649E+02 -0.45837456835E+02  0.81953986257E+02  0.00000000000E+00 0.  1.
         11    1    1    2    0    0  0.31636719139E+02 -0.17426407075E+02  0.44942751404E+02  0.57657719042E+02  0.00000000000E+00 0. -1.
</event>
<event>
 7    1  0.2873461E-009  0.7765489E+02  0.7561462E-02  0.1335841E+00
          1   -1    0    0  501    0  0.00000000000E+00  0.00000000000E+00  0.23199361848E+03  0.23199361848E+03  0.00000000000E+00 0. -1.
         -1   -1    0    0    0  501 -0.00000000000E+00 -0.00000000000E+00 -0.68207751100E+02  0.68207751100E+02  0.00000000000E+00 0.  1.
         25    2    1    2    0    0 -0.60475179577E+02  0.10839856077E+02  0.72746065635E+02  0.15720575294E+03  0.12508760477E+03 0.  0.
          5    1    3    3  502    0 -0.20579711246E+02 -0.23261879111E+02 -0.28965829881E+02  0.42674714239E+02  0.41800000000E+01 0.  1.
         -5    1    3    3    0  502 -0.39895468331E+02  0.34101735188E+02  0.10171189552E+03  0.11453103870E+03  0.41800000000E+01 0.  1.
        -11    1    1    2    0    0  0.28713697862E+02  0.13087030690E+02  0.97706058137E+02  0.10267531648E+03  0.00000000000E+00 0. -1.
         11    1    1    2    0    0  0.31761481715E+02 -0.23926886767E+02 -0.66662563907E+01  0.40320300164E+02  0.00000000000E+00 0.  1.
</event>
<event>
 7    1  0.2873461E-009  0.9622506E+02  0.7561462E-02  0.1288441E+00
          2   -1    0    0  501    0  0.00000000000E+00  0.00000000000E+00  0.12939535585E+03  0.12939535585E+03  0.00000000000E+00 0. -1.
         -2   -1    0    0    0  501 -0.00000000000E+00 -0.00000000000E+00 -0.10069291231E+03  0.10069291231E+03  0.00000000000E+00 0.  1.
         25    2    1    2    0    0 -0.34376295586E+02 -0.24911643982E+02  0.97403401338E+01  0.13245562380E+03  0.12508916158E+03 0.  0.
          5    1    3    3  502    0 -0.69665337449E+02 -0.22603123665E+02  0.41891841643E+02  0.84478158346E+02  0.41800000000E+01 0.  1.
         -5    1    3    3    0  502  0.35289041864E+02 -0.23085203167E+01 -0.32151501509E+02  0.47977465450E+02  0.41800000000E+01 0.  1.
        -11    1    1    2    0    0 -0.12512592212E+02  0.33545101652E+02 -0.15286264159E+02  0.38929534811E+02  0.00000000000E+00 0.  1.
         11    1    1    2    0    0  0.46888887798E+02 -0.86334576699E+01  0.34248367566E+02  0.58703109552E+02  0.00000000000E+00 0. -1.
</event>
<event>
 7    1  0.2873461E-009  0.1047962E+03  0.7561462E-02  0.1270522E+00
         -1   -1    0    0    0  501 -0.00000000000E+00  0.00000000000E+00  0.26840420985E+02  0.26840420985E+02  0.00000000000E+00 0.  1.
          1   -1    0    0  501    0  0.00000000000E+00 -0.00000000000E+00 -0.62957846004E+03  0.62957846004E+03  0.00000000000E+00 0. -1.
         25    2    1    2    0    0  0.31956709503E+02  0.68306233043E+02 -0.34061413562E+03  0.37061129783E+03  0.12509105461E+03 0.  0.
          5    1    3    3  502    0  0.71394600577E+02  0.44181264223E+02 -0.28997969561E+03  0.30191864693E+03  0.41800000000E+01 0. -1.
         -5    1    3    3    0  502 -0.39437891074E+02  0.24124968819E+02 -0.50634440010E+02  0.68692650903E+02  0.41800000000E+01 0. -1.
        -11    1    1    2    0    0 -0.18244934983E+02 -0.13723174078E+02 -0.60440253183E+01  0.23616379938E+02  0.00000000000E+00 0.  1.
         11    1    1    2    0    0 -0.13711774520E+02 -0.54583058965E+02 -0.25607987812E+03  0.26219120325E+03  0.00000000000E+00 0. -1.
</event>
<event>
 7    1  0.2873461E-009  0.1134056E+03  0.7561462E-02  0.1254390E+00
         -2   -1    0    0    0  501 -0.00000000000E+00  0.00000000000E+00  0.11353606577E+03  0.11353606577E+03  0.00000000000E+00 0.  1.
          2   -1    0    0  501    0  0.00000000000E+00 -0.00000000000E+00 -0.12296956656E+03  0.12296956656E+03  0.00000000000E+00 0. -1.
         25    2    1    2    0    0  0.22261666993E+02 -0.28986424723E+02  0.20064208588E+02  0.13187448516E+03  0.12511000253E+03 0.  0.
          5    1    3    3  502    0  0.70391971332E+02 -0.33358061509E+02  0.27675863384E+02  0.82772070832E+02  0.41800000000E+01 0.  1.
         -5    1    3    3    0  502 -0.48130304340E+02  0.43716367862E+01 -0.76116547963E+01  0.49102414327E+02  0.41800000000E+01 0.  1.
        -11    1    1    2    0    0  0.26446279888E+02  0.42221393121E+02 -0.12403616761E+02  0.51341031015E+02  0.00000000000E+00 0.  1.
         11    1    1    2    0    0 -0.48707946881E+02 -0.13234968398E+02 -0.17094092610E+02  0.53290116156E+02  0.00000000000E+00 0. -1.
</event>
<event>
 7    1  0.2873461E-009  0.1358725E+03  0.7561462E-02  0.1218993E+00
         -2   -1    0    0    0  501 -0.00000000000E+00  0.00000000000E+00  0.22552120769E+03  0.22552120769E+03  0.00000000000E+00 0. -1.
          2   -1    0    0  501    0  0.00000000000E+00 -0.00000000000E+00 -0.16926984130E+03  0.16926984130E+03  0.00000000000E+00 0.  1.
         25    2    1    2    0    0 -0.28559825109E+02  0.80074200815E+02 -0.10973864190E+03  0.18684261225E+03  0.12506018943E+03 0.  0.
          5    1    3    3  502    0 -0.50612966901E+02 -0.11851654028E+02 -0.18333365999E+02  0.55278556698E+02  0.41800000000E+01 0.  1.
         -5    1    3    3    0  502  0.22053141791E+02  0.91925854843E+02 -0.91405275904E+02  0.13156405556E+03  0.41800000000E+01 0.  1.
        -11    1    1    2    0    0 -0.30782682059E+02 -0.49300196874E+02  0.70166087812E+02  0.91111814851E+02  0.00000000000E+00 0.  1.
         11    1    1    2    0    0  0.59342507169E+02 -0.30774003941E+02  0.95823920485E+02  0.11683662188E+03  0.00000000000E+00 0. -1.
</event>
<event>
 7    1  0.2873461E-009  0.1079033E+03  0.7561462E-02  0.1264503E+00
          2   -1    0    0  501    0  0.00000000000E+00  0.00000000000E+00  0.18390337632E+03  0.18390337632E+03  0.00000000000E+00 0. -1.
         -2   -1    0    0    0  501 -0.00000000000E+00 -0.00000000000E+00 -0.77057721882E+02  0.77057721882E+02  0.00000000000E+00 0.  1.
         25    2    1    2    0    0  0.30989954104E+02 -0.20392765020E+02  0.37253602042E+02  0.13569030477E+03  0.12509111008E+03 0.  0.
          5    1    3    3  502    0  0.79011803853E+02 -0.13911152756E+02  0.13139415388E+02  0.81403328899E+02  0.41800000000E+01 0. -1.
         -5    1    3    3    0  502 -0.48021849749E+02 -0.64816122637E+01  0.24114186653E+02  0.54286975867E+02  0.41800000000E+01 0. -1.
        -11    1    1    2    0    0 -0.56325983539E+02  0.24029975162E+02  0.12215810963E+02  0.62444232444E+02  0.00000000000E+00 0.  1.
         11    1    1    2    0    0  0.25336029436E+02 -0.36372101425E+01  0.57376241435E+02  0.62826560995E+02  0.00000000000E+00 0. -1.
</event>
<event>
 7    1  0.2873461E-009  0.1023086E+03  0.7561462E-02  0.1275515E+00
         -1   -1    0    0    0  501 -0.00000000000E+00  0.00000000000E+00  0.18237202753E+03  0.18237202753E+03  0.00000000000E+00 0.  1.
          1   -1    0    0  501    0  0.00000000000E+00 -0.00000000000E+00 -0.17413309249E+03  0.17413309249E+03  0.00000000000E+00 0. -1.
         25    2    1    2    0    0 -0.13983797733E+02  0.16841443129E+02  0.14487054239E+03  0.19265035157E+03  0.12508998003E+03 0.  0.
          5    1    3    3  502    0  0.27150905845E+02 -0.44532908322E+02  0.69830191329E+02  0.87258693738E+02  0.41800000000E+01 0.  1.
         -5    1    3    3    0  502 -0.41134703578E+02  0.61374351451E+02  0.75040351059E+02  0.10539165784E+03  0.41800000000E+01 0.  1.
        -11    1    1    2    0    0  0.38123014678E+02 -0.32011447279E+02 -0.42352718320E+02  0.65359389181E+02  0.00000000000E+00 0.  1.
         11    1    1    2    0    0 -0.24139216945E+02  0.15170004150E+02 -0.94278889022E+02  0.98495379262E+02  0.00000000000E+00 0. -1.
</event>
<event>
 7    1  0.2873461E-009  0.7566951E+02  0.7561462E-02  0.1341810E+00
         -4   -1    0    0    0  501 -0.00000000000E+00  0.00000000000E+00  0.17598729167E+03  0.17598729167E+03  0.00000000000E+00 0.  1.
          4   -1    0    0  501    0  0.00000000000E+00 -0.00000000000E+00 -0.75982297736E+02  0.75982297736E+02  0.00000000000E+00 0. -1.
         25    2    1    2    0    0  0.22227315797E+02  0.11318181555E+02  0.95968120202E+02  0.15962597544E+03  0.12509363349E+03 0.  0.
          5    1    3    3  502    0  0.56587311072E+02  0.53460782289E+01  0.10831521352E+03  0.12239428992E+03  0.41800000000E+01 0. -1.
         -5    1    3    3    0  502 -0.34359995275E+02  0.59721033261E+01 -0.12347093315E+02  0.37231685521E+02  0.41800000000E+01 0. -1.
        -11    1    1    2    0    0 -0.74326855095E+01 -0.32525299052E+02  0.37409317236E+02  0.50125810800E+02  0.00000000000E+00 0. -1.
         11    1    1    2    0    0 -0.14794630288E+02  0.21207117497E+02 -0.33372443507E+02  0.42217803158E+02  0.00000000000E+00 0.  1.
</event>
<event>
 7    1  0.2873461E-009  0.9193644E+02  0.7561462E-02  0.1298229E+00
         -1   -1    0    0    0  501 -0.00000000000E+00  0.00000000000E+00  0.61735616581E+02  0.61735616581E+02  0.00000000000E+00 0.  1.
          1   -1    0    0  501    0  0.00000000000E+00 -0.00000000000E+00 -0.41203981376E+03  0.41203981376E+03  0.00000000000E+00 0. -1.
         25    2    1    2    0    0  0.37170833337E+02  0.65422243347E+02 -0.55307709150E+02  0.15610364598E+03  0.12509062644E+03 0.  0.
          5    1    3    3  502    0 -0.19212203018E+02 -0.25592386937E+01  0.28206925873E+02  0.34478421001E+02  0.41800000000E+01 0.  1.
         -5    1    3    3    0  502  0.56383036355E+02  0.67981482041E+02 -0.83514635023E+02  0.12162522498E+03  0.41800000000E+01 0.  1.
        -11    1    1    2    0    0 -0.34528891586E+02 -0.55554478238E+02 -0.29946243733E+03  0.30652291232E+03  0.00000000000E+00 0. -1.
         11    1    1    2    0    0 -0.26419417515E+01 -0.98677651090E+01  0.44659493032E+01  0.11148872035E+02  0.00000000000E+00 0.  1.
</event>
<event>
 7    1  0.2873461E-009  0.1075340E+03  0.7561462E-02  0.1265206E+00
          2   -1    0    0  501    0  0.00000000000E+00  0.00000000000E+00  0.57752714998E+03  0.57752714998E+03  0.00000000000E+00 0. -1.
         -2   -1    0    0    0  501 -0.00000000000E+00 -0.00000000000E+00 -0.23093264963E+02  0.23093264963E+02  0.00000000000E+00 0.  1.
         25    2    1    2    0    0  0.36955480597E+02  0.16599507950E+02  0.29610315738E+03  0.32398458794E+03  0.12509069590E+03 0.  0.
          5    1    3    3  502    0 -0.39815801592E+02  0.18774136179E+02  0.53105888291E+02  0.69104804586E+02  0.41800000000E+01 0. -1.
         -5    1    3    3    0  502  0.76771282189E+02 -0.21746282286E+01  0.24299726909E+03  0.25487978336E+03  0.41800000000E+01 0. -1.
        -11    1    1    2    0    0  0.32915740616E+01  0.31242067357E+02  0.13193233314E+03  0.13562094883E+03  0.00000000000E+00 0. -1.
         11    1    1    2    0    0 -0.40247054658E+02 -0.47841575307E+02  0.12639839449E+03  0.14101487817E+03  0.00000000000E+00 0.  1.
</event>
<event>
 7    1  0.2873461E-009  0.2654915E+03  0.7561462E-02  0.1103888E+00
         -2   -1    0    0    0  501 -0.00000000000E+00  0.00000000000E+00  0.31599043709E+03  0.31599043709E+03  0.00000000000E+00 0.  1.
          2   -1    0    0  501    0  0.00000000000E+00 -0.00000000000E+00 -0.26888125368E+03  0.26888125368E+03  0.00000000000E+00 0. -1.
         25    2    1    2    0    0  0.58968021510E+02  0.25472695425E+03 -0.44797531112E+02  0.29328893639E+03  0.12509409510E+03 0.  0.
          5    1    3    3  502    0 -0.12084920149E+02  0.65990608695E+02 -0.61209228448E+02  0.90911208210E+02  0.41800000000E+01 0.  1.
         -5    1    3    3    0  502  0.71052941659E+02  0.18873634556E+03  0.16411697336E+02  0.20237772818E+03  0.41800000000E+01 0.  1.
        -11    1    1    2    0    0 -0.33451628299E+02 -0.10598229945E+03  0.86043404572E+02  0.14055150908E+03  0.00000000000E+00 0.  1.
         11    1    1    2    0    0 -0.25516393211E+02 -0.14874465480E+03  0.58633099532E+01  0.15103124530E+03  0.00000000000E+00 0. -1.
</event>
<event>
 7    1  0.2873461E-009  0.1253058E+03  0.7561462E-02  0.1234592E+00
          1   -1    0    0  501    0  0.00000000000E+00  0.00000000000E+00  0.31148511627E+03  0.31148511627E+03  0.00000000000E+00 0. -1.
         -1   -1    0    0    0  501 -0.00000000000E+00 -0.00000000000E+00 -0.16137227747E+03  0.16137227747E+03  0.00000000000E+00 0.  1.
         25    2    1    2    0    0  0.64377242475E+01  0.91973466451E+02  0.26003397668E+03  0.30293103954E+03  0.12509589468E+03 0.  0.
          5    1    3    3  502    0  0.18873104515E+02 -0.27489583547E+02  0.40252761856E+02  0.52436900315E+02  0.41800000000E+01 0. -1.
         -5    1    3    3    0  502 -0.12435380268E+02  0.11946305000E+03  0.21978121483E+03  0.25049413923E+03  0.41800000000E+01 0. -1.
        -11    1    1    2    0    0  0.11908098333E+02 -0.37423703068E+02  0.67350773239E+01  0.39845923553E+02  0.00000000000E+00 0. -1.
         11    1    1    2    0    0 -0.18345822580E+02 -0.54549763383E+02 -0.11665621520E+03  0.13008043064E+03  0.00000000000E+00 0.  1.
</event>
<event>
 7    1  0.2873461E-009  0.1022416E+03  0.7561462E-02  0.1275652E+00
         -2   -1    0    0    0  501 -0.00000000000E+00  0.00000000000E+00  0.48481691355E+02  0.48481691355E+02  0.00000000000E+00 0.  1.
          2   -1    0    0  501    0  0.00000000000E+00 -0.00000000000E+00 -0.63287935276E+03  0.63287935276E+03  0.00000000000E+00 0. -1.
         25    2    1    2    0    0  0.24016506621E+02 -0.21324662992E+01 -0.57075516061E+03  0.58480096418E+03  0.12509745937E+03 0.  0.
          5    1    3    3  502    0 -0.12203308106E+02 -0.56802334769E+02 -0.33647005827E+03  0.34147474061E+03  0.41800000000E+01 0. -1.
         -5    1    3    3    0  502  0.36219814727E+02  0.54669868470E+02 -0.23428510234E+03  0.24332622357E+03  0.41800000000E+01 0. -1.
        -11    1    1    2    0    0 -0.27934777765E+02 -0.34098312742E+02  0.18655609981E+02  0.47865212048E+02  0.00000000000E+00 0.  1.
         11    1    1    2    0    0  0.39182711436E+01  0.36230779041E+02 -0.32298110771E+02  0.48694867883E+02  0.00000000000E+00 0. -1.
</event>
<event>
 7    1  0.2873461E-009  0.5817546E+02  0.7561462E-02  0.1405652E+00
         -1   -1    0    0    0  501 -0.00000000000E+00  0.00000000000E+00  0.11617778694E+03  0.11617778694E+03  0.00000000000E+00 0. -1.
          1   -1    0    0  501    0  0.00000000000E+00 -0.00000000000E+00 -0.12928197556E+03  0.12928197556E+03  0.00000000000E+00 0.  1.
         25    2    1    2    0    0  0.41403437224E+02 -0.18581184907E+02  0.29771107104E+02  0.13635361439E+03  0.12508590765E+03 0.  0.
          5    1    3    3  502    0  0.42738892682E+02 -0.22539658806E+02 -0.42110548493E+02  0.64229431425E+02  0.41800000000E+01 0. -1.
         -5    1    3    3    0  502 -0.13354554574E+01  0.39584738991E+01  0.71881655596E+02  0.72124182964E+02  0.41800000000E+01 0. -1.
        -11    1    1    2    0    0 -0.43842505296E+02  0.65117938747E+00 -0.66311501681E+02  0.79497198444E+02  0.00000000000E+00 0.  1.
         11    1    1    2    0    0  0.24390680713E+01  0.17930005520E+02  0.23436205951E+02  0.29608949667E+02  0.00000000000E+00 0. -1.
</event>
<event>
 7    1  0.2873461E-009  0.5834544E+02  0.7561462E-02  0.1404909E+00
         -2   -1    0    0    0  501 -0.00000000000E+00  0.00000000000E+00  0.97596026443E+02  0.97596026443E+02  0.00000000000E+00 0.  1.
          2   -1    0    0  501    0  0.00000000000E+00 -0.00000000000E+00 -0.33404423981E+03  0.33404423981E+03  0.00000000000E+00 0. -1.
         25    2    1    2    0    0 -0.19906588687E+02  0.39808574489E+02 -0.28435137290E+03  0.31382126953E+03  0.12508833306E+03 0.  0.
          5    1    3    3  502    0 -0.36705975482E+02  0.13465922782E+02 -0.14153019042E+02  0.41790430250E+02  0.41800000000E+01 0. -1.
         -5    1    3    3    0  502  0.16799386795E+02  0.26342651707E+02 -0.27019835386E+03  0.27203083929E+03  0.41800000000E+01 0. -1.
        -11    1    1    2    0    0  0.14742905016E+02 -0.17183228188E+02  0.77195772414E+02  0.80447522385E+02  0.00000000000E+00 0.  1.
         11    1    1    2    0    0  0.51636836713E+01 -0.22625346301E+02 -0.29292612887E+02  0.37371474336E+02  0.00000000000E+00 0. -1.
</event>
<event>
 7    1  0.2873461E-009  0.1833925E+03  0.7561462E-02  0.1164560E+00
         -1   -1    0    0    0  501 -0.00000000000E+00  0.00000000000E+00  0.18113182758E+03  0.18113182758E+03  0.00000000000E+00 0.  1.
          1   -1    0    0  501    0  0.00000000000E+00 -0.00000000000E+00 -0.23484406658E+03  0.23484406658E+03  0.00000000000E+00 0. -1.
         25    2    1    2    0    0  0.79640041588E+02  0.14811561089E+03 -0.80436059809E+02  0.22449449408E+03  0.12508815988E+03 0.  0.
          5    1    3    3  502    0  0.46667450169E+02  0.19685760151E+02 -0.76415910732E+02  0.91772783933E+02  0.41800000000E+01 0. -1.
         -5    1    3    3    0  502  0.32972591419E+02  0.12842985074E+03 -0.40201490772E+01  0.13272171015E+03  0.41800000000E+01 0. -1.
        -11    1    1    2    0    0  0.16670612772E+01 -0.71708541055E+02 -0.13290010939E+02  0.72948737784E+02  0.00000000000E+00 0. -1.
         11    1    1    2    0    0 -0.81307102865E+02 -0.76407069838E+02  0.40013831749E+02  0.11853266229E+03  0.00000000000E+00 0.  1.
</event>
<event>
 7    1  0.2873461E-009  0.9214708E+02  0.7561462E-02  0.1297734E+00
         -4   -1    0    0    0  501 -0.00000000000E+00  0.00000000000E+00  0.29688629510E+03  0.29688629510E+03  0.00000000000E+00 0.  1.
          4   -1    0    0  501    0  0.00000000000E+00 -0.00000000000E+00 -0.54898455246E+02  0.54898455246E+02  0.00000000000E+00 0. -1.
         25    2    1    2    0    0 -0.19649859112E+02  0.58544434523E+02  0.19141762206E+03  0.23685127433E+03  0.12507698566E+03 0.  0.
          5    1    3    3  502    0  0.12323052136E+02  0.44373141583E+02  0.42929699649E+01  0.46440664283E+02  0.41800000000E+01 0. -1.
         -5    1    3    3    0  502 -0.31972911248E+02  0.14171292940E+02  0.18712465210E+03  0.19041061005E+03  0.41800000000E+01 0. -1.
        -11    1    1    2    0    0 -0.21532292584E+02  0.93085006884E+01  0.74984906048E+01  0.24627528710E+02  0.00000000000E+00 0. -1.
         11    1    1    2    0    0  0.41182151697E+02 -0.67852935212E+02  0.43071727186E+02  0.90305947301E+02  0.00000000000E+00 0.  1.
</event>
<event>
 7    1  0.2873461E-009  0.5397071E+03  0.7561462E-02  0.1003905E+00
         -1   -1    0    0    0  501 -0.00000000000E+00  0.00000000000E+00  0.10409184500E+04  0.10409184500E+04  0.00000000000E+00 0. -1.
          1   -1    0    0  501    0  0.00000000000E+00 -0.00000000000E+00 -0.33457443505E+03  0.33457443505E+03  0.00000000000E+00 0.  1.
         25    2    1    2    0    0 -0.52760841153E+03 -0.30045546396E+02  0.76997753575E+02  0.54850059279E+03  0.12510345905E+03 0.  0.
          5    1    3    3  502    0 -0.22534711344E+03  0.48794906838E+02  0.28681437895E+02  0.23238408239E+03  0.41800000000E+01 0. -1.
         -5    1    3    3    0  502 -0.30226129808E+03 -0.78840453234E+02  0.48316315680E+02  0.31611651040E+03  0.41800000000E+01 0. -1.
        -11    1    1    2    0    0  0.93840244651E+02 -0.29957328639E+02  0.12190035016E+03  0.15672628505E+03  0.00000000000E+00 0. -1.
         11    1    1    2    0    0  0.43376816687E+03  0.60002875035E+02  0.50744591118E+03  0.67026600718E+03  0.00000000000E+00 0.  1.
</event>
<event>
 7    1  0.2873461E-009  0.1070101E+03  0.7561462E-02  0.1266209E+00
          1   -1    0    0  501    0  0.00000000000E+00  0.00000000000E+00  0.10235274269E+03  0.10235274269E+03  0.00000000000E+00 0. -1.
         -1   -1    0    0    0  501 -0.00000000000E+00 -0.00000000000E+00 -0.20493740929E+03  0.20493740929E+03  0.00000000000E+00 0.  1.
         25    2    1    2    0    0  0.45894371401E+02 -0.56248731521E+02 -0.12135744094E+03  0.18880001660E+03  0.12509038601E+03 0.  0.
          5    1    3    3  502    0 -0.33422101399E+02  0.39800623499E+01 -0.29845424435E+01  0.34047872942E+02  0.41800000000E+01 0.  1.
         -5    1    3    3    0  502  0.79316472800E+02 -0.60228793871E+02 -0.11837289850E+03  0.15475214366E+03  0.41800000000E+01 0.  1.
        -11    1    1    2    0    0 -0.47720132948E+02  0.35205729660E+02 -0.29179823932E+02  0.66091728788E+02  0.00000000000E+00 0.  1.
         11    1    1    2    0    0  0.18257615471E+01  0.21043001861E+02  0.47952598275E+02  0.52398406597E+02  0.00000000000E+00 0. -1.
</event>
<event>
 7    1  0.2873461E-009  0.8563697E+02  0.7561462E-02  0.1313775E+00
          1   -1    0    0  501    0  0.00000000000E+00  0.00000000000E+00  0.11353625528E+03  0.11353625528E+03  0.00000000000E+00 0. -1.
         -1   -1    0    0    0  501 -0.00000000000E+00 -0.00000000000E+00 -0.16376920326E+03  0.16376920326E+03  0.00000000000E+00 0.  1.
         25    2    1    2    0    0 -0.20890872277E+02 -0.36061174004E+02 -0.10135289350E+03  0.16631020148E+03  0.12509930967E+03 0.  0.
          5    1    3    3  502    0 -0.41995970124E+02 -0.23116324782E+02  0.12503844860E+02  0.49717647917E+02  0.41800000000E+01 0. -1.
         -5    1    3    3    0  502  0.21105097847E+02 -0.12944849222E+02 -0.11385673836E+03  0.11659255356E+03  0.41800000000E+01 0. -1.
        -11    1    1    2    0    0  0.12060036258E+02 -0.29511483743E+02  0.21824213836E+02  0.38635067708E+02  0.00000000000E+00 0. -1.
         11    1    1    2    0    0  0.88308360198E+01  0.65572657747E+02  0.29295731679E+02  0.72360189355E+02  0.00000000000E+00 0.  1.
</event>
<event>
 7    1  0.3125652E-009  0.1841684E+03  0.7561462E-02  0.1163829E+00
         -1   -1    0    0    0  501 -0.00000000000E+00  0.00000000000E+00  0.11329650733E+03  0.11329650733E+03  0.00000000000E+00 0.  1.
          1   -1    0    0  501    0  0.00000000000E+00 -0.00000000000E+00 -0.39514737988E+03  0.39514737988E+03  0.00000000000E+00 0. -1.
         25    2    1    2    0    0  0.17585824895E+03 -0.31228811910E+02 -0.18326271873E+03  0.28484422659E+03  0.12509854887E+03 0.  0.
          5    1    3    3  502    0  0.14733812017E+03 -0.32070053787E+02 -0.20075871230E+03  0.25111460127E+03  0.41800000000E+01 0. -1.
         -5    1    3    3    0  502  0.28520128779E+02  0.84124187676E+00  0.17495993572E+02  0.33729625324E+02  0.41800000000E+01 0. -1.
        -11    1    1    2    0    0 -0.14890700547E+03  0.20339065048E+01 -0.10650356507E+03  0.18308588811E+03  0.00000000000E+00 0. -1.
         11    1    1    2    0    0 -0.26951243485E+02  0.29194905406E+02  0.79154112519E+01  0.40513772502E+02  0.00000000000E+00 0.  1.
</event>
<event>
 7    1  0.2873461E-009  0.9183941E+02  0.7561462E-02  0.1298457E+00
         -1   -1    0    0    0  501 -0.00000000000E+00  0.00000000000E+00  0.43815592098E+03  0.43815592098E+03  0.00000000000E+00 0.  1.
          1   -1    0    0  501    0  0.00000000000E+00 -0.00000000000E+00 -0.41653799909E+02  0.41653799909E+02  0.00000000000E+00 0. -1.
         25    2    1    2    0    0  0.22305619873E+01  0.12531024333E+02  0.35532874027E+03  0.37692018471E+03  0.12509320524E+03 0.  0.
          5    1    3    3  502    0 -0.44437673695E+02 -0.31523847270E+02  0.22561465520E+03  0.23213768507E+03  0.41800000000E+01 0.  1.
         -5    1    3    3    0  502  0.46668235682E+02  0.44054871603E+02  0.12971408507E+03  0.14478249963E+03  0.41800000000E+01 0.  1.
        -11    1    1    2    0    0 -0.61285027952E+01  0.25634840394E+02  0.55894869866E+02  0.61797573301E+02  0.00000000000E+00 0.  1.
         11    1    1    2    0    0  0.38979408079E+01 -0.38165864728E+02 -0.14721489069E+02  0.41091962881E+02  0.00000000000E+00 0. -1.
</event>
<event>
 7    1  0.2873461E-009  0.1176992E+03  0.7561462E-02  0.1246942E+00
         -1   -1    0    0    0  501 -0.00000000000E+00  0.00000000000E+00  0.78106970527E+02  0.78106970527E+02  0.00000000000E+00 0.  1.
          1   -1    0    0  501    0  0.00000000000E+00 -0.00000000000E+00 -0.33578866542E+03  0.33578866542E+03  0.00000000000E+00 0. -1.
         25    2    1    2    0    0  0.56868933752E+02  0.56347115642E+02 -0.23693122958E+02  0.15039230387E+03  0.12508959957E+03 0.  0.
          5    1    3    3  502    0  0.75922936915E+02  0.84866267425E+02 -0.17298408660E+02  0.11525312594E+03  0.41800000000E+01 0.  1.
         -5    1    3    3    0  502 -0.19054003163E+02 -0.28519151784E+02 -0.63947142986E+01  0.35139177935E+02  0.41800000000E+01 0.  1.
        -11    1    1    2    0    0 -0.38447221450E+02 -0.14348723541E+02 -0.20540444844E+03  0.20946374900E+03  0.00000000000E+00 0. -1.
         11    1    1    2    0    0 -0.18421712302E+02 -0.41998392101E+02 -0.28584123495E+02  0.54039583078E+02  0.00000000000E+00 0.  1.
</event>
<event>
 7    1  0.2873461E-009  0.9869943E+02  0.7561462E-02  0.1283055E+00
         -2   -1    0    0    0  501 -0.00000000000E+00  0.00000000000E+00  0.16222925305E+03  0.16222925305E+03  0.00000000000E+00 0. -1.
          2   -1    0    0  501    0  0.00000000000E+00 -0.00000000000E+00 -0.12923334509E+03  0.12923334509E+03  0.00000000000E+00 0.  1.
         25    2    1    2    0    0  0.88265765489E+02  0.35772736259E+02  0.19253885628E+02  0.15839427259E+03  0.12508996546E+03 0.  0.
          5    1    3    3  502    0  0.28464230430E+02 -0.51460009570E+01 -0.50102257260E+02  0.58003468193E+02  0.41800000000E+01 0. -1.
         -5    1    3    3    0  502  0.59801535059E+02  0.40918737216E+02  0.69356142888E+02  0.10039080440E+03  0.41800000000E+01 0. -1.
        -11    1    1    2    0    0 -0.49129462110E+02 -0.15502371612E+02 -0.38795975696E+02  0.64491513419E+02  0.00000000000E+00 0.  1.
         11    1    1    2    0    0 -0.39136303379E+02 -0.20270364647E+02  0.52537998034E+02  0.68576812135E+02  0.00000000000E+00 0. -1.
</event>
<event>
 7    1  0.2873461E-009  0.8148140E+02  0.7561462E-02  0.1324899E+00
         -1   -1    0    0    0  501 -0.00000000000E+00  0.00000000000E+00  0.59595740489E+02  0.59595740489E+02  0.00000000000E+00 0.  1.
          1   -1    0    0  501    0  0.00000000000E+00 -0.00000000000E+00 -0.21413416976E+03  0.21413416976E+03  0.00000000000E+00 0. -1.
         25    2    1    2    0    0  0.69459136850E+01 -0.21742079320E+02 -0.11208393753E+03  0.16951033760E+03  0.12509988718E+03 0.  0.
          5    1    3    3  502    0  0.31104803652E+02  0.24119104289E+02  0.64190726543E+01  0.40098839081E+02  0.41800000000E+01 0. -1.
         -5    1    3    3    0  502 -0.24158889967E+02 -0.45861183608E+02 -0.11850301019E+03  0.12941149852E+03  0.41800000000E+01 0. -1.
        -11    1    1    2    0    0  0.26799524314E+02 -0.62669393653E+01  0.15465296008E+02  0.31569992288E+02  0.00000000000E+00 0.  1.
         11    1    1    2    0    0 -0.33745437999E+02  0.28009018685E+02 -0.57919787740E+02  0.72649580351E+02  0.00000000000E+00 0. -1.
</event>
<event>
 7    1  0.2873461E-009  0.1442440E+03  0.7561462E-02  0.1207730E+00
          1   -1    0    0  501    0  0.00000000000E+00  0.00000000000E+00  0.13598608147E+03  0.13598608147E+03  0.00000000000E+00 0. -1.
         -1   -1    0    0    0  501 -0.00000000000E+00 -0.00000000000E+00 -0.19749325669E+03  0.19749325669E+03  0.00000000000E+00 0.  1.
         25    2    1    2    0    0  0.32238884164E+02 -0.10773674374E+03  0.17266475024E+02  0.16909440922E+03  0.12509291134E+03 0.  0.
          5    1    3    3  502    0 -0.15953352559E+02 -0.94431036668E+02 -0.29715868779E+02  0.10036052711E+03  0.41800000000E+01 0.  1.
         -5    1    3    3    0  502  0.48192236723E+02 -0.13305707069E+02  0.46982343803E+02  0.68733882112E+02  0.41800000000E+01 0.  1.
        -11    1    1    2    0    0  0.30203089063E+02  0.28036134300E+02 -0.35048830134E+02  0.54098723730E+02  0.00000000000E+00 0.  1.
         11    1    1    2    0    0 -0.62441973227E+02  0.79700609437E+02 -0.43724820106E+02  0.11028620520E+03  0.00000000000E+00 0. -1.
</event>
<event>
 7    1  0.2873461E-009  0.1326597E+03  0.7561462E-02  0.1223562E+00
         -1   -1    0    0    0  501 -0.00000000000E+00  0.00000000000E+00  0.34960914231E+02  0.34960914231E+02  0.00000000000E+00 0.  1.
          1   -1    0    0  501    0  0.00000000000E+00 -0.00000000000E+00 -0.59181067764E+03  0.59181067764E+03  0.00000000000E+00 0. -1.
         25    2    1    2    0    0 -0.83564633707E+02  0.90024112772E+01 -0.20641818469E+03  0.25557678720E+03  0.12508771231E+03 0.  0.
          5    1    3    3  502    0 -0.80983419561E+02  0.55793347220E+02 -0.10582819303E+03  0.14452781974E+03  0.41800000000E+01 0.  1.
         -5    1    3    3    0  502 -0.25812141465E+01 -0.46790935943E+02 -0.10058999166E+03  0.11104896746E+03  0.41800000000E+01 0.  1.
        -11    1    1    2    0    0  0.20444326725E+02 -0.43386649114E+02 -0.10462493251E+03  0.11509451907E+03  0.00000000000E+00 0.  1.
         11    1    1    2    0    0  0.63120306983E+02  0.34384237837E+02 -0.24580664621E+03  0.25610028560E+03  0.00000000000E+00 0. -1.
</event>
<event>
 7    1  0.2873461E-009  0.7229651E+02  0.7561462E-02  0.1352453E+00
         -1   -1    0    0    0  501 -0.00000000000E+00  0.00000000000E+00  0.12991142940E+03  0.12991142940E+03  0.00000000000E+00 0.  1.
          1   -1    0    0  501    0  0.00000000000E+00 -0.00000000000E+00 -0.10380223022E+03  0.10380223022E+03  0.00000000000E+00 0. -1.
         25    2    1    2    0    0  0.16913845913E+02 -0.38756086948E+02  0.14460831593E+02  0.13283440618E+03  0.12509097232E+03 0.  0.
          5    1    3    3  502    0  0.10566324456E+02 -0.72725703772E+00 -0.53439843638E+02  0.54639412546E+02  0.41800000000E+01 0. -1.
         -5    1    3    3    0  502  0.63475214571E+01 -0.38028829910E+02  0.67900675232E+02  0.78194993637E+02  0.41800000000E+01 0. -1.
        -11    1    1    2    0    0  0.20892684580E+02  0.50652195396E+02  0.23341334740E+02  0.59556419258E+02  0.00000000000E+00 0.  1.
         11    1    1    2    0    0 -0.37806530492E+02 -0.11896108448E+02 -0.11692967146E+02  0.41322834181E+02  0.00000000000E+00 0. -1.
</event>
<event>
 7    1  0.2971607E-009  0.3660024E+03  0.7561462E-02  0.1056232E+00
          1   -1    0    0  501    0  0.00000000000E+00  0.00000000000E+00  0.36436053246E+03  0.36436053246E+03  0.00000000000E+00 0. -1.
         -1   -1    0    0    0  501 -0.00000000000E+00 -0.00000000000E+00 -0.39693285026E+03  0.39693285026E+03  0.00000000000E+00 0.  1.
         25    2    1    2    0    0  0.36056320914E+03 -0.80040966767E+01 -0.68171506844E+02  0.38776872013E+03  0.12508929855E+03 0.  0.
          5    1    3    3  502    0  0.17903376983E+03  0.77909535028E+01  0.28422766660E+02  0.18149136553E+03  0.41800000000E+01 0. -1.
         -5    1    3    3    0  502  0.18152943931E+03 -0.15795050180E+02 -0.96594273503E+02  0.20627735460E+03  0.41800000000E+01 0. -1.
        -11    1    1    2    0    0 -0.15801358462E+03 -0.38573310189E+02 -0.49053919495E-01  0.16265360614E+03  0.00000000000E+00 0.  1.
         11    1    1    2    0    0 -0.20254962452E+03  0.46577406866E+02  0.35648242968E+02  0.21087105646E+03  0.00000000000E+00 0. -1.
</event>
<event>
 7    1  0.2873461E-009  0.1178737E+03  0.7561462E-02  0.1246647E+00
         -1   -1    0    0    0  501 -0.00000000000E+00  0.00000000000E+00  0.58521997270E+02  0.58521997270E+02  0.00000000000E+00 0.  1.
          1   -1    0    0  501    0  0.00000000000E+00 -0.00000000000E+00 -0.45408902539E+03  0.45408902539E+03  0.00000000000E+00 0. -1.
         25    2    1    2    0    0  0.84529302494E+02  0.67585271263E+02 -0.13761843517E+03  0.21519955870E+03  0.12513610387E+03 0.  0.
          5    1    3    3  502    0 -0.77764906218E+01 -0.28281028083E+00  0.19087882688E+02  0.21032675853E+02  0.41800000000E+01 0.  1.
         -5    1    3    3    0  502  0.92305793115E+02  0.67868081544E+02 -0.15670631786E+03  0.19416688284E+03  0.41800000000E+01 0.  1.
        -11    1    1    2    0    0 -0.44005567568E+02 -0.53706934533E+02 -0.24190305892E+03  0.25167044862E+03  0.00000000000E+00 0. -1.
         11    1    1    2    0    0 -0.40523734926E+02 -0.13878336730E+02 -0.16045534029E+02  0.45741015347E+02  0.00000000000E+00 0.  1.
</event>
<event>
 7    1  0.3387073E-009  0.1278086E+03  0.7561462E-02  0.1230744E+00
         -2   -1    0    0    0  501 -0.00000000000E+00  0.00000000000E+00  0.27061793965E+02  0.27061793965E+02  0.00000000000E+00 0.  1.
          2   -1    0    0  501    0  0.00000000000E+00 -0.00000000000E+00 -0.92774921257E+03  0.92774921257E+03  0.00000000000E+00 0. -1.
         25    2    1    2    0    0  0.61346401217E+01  0.11095897336E+03 -0.56763428163E+03  0.59178161937E+03  0.12508908728E+03 0.  0.
          5    1    3    3  502    0  0.16823434173E+02  0.35273123621E+02 -0.44820282862E+03  0.44992273689E+03  0.41800000000E+01 0. -1.
         -5    1    3    3    0  502 -0.10688794051E+02  0.75685849738E+02 -0.11943145301E+03  0.14185888248E+03  0.41800000000E+01 0. -1.
        -11    1    1    2    0    0  0.35201607044E+02 -0.82162246960E+02 -0.16587772882E+03  0.18842825925E+03  0.00000000000E+00 0.  1.
         11    1    1    2    0    0 -0.41336247165E+02 -0.28796726399E+02 -0.16717540815E+03  0.17460112792E+03  0.00000000000E+00 0. -1.
</event>
<event>
 7    1  0.2873461E-009  0.2508502E+03  0.7561462E-02  0.1112769E+00
          3   -1    0    0  501    0  0.00000000000E+00  0.00000000000E+00  0.34831248085E+02  0.34831248085E+02  0.00000000000E+00 0. -1.
         -3   -1    0    0    0  501 -0.00000000000E+00 -0.00000000000E+00 -0.21342663448E+04  0.21342663448E+04  0.00000000000E+00 0.  1.
         25    2    1    2    0    0 -0.93041953254E+02 -0.20885867782E+03 -0.14691547289E+04  0.14920931341E+04  0.12509017047E+03 0.  0.
          5    1    3    3  502    0 -0.98410796146E+02 -0.69668568768E+02 -0.63056369722E+03  0.64200190258E+03  0.41800000000E+01 0.  1.
         -5    1    3    3    0  502  0.53688428914E+01 -0.13919010906E+03 -0.83859103173E+03  0.85009123147E+03  0.41800000000E+01 0.  1.
        -11    1    1    2    0    0  0.30455549101E+02  0.82524234366E+01 -0.14131373277E+03  0.14479369473E+03  0.00000000000E+00 0.  1.
         11    1    1    2    0    0  0.62586404153E+02  0.20060625439E+03 -0.48896663503E+03  0.53221076413E+03  0.00000000000E+00 0. -1.
</event>
<event>
 7    1  0.2873461E-009  0.1165233E+03  0.7561462E-02  0.1248945E+00
          2   -1    0    0  501    0  0.00000000000E+00  0.00000000000E+00  0.10689332203E+03  0.10689332203E+03  0.00000000000E+00 0. -1.
         -2   -1    0    0    0  501 -0.00000000000E+00 -0.00000000000E+00 -0.17639935854E+03  0.17639935854E+03  0.00000000000E+00 0.  1.
         25    2    1    2    0    0 -0.81499265886E+02  0.16798829069E+02 -0.20065237494E+02  0.15157491671E+03  0.12509200863E+03 0.  0.
          5    1    3    3  502    0 -0.21633771626E+02  0.66879316905E+02 -0.20750411856E+02  0.73409230323E+02  0.41800000000E+01 0. -1.
         -5    1    3    3    0  502 -0.59865494260E+02 -0.50080487835E+02  0.68517436237E+00  0.78165686390E+02  0.41800000000E+01 0. -1.
        -11    1    1    2    0    0  0.66097357532E+02 -0.76103930935E+01  0.12092607576E+02  0.67624033551E+02  0.00000000000E+00 0. -1.
         11    1    1    2    0    0  0.15401908354E+02 -0.91884359759E+01 -0.61533406592E+02  0.64093730297E+02  0.00000000000E+00 0.  1.
</event>
<event>
 7    1  0.2873461E-009  0.7995940E+02  0.7561462E-02  0.1329167E+00
         -2   -1    0    0    0  501 -0.00000000000E+00  0.00000000000E+00  0.13481770158E+03  0.13481770158E+03  0.00000000000E+00 0.  1.
          2   -1    0    0  501    0  0.00000000000E+00 -0.00000000000E+00 -0.14113321469E+03  0.14113321469E+03  0.00000000000E+00 0. -1.
         25    2    1    2    0    0 -0.26214591961E+02  0.28628957986E+02  0.59050253185E+02  0.14366916165E+03  0.12508826300E+03 0.  0.
          5    1    3    3  502    0  0.35892810692E+00  0.51879232428E+02 -0.20963085321E+02  0.56111557926E+02  0.41800000000E+01 0.  1.
         -5    1    3    3    0  502 -0.26573520068E+02 -0.23250274442E+02  0.80013338506E+02  0.87557603720E+02  0.41800000000E+01 0.  1.
        -11    1    1    2    0    0 -0.18415234613E+02  0.14854746345E+01  0.22573540539E+02  0.29170057134E+02  0.00000000000E+00 0.  1.
         11    1    1    2    0    0  0.44629826575E+02 -0.30114432621E+02 -0.87939306834E+02  0.10311169749E+03  0.00000000000E+00 0. -1.
</event>
<event>
 7    1  0.2873461E-009  0.9220942E+02  0.7561462E-02  0.1297588E+00
          1   -1    0    0  501    0  0.00000000000E+00  0.00000000000E+00  0.18963163447E+03  0.18963163447E+03  0.00000000000E+00 0. -1.
         -1   -1    0    0    0  501 -0.00000000000E+00 -0.00000000000E+00 -0.83881215010E+02  0.83881215010E+02  0.00000000000E+00 0.  1.
         25    2    1    2    0    0  0.35603620193E+02 -0.22461056097E+02  0.11901856802E+03  0.17772354467E+03  0.12509245375E+03 0.  0.
          5    1    3    3  502    0 -0.20714967003E+02 -0.46987484162E+02  0.99443599318E+01  0.52471861223E+02  0.41800000000E+01 0.  1.
         -5    1    3    3    0  502  0.56318587196E+02  0.24526428064E+02  0.10907420809E+03  0.12525168345E+03  0.41800000000E+01 0.  1.
        -11    1    1    2    0    0  0.12847314901E+02 -0.69929421021E+01  0.23879302242E+02  0.28003139378E+02  0.00000000000E+00 0. -1.
         11    1    1    2    0    0 -0.48450935094E+02  0.29453998199E+02 -0.37147450806E+02  0.67786165424E+02  0.00000000000E+00 0.  1.
</event>
<event>
 7    1  0.2873461E-009  0.1100277E+03  0.7561462E-02  0.1260519E+00
          3   -1    0    0  501    0  0.00000000000E+00  0.00000000000E+00  0.30645219756E+03  0.30645219756E+03  0.00000000000E+00 0. -1.
         -3   -1    0    0    0  501 -0.00000000000E+00 -0.00000000000E+00 -0.44258686325E+02  0.44258686325E+02  0.00000000000E+00 0.  1.
         25    2    1    2    0    0 -0.36807183664E+02  0.13619237229E+02  0.12073581338E+03  0.17823602195E+03  0.12510271978E+03 0.  0.
          5    1    3    3  502    0  0.25831141057E+02  0.44362259763E+02  0.19203706892E+02  0.54968288112E+02  0.41800000000E+01 0. -1.
         -5    1    3    3    0  502 -0.62638324721E+02 -0.30743022534E+02  0.10153210648E+03  0.12326773384E+03  0.41800000000E+01 0. -1.
        -11    1    1    2    0    0  0.63413799207E+02 -0.26934836799E+02  0.96887268178E+02  0.11888624016E+03  0.00000000000E+00 0.  1.
         11    1    1    2    0    0 -0.26606615542E+02  0.13315599570E+02  0.44570429682E+02  0.53588621782E+02  0.00000000000E+00 0. -1.
</event>
<event>
 7    1  0.2873461E-009  0.1024028E+03  0.7561462E-02  0.1275323E+00
          1   -1    0    0  501    0  0.00000000000E+00  0.00000000000E+00  0.18844728151E+03  0.18844728151E+03  0.00000000000E+00 0. -1.
         -1   -1    0    0    0  501 -0.00000000000E+00 -0.00000000000E+00 -0.86962944308E+02  0.86962944308E+02  0.00000000000E+00 0.  1.
         25    2    1    2    0    0  0.35459969327E+02 -0.16728938769E+02 -0.30371403591E+01  0.13112963063E+03  0.12509392067E+03 0.  0.
          5    1    3    3  502    0  0.40001306745E+01  0.45798482673E+02  0.28491549809E+02  0.54247054031E+02  0.41800000000E+01 0. -1.
         -5    1    3    3    0  502  0.31459838653E+02 -0.62527421442E+02 -0.31528690168E+02  0.76882576595E+02  0.41800000000E+01 0. -1.
        -11    1    1    2    0    0  0.22319603634E+02  0.20920425244E+02  0.71095185068E+02  0.77397378758E+02  0.00000000000E+00 0. -1.
         11    1    1    2    0    0 -0.57779572961E+02 -0.41914864746E+01  0.33426292489E+02  0.66883216430E+02  0.00000000000E+00 0.  1.
</event>
<event>
 6    1  0.2873461E-009  0.9511016E+02  0.7561462E-02  0.1290928E+00
          1   -1    0    0  501    0  0.00000000000E+00  0.00000000000E+00  0.95911127972E+03  0.95911127972E+03  0.00000000000E+00 0. -1.
         -1   -1    0    0    0  501 -0.00000000000E+00 -0.00000000000E+00 -0.14550904100E+02  0.14550904100E+02  0.00000000000E+00 0.  1.
          5    1    1    2  502    0  0.51969021257E+02 -0.42636830680E+02  0.41471585783E+03  0.42014925162E+03  0.41800000000E+01 0. -1.
         -5    1    1    2    0  502 -0.47779033364E+02  0.31207690301E+02  0.33407504680E+03  0.33894006145E+03  0.41800000000E+01 0. -1.
        -11    1    1    2    0    0  0.71872587321E+01 -0.25767345676E+02  0.15836626452E+03  0.16060973361E+03  0.00000000000E+00 0. -1.
         11    1    1    2    0    0 -0.11377246626E+02  0.37196486055E+02  0.37403206464E+02  0.53963137135E+02  0.00000000000E+00 0.  1.
</event>
<event>
 7    1  0.2873461E-009  0.1742257E+03  0.7561462E-02  0.1173511E+00
          1   -1    0    0  501    0  0.00000000000E+00  0.00000000000E+00  0.71584071256E+03  0.71584071256E+03  0.00000000000E+00 0. -1.
         -1   -1    0    0    0  501 -0.00000000000E+00 -0.00000000000E+00 -0.51261887173E+02  0.51261887173E+02  0.00000000000E+00 0.  1.
         25    2    1    2    0    0  0.75599394363E+02  0.12153851739E+03  0.24209474499E+03  0.30780544752E+03  0.12508976110E+03 0.  0.
          5    1    3    3  502    0  0.37305053750E+02  0.12438306367E+03  0.23501199947E+03  0.26853477588E+03  0.41800000000E+01 0.  1.
         -5    1    3    3    0  502  0.38294340613E+02 -0.28445462849E+01  0.70827455230E+01  0.39270671635E+02  0.41800000000E+01 0.  1.
        -11    1    1    2    0    0 -0.10352938172E+03 -0.10492577550E+03  0.35542655137E+03  0.38478017706E+03  0.00000000000E+00 0. -1.
         11    1    1    2    0    0  0.27929987356E+02 -0.16612741888E+02  0.67057529028E+02  0.74516975154E+02  0.00000000000E+00 0.  1.
</event>
<event>
 7    1  0.2873461E-009  0.6520309E+02  0.7561462E-02  0.1377209E+00
          1   -1    0    0  501    0  0.00000000000E+00  0.00000000000E+00  0.78187716706E+02  0.78187716706E+02  0.00000000000E+00 0. -1.
         -1   -1    0    0    0  501 -0.00000000000E+00 -0.00000000000E+00 -0.16317633601E+03  0.16317633601E+03  0.00000000000E+00 0.  1.
         25    2    1    2    0    0 -0.37956204983E+00 -0.22916326241E+02 -0.25229398732E+02  0.12966391205E+03  0.12510357889E+03 0.  0.
          5    1    3    3  502    0  0.11774429470E+02 -0.26633678446E+02  0.47413715273E+02  0.55798949926E+02  0.41800000000E+01 0.  1.
         -5    1    3    3    0  502 -0.12153991520E+02  0.37173522044E+01 -0.72643114005E+02  0.73864962125E+02  0.41800000000E+01 0.  1.
        -11    1    1    2    0    0 -0.34192652476E+01 -0.32189873891E+02 -0.30162329810E+01  0.32511182959E+02  0.00000000000E+00 0. -1.
         11    1    1    2    0    0  0.37988272974E+01  0.55106200133E+02 -0.56742987591E+02  0.79188957706E+02  0.00000000000E+00 0.  1.
</event>
<event>
 7    1  0.2873461E-009  0.1252260E+03  0.7561462E-02  0.1234716E+00
          2   -1    0    0  501    0  0.00000000000E+00  0.00000000000E+00  0.52702443462E+03  0.52702443462E+03  0.00000000000E+00 0. -1.
         -2   -1    0    0    0  501 -0.00000000000E+00 -0.00000000000E+00 -0.41873122540E+02  0.41873122540E+02  0.00000000000E+00 0.  1.
         25    2    1    2    0    0  0.94337822780E+02 -0.32437966697E+02  0.28438030432E+03  0.32629753898E+03  0.12508429147E+03 0.  0.
          5    1    3    3  502    0  0.74077017820E+02 -0.50640428766E+02  0.80679786239E+02  0.12074169910E+03  0.41800000000E+01 0.  1.
         -5    1    3    3    0  502  0.20260804960E+02  0.18202462069E+02  0.20370051808E+03  0.20555583988E+03  0.41800000000E+01 0.  1.
        -11    1    1    2    0    0 -0.85087273217E+02 -0.13548804559E+02  0.15336069427E+03  0.17590598829E+03  0.00000000000E+00 0.  1.
         11    1    1    2    0    0 -0.92505495624E+01  0.45986771256E+02  0.47410313497E+02  0.66694029895E+02  0.00000000000E+00 0. -1.
</event>
<event>
 7    1  0.2873461E-009  0.1458493E+03  0.7561462E-02  0.1205668E+00
          1   -1    0    0  501    0  0.00000000000E+00  0.00000000000E+00  0.64215037755E+03  0.64215037755E+03  0.00000000000E+00 0.  1.
         -1   -1    0    0    0  501 -0.00000000000E+00 -0.00000000000E+00 -0.37949652167E+02  0.37949652167E+02  0.00000000000E+00 0. -1.
         25    2    1    2    0    0 -0.10062954783E+03 -0.48643447234E+01  0.43663555939E+03  0.46524101119E+03  0.12509444042E+03 0.  0.
          5    1    3    3  502    0 -0.92025151269E+02  0.48190325389E+02  0.24449306015E+03  0.26567887531E+03  0.41800000000E+01 0. -1.
         -5    1    3    3    0  502 -0.86043965636E+01 -0.53054670113E+02  0.19214249924E+03  0.19956213588E+03  0.41800000000E+01 0. -1.
        -11    1    1    2    0    0  0.31593019426E+02 -0.40389687588E+02  0.74740799035E+02  0.90640127870E+02  0.00000000000E+00 0.  1.
         11    1    1    2    0    0  0.69036528407E+02  0.45254032311E+02  0.92824366959E+02  0.12421889066E+03  0.00000000000E+00 0. -1.
</event>
<event>
 7    1  0.2875800E-009  0.8064592E+02  0.7561462E-02  0.1327228E+00
         -1   -1    0    0    0  501 -0.00000000000E+00  0.00000000000E+00  0.14674924735E+03  0.14674924735E+03  0.00000000000E+00 0.  1.
          1   -1    0    0  501    0  0.00000000000E+00 -0.00000000000E+00 -0.96647377431E+02  0.96647377431E+02  0.00000000000E+00 0. -1.
         25    2    1    2    0    0  0.42559057276E+02  0.23779899689E+02  0.15777810770E+02  0.13514667385E+03  0.12505569622E+03 0.  0.
          5    1    3    3  502    0 -0.23372524054E+02 -0.16122336704E+02  0.44368775586E+02  0.52841889335E+02  0.41800000000E+01 0. -1.
         -5    1    3    3    0  502  0.65931581330E+02  0.39902236393E+02 -0.28590964816E+02  0.82304784520E+02  0.41800000000E+01 0. -1.
        -11    1    1    2    0    0 -0.41196972557E+02 -0.11108414108E+02 -0.23723377913E+02  0.48819935185E+02  0.00000000000E+00 0. -1.
         11    1    1    2    0    0 -0.13620847182E+01 -0.12671485581E+02  0.58047437059E+02  0.59430015739E+02  0.00000000000E+00 0.  1.
</event>
<event>
 7    1  0.2873461E-009  0.9511667E+02  0.7561462E-02  0.1290914E+00
         -1   -1    0    0    0  501 -0.00000000000E+00  0.00000000000E+00  0.42994383732E+02  0.42994383732E+02  0.00000000000E+00 0.  1.
          1   -1    0    0  501    0  0.00000000000E+00 -0.00000000000E+00 -0.31269934926E+03  0.31269934926E+03  0.00000000000E+00 0. -1.
         25    2    1    2    0    0  0.19307211973E+02  0.24544814606E+02 -0.18387826789E+03  0.22457559966E+03  0.12509103166E+03 0.  0.
          5    1    3    3  502    0  0.55018126165E+02 -0.22461064305E+02 -0.48472305961E+02  0.76801891003E+02  0.41800000000E+01 0.  1.
         -5    1    3    3    0  502 -0.35710914193E+02  0.47005878912E+02 -0.13540596193E+03  0.14777370866E+03  0.41800000000E+01 0.  1.
        -11    1    1    2    0    0 -0.16877499720E+02  0.20395998413E+02 -0.81747391904E+02  0.85927194945E+02  0.00000000000E+00 0. -1.
         11    1    1    2    0    0 -0.24297122525E+01 -0.44940813019E+02 -0.40793057292E+01  0.45190938380E+02  0.00000000000E+00 0.  1.
</event>
<event>
 6    1  0.2873461E-009  0.1963798E+03  0.7561462E-02  0.1152830E+00
          3   -1    0    0  501    0  0.00000000000E+00  0.00000000000E+00  0.26274781445E+03  0.26274781445E+03  0.00000000000E+00 0. -1.
         -3   -1    0    0    0  501 -0.00000000000E+00 -0.00000000000E+00 -0.14738817509E+03  0.14738817509E+03  0.00000000000E+00 0.  1.
          5    1    1    2  502    0 -0.14793106146E+03 -0.23913739010E+02  0.32613503470E+02  0.15341635788E+03  0.41800000000E+01 0. -1.
         -5    1    1    2    0  502 -0.12837837153E+02  0.53517384640E+02  0.22585849522E+02  0.59636511636E+02  0.41800000000E+01 0. -1.
        -11    1    1    2    0    0  0.16523435025E+03 -0.78202625334E+01  0.53977144559E+02  0.17400310096E+03  0.00000000000E+00 0. -1.
         11    1    1    2    0    0 -0.44654516390E+01 -0.21783383097E+02  0.61831418020E+01  0.23080019064E+02  0.00000000000E+00 0.  1.
</event>
<event>
 7    1  0.2873461E-009  0.1408687E+03  0.7561462E-02  0.1212165E+00
          2   -1    0    0  501    0  0.00000000000E+00  0.00000000000E+00  0.17870658807E+04  0.17870658807E+04  0.00000000000E+00 0.  1.
         -2   -1    0    0    0  501 -0.00000000000E+00 -0.00000000000E+00 -0.15978851372E+02  0.15978851372E+02  0.00000000000E+00 0. -1.
         25    2    1    2    0    0  0.67590917331E+02  0.70642888478E+02  0.13854002074E+04  0.13944677724E+04  0.12509070194E+03 0.  0.
          5    1    3    3  502    0  0.27963727239E+02 -0.33757106661E+02  0.52456525480E+03  0.52641019294E+03  0.41800000000E+01 0.  1.
         -5    1    3    3    0  502  0.39627190091E+02  0.10439999514E+03  0.86083495260E+03  0.86805757943E+03  0.41800000000E+01 0.  1.
        -11    1    1    2    0    0  0.10336822685E+02 -0.41485168040E+02  0.20834778908E+03  0.21268914003E+03  0.00000000000E+00 0.  1.
         11    1    1    2    0    0 -0.77927740015E+02 -0.29157720438E+02  0.17733903280E+03  0.19588781963E+03  0.00000000000E+00 0. -1.
</event>
<event>
 7    1  0.2873461E-009  0.2858917E+03  0.7561462E-02  0.1092514E+00
          1   -1    0    0  501    0  0.00000000000E+00  0.00000000000E+00  0.71009573367E+02  0.71009573367E+02  0.00000000000E+00 0. -1.
         -1   -1    0    0    0  501 -0.00000000000E+00 -0.00000000000E+00 -0.12637910951E+04  0.12637910951E+04  0.00000000000E+00 0.  1.
         25    2    1    2    0    0 -0.10045082911E+03 -0.25684197979E+03 -0.70509878749E+03  0.76737718950E+03  0.12508109045E+03 0.  0.
          5    1    3    3  502    0  0.13910282382E+02 -0.26132944689E+02 -0.18066977298E+03  0.18312691234E+03  0.41800000000E+01 0.  1.
         -5    1    3    3    0  502 -0.11436111149E+03 -0.23070903510E+03 -0.52442901451E+03  0.58425027716E+03  0.41800000000E+01 0.  1.
        -11    1    1    2    0    0  0.26408646577E+02  0.16146220662E+03 -0.22377798088E+03  0.27720758559E+03  0.00000000000E+00 0. -1.
         11    1    1    2    0    0  0.74042182536E+02  0.95379773168E+02 -0.26390475334E+03  0.29021589336E+03  0.00000000000E+00 0.  1.
</event>
<event>
 7    1  0.2873461E-009  0.2580644E+03  0.7561462E-02  0.1108312E+00
         -1   -1    0    0    0  501 -0.00000000000E+00  0.00000000000E+00  0.10311711749E+04  0.10311711749E+04  0.00000000000E+00 0.  1.
          1   -1    0    0  501    0  0.00000000000E+00 -0.00000000000E+00 -0.11258466737E+03  0.11258466737E+03  0.00000000000E+00 0. -1.
         25    2    1    2    0    0  0.22978694451E+03 -0.52478290949E+02  0.96673743846E+02  0.28381183051E+03  0.12508929412E+03 0.  0.
          5    1    3    3  502    0  0.32006760743E+02 -0.60710073131E+02  0.21775852025E+02  0.72123545699E+02  0.41800000000E+01 0. -1.
         -5    1    3    3    0  502  0.19778018376E+03  0.82317821816E+01  0.74897891821E+02  0.21168828481E+03  0.41800000000E+01 0. -1.
        -11    1    1    2    0    0 -0.71433256307E+02  0.56335937537E+02  0.37195831811E+03  0.38292223542E+03  0.00000000000E+00 0.  1.
         11    1    1    2    0    0 -0.15835368820E+03 -0.38576465878E+01  0.44995444556E+03  0.47702177632E+03  0.00000000000E+00 0. -1.
</event>
<event>
 7    1  0.2873461E-009  0.5359041E+02  0.7561462E-02  0.1426885E+00
          2   -1    0    0  501    0  0.00000000000E+00  0.00000000000E+00  0.47074986932E+03  0.47074986932E+03  0.00000000000E+00 0. -1.
         -2   -1    0    0    0  501 -0.00000000000E+00 -0.00000000000E+00 -0.17615464617E+02  0.17615464617E+02  0.00000000000E+00 0.  1.
         25    2    1    2    0    0 -0.32736826751E+02  0.27447576035E+02  0.30644631087E+03  0.33374156867E+03  0.12509605893E+03 0.  0.
          5    1    3    3  502    0 -0.35880066395E+02  0.35955168606E+02  0.34349336530E+02  0.61461391410E+02  0.41800000000E+01 0. -1.
         -5    1    3    3    0  502  0.31432396435E+01 -0.85075925710E+01  0.27209697434E+03  0.27228017727E+03  0.41800000000E+01 0. -1.
        -11    1    1    2    0    0  0.15603021078E+01 -0.10746636596E+02  0.16781147553E+02  0.19988287920E+02  0.00000000000E+00 0.  1.
         11    1    1    2    0    0  0.31176524644E+02 -0.16700939439E+02  0.12990694628E+03  0.13463547734E+03  0.00000000000E+00 0. -1.
</event>
<event>
 7    1  0.2873461E-009  0.2438563E+03  0.7561462E-02  0.1117250E+00
         -1   -1    0    0    0  501 -0.00000000000E+00  0.00000000000E+00  0.43317527927E+03  0.43317527927E+03  0.00000000000E+00 0.  1.
          1   -1    0    0  501    0  0.00000000000E+00 -0.00000000000E+00 -0.17773544013E+03  0.17773544013E+03  0.00000000000E+00 0. -1.
         25    2    1    2    0    0  0.14848461166E+03  0.17602594130E+03  0.24974541418E+03  0.36201264393E+03  0.12509024963E+03 0.  0.
          5    1    3    3  502    0  0.16378490337E+03  0.13263751954E+03  0.22936909086E+03  0.31152184258E+03  0.41800000000E+01 0.  1.
         -5    1    3    3    0  502 -0.15300291714E+02  0.43388421757E+02  0.20376323320E+02  0.50490801351E+02  0.41800000000E+01 0.  1.
        -11    1    1    2    0    0 -0.23553550255E+02 -0.20472912635E+02  0.35395770597E+02  0.47188668741E+02  0.00000000000E+00 0.  1.
         11    1    1    2    0    0 -0.12493106140E+03 -0.15555302866E+03 -0.29701345638E+02  0.20170940673E+03  0.00000000000E+00 0. -1.
</event>
<event>
 7    1  0.3024515E-009  0.2067169E+03  0.7561462E-02  0.1144193E+00
          3   -1    0    0  501    0  0.00000000000E+00  0.00000000000E+00  0.96304422458E+03  0.96304422458E+03  0.00000000000E+00 0. -1.
         -3   -1    0    0    0  501 -0.00000000000E+00 -0.00000000000E+00 -0.50304963499E+02  0.50304963499E+02  0.00000000000E+00 0.  1.
         25    2    1    2    0    0  0.17605132180E+03  0.63273106676E+02  0.56349543264E+03  0.60677073636E+03  0.12508425141E+03 0.  0.
          5    1    3    3  502    0  0.19355184579E+03  0.67786157742E+02  0.53259940313E+03  0.57073363034E+03  0.41800000000E+01 0. -1.
         -5    1    3    3    0  502 -0.17500523993E+02 -0.45130510658E+01  0.30896029515E+02  0.36037106012E+02  0.41800000000E+01 0. -1.
        -11    1    1    2    0    0 -0.73082404611E+02 -0.43071473243E+02  0.24244028059E+03  0.25685303059E+03  0.00000000000E+00 0. -1.
         11    1    1    2    0    0 -0.10296891719E+03 -0.20201633433E+02  0.10680354785E+03  0.14972542113E+03  0.00000000000E+00 0.  1.
</event>
<event>
 7    1  0.2873461E-009  0.1020741E+03  0.7561462E-02  0.1275994E+00
          2   -1    0    0  501    0  0.00000000000E+00  0.00000000000E+00  0.21683448336E+02  0.21683448336E+02  0.00000000000E+00 0. -1.
         -2   -1    0    0    0  501 -0.00000000000E+00 -0.00000000000E+00 -0.57683097401E+03  0.57683097401E+03  0.00000000000E+00 0.  1.
         25    2    1    2    0    0 -0.18911367630E+02  0.14767047453E+02 -0.35684439385E+03  0.37889258031E+03  0.12508381380E+03 0.  0.
          5    1    3    3  502    0 -0.30659887824E+01 -0.52896958165E+02 -0.10618455332E+03  0.11874392714E+03  0.41800000000E+01 0. -1.
         -5    1    3    3    0  502 -0.15845378848E+02  0.67664005618E+02 -0.25065984054E+03  0.26014865317E+03  0.41800000000E+01 0. -1.
        -11    1    1    2    0    0 -0.34649646014E+01  0.30598329143E+02 -0.26827333000E+02  0.40840782582E+02  0.00000000000E+00 0. -1.
         11    1    1    2    0    0  0.22376332232E+02 -0.45365376596E+02 -0.17147579882E+03  0.17878105945E+03  0.00000000000E+00 0.  1.
</event>
<event>
 7    1  0.2873461E-009  0.1513539E+03  0.7561462E-02  0.1198819E+00
          2   -1    0    0  501    0  0.00000000000E+00  0.00000000000E+00  0.48151380177E+03  0.48151380177E+03  0.00000000000E+00 0. -1.
         -2   -1    0    0    0  501 -0.00000000000E+00 -0.00000000000E+00 -0.62946048491E+02  0.62946048491E+02  0.00000000000E+00 0.  1.
         25    2    1    2    0    0  0.11313712146E+03 -0.30631186467E+02  0.11554803367E+03  0.20672914976E+03  0.12508922991E+03 0.  0.
          5    1    3    3  502    0  0.57749677540E+02  0.39602922953E+02  0.14347985152E+02  0.71601353621E+02  0.41800000000E+01 0.  1.
         -5    1    3    3    0  502  0.55387443915E+02 -0.70234109419E+02  0.10120004852E+03  0.13512779614E+03  0.41800000000E+01 0.  1.
        -11    1    1    2    0    0 -0.45271125718E+02 -0.28084393409E+02  0.16240642076E+03  0.17092119085E+03  0.00000000000E+00 0. -1.
         11    1    1    2    0    0 -0.67865995737E+02  0.58715579876E+02  0.14061329885E+03  0.16680950965E+03  0.00000000000E+00 0.  1.
</event>
<event>
 7    1  0.2873461E-009  0.7116841E+02  0.7561462E-02  0.1356164E+00
         -2   -1    0    0    0  501 -0.00000000000E+00  0.00000000000E+00  0.21341138711E+03  0.21341138711E+03  0.00000000000E+00 0. -1.
          2   -1    0    0  501    0  0.00000000000E+00 -0.00000000000E+00 -0.60039297827E+02  0.60039297827E+02  0.00000000000E+00 0.  1.
         25    2    1    2    0    0  0.23447326337E+02 -0.26424146090E+02  0.83927194222E+02  0.15472231623E+03  0.12508880286E+03 0.  0.
          5    1    3    3  502    0  0.44046203466E+02 -0.38970412362E+01  0.10724811863E+03  0.11608137800E+03  0.41800000000E+01 0. -1.
         -5    1    3    3    0  502 -0.20598877129E+02 -0.22527104854E+02 -0.23320924404E+02  0.38640938228E+02  0.41800000000E+01 0. -1.
        -11    1    1    2    0    0 -0.14986995099E+02  0.44606626339E+02  0.64097241224E+00  0.47061363995E+02  0.00000000000E+00 0.  1.
         11    1    1    2    0    0 -0.84603312382E+01 -0.18182480249E+02  0.68803922649E+02  0.71667004714E+02  0.00000000000E+00 0. -1.
</event>
<event>
 7    1  0.2873461E-009  0.1691602E+03  0.7561462E-02  0.1178726E+00
         -1   -1    0    0    0  501 -0.00000000000E+00  0.00000000000E+00  0.36255458629E+03  0.36255458629E+03  0.00000000000E+00 0.  1.
          1   -1    0    0  501    0  0.00000000000E+00 -0.00000000000E+00 -0.12931611552E+03  0.12931611552E+03  0.00000000000E+00 0. -1.
         25    2    1    2    0    0 -0.66942859021E+02  0.12358253621E+03  0.12910550434E+03  0.22819765229E+03  0.12510774408E+03 0.  0.
          5    1    3    3  502    0 -0.94250431330E+02  0.68039476142E+02  0.47386641424E+02  0.12560047892E+03  0.41800000000E+01 0. -1.
         -5    1    3    3    0  502  0.27307572309E+02  0.55543060064E+02  0.81718862918E+02  0.10259717337E+03  0.41800000000E+01 0. -1.
        -11    1    1    2    0    0  0.65466130823E+02 -0.40729715060E+02 -0.47724723016E+02  0.90677302346E+02  0.00000000000E+00 0. -1.
         11    1    1    2    0    0  0.14767281974E+01 -0.82852821146E+02  0.15185768944E+03  0.17299574718E+03  0.00000000000E+00 0.  1.
</event>
<event>
 7    1  0.2873461E-009  0.1219025E+03  0.7561462E-02  0.1239991E+00
         -1   -1    0    0    0  501 -0.00000000000E+00  0.00000000000E+00  0.76085397611E+02  0.76085397611E+02  0.00000000000E+00 0.  1.
          1   -1    0    0  501    0  0.00000000000E+00 -0.00000000000E+00 -0.24809213014E+03  0.24809213014E+03  0.00000000000E+00 0. -1.
         25    2    1    2    0    0 -0.64361067241E+02  0.88415177760E+01 -0.16261465232E+03  0.21520059919E+03  0.12508898165E+03 0.  0.
          5    1    3    3  502    0 -0.98399032913E+02  0.25671632048E+02 -0.12899605413E+03  0.16431328842E+03  0.41800000000E+01 0.  1.
         -5    1    3    3    0  502  0.34037965672E+02 -0.16830114272E+02 -0.33618598185E+02  0.50887310770E+02  0.41800000000E+01 0.  1.
        -11    1    1    2    0    0 -0.81045186054E+01 -0.27770170561E+02  0.11640524266E+02  0.31182806160E+02  0.00000000000E+00 0.  1.
         11    1    1    2    0    0  0.72465585847E+02  0.18928652785E+02 -0.21032604475E+02  0.77794122396E+02  0.00000000000E+00 0. -1.
</event>
<event>
 7    1  0.3200208E-009  0.1144386E+03  0.7561462E-02  0.1252564E+00
          1   -1    0    0  501    0  0.00000000000E+00  0.00000000000E+00  0.34203930849E+03  0.34203930849E+03  0.00000000000E+00 0. -1.
         -1   -1    0    0    0  501 -0.00000000000E+00 -0.00000000000E+00 -0.49858626357E+02  0.49858626357E+02  0.00000000000E+00 0.  1.
         25    2    1    2    0    0 -0.71430792258E+02  0.11225174794E+00  0.18275244081E+03  0.23269767854E+03  0.12508950514E+03 0.  0.
          5    1    3    3  502    0 -0.92108371673E+02  0.29504091708E+02  0.16744014969E+03  0.19341178787E+03  0.41800000000E+01 0. -1.
         -5    1    3    3    0  502  0.20677579415E+02 -0.29391839960E+02  0.15312291119E+02  0.39285890673E+02  0.41800000000E+01 0. -1.
        -11    1    1    2    0    0  0.70992723203E+02  0.21574406501E+02  0.11495024523E+03  0.13681732581E+03  0.00000000000E+00 0. -1.
         11    1    1    2    0    0  0.43806905467E+00 -0.21686658249E+02 -0.55220039005E+01  0.22382930496E+02  0.00000000000E+00 0.  1.
</event>
<event>
 7    1  0.2873461E-009  0.1012566E+03  0.7561462E-02  0.1277676E+00
          2   -1    0    0  501    0  0.00000000000E+00  0.00000000000E+00  0.26962719381E+03  0.26962719381E+03  0.00000000000E+00 0. -1.
         -2   -1    0    0    0  501 -0.00000000000E+00 -0.00000000000E+00 -0.66725966864E+02  0.66725966864E+02  0.00000000000E+00 0.  1.
         25    2    1    2    0    0 -0.54093078218E+02  0.53516064491E+01  0.39636639143E+02  0.14203163816E+03  0.12508885750E+03 0.  0.
          5    1    3    3  502    0  0.85720029079E+01 -0.44903626628E+02  0.41051016740E+02  0.61583060118E+02  0.41800000000E+01 0. -1.
         -5    1    3    3    0  502 -0.62665081126E+02  0.50255233077E+02 -0.14143775963E+01  0.80448578037E+02  0.41800000000E+01 0. -1.
        -11    1    1    2    0    0  0.54437518094E+02  0.14485427085E+02  0.16505290264E+03  0.17440106549E+03  0.00000000000E+00 0. -1.
         11    1    1    2    0    0 -0.34443987600E+00 -0.19837033534E+02 -0.17883148384E+01  0.19920457029E+02  0.00000000000E+00 0.  1.
</event>
<event>
 7    1  0.2873461E-009  0.1497654E+03  0.7561462E-02  0.1200762E+00
         -1   -1    0    0    0  501 -0.00000000000E+00  0.00000000000E+00  0.19571569295E+03  0.19571569295E+03  0.00000000000E+00 0.  1.
          1   -1    0    0  501    0  0.00000000000E+00 -0.00000000000E+00 -0.15080969770E+03  0.15080969770E+03  0.00000000000E+00 0. -1.
         25    2    1    2    0    0  0.33253671572E+02  0.12747305455E+03  0.82983216407E+01  0.18185426728E+03  0.12508767356E+03 0.  0.
          5    1    3    3  502    0  0.61652574951E+02  0.96156624735E+02  0.47755118896E+02  0.12387558379E+03  0.41800000000E+01 0.  1.
         -5    1    3    3    0  502 -0.28398903379E+02  0.31316429817E+02 -0.39456797255E+02  0.57978683490E+02  0.41800000000E+01 0.  1.
        -11    1    1    2    0    0 -0.30328125156E+02 -0.22569772910E+02 -0.22731465323E+02  0.44112462416E+02  0.00000000000E+00 0. -1.
         11    1    1    2    0    0 -0.29255464158E+01 -0.10490328164E+03  0.59339138928E+02  0.12055866095E+03  0.00000000000E+00 0.  1.
</event>
<event>
 7    1  0.2873461E-009  0.1295239E+03  0.7561462E-02  0.1228164E+00
          2   -1    0    0  501    0  0.00000000000E+00  0.00000000000E+00  0.67425142086E+03  0.67425142086E+03  0.00000000000E+00 0. -1.
         -2   -1    0    0    0  501 -0.00000000000E+00 -0.00000000000E+00 -0.28341944866E+02  0.28341944866E+02  0.00000000000E+00 0.  1.
         25    2    1    2    0    0  0.82866495530E+02  0.33914884299E+01  0.31177227268E+03  0.34601682136E+03  0.12508929759E+03 0.  0.
          5    1    3    3  502    0 -0.22800843859E+02  0.32898528935E+02  0.79677965746E+02  0.89265011691E+02  0.41800000000E+01 0.  1.
         -5    1    3    3    0  502  0.10566733939E+03 -0.29507040505E+02  0.23209430694E+03  0.25675180966E+03  0.41800000000E+01 0.  1.
        -11    1    1    2    0    0 -0.44637745347E+02 -0.37102383375E+02  0.89414239424E+02  0.10660216402E+03  0.00000000000E+00 0.  1.
         11    1    1    2    0    0 -0.38228750183E+02  0.33710894946E+02  0.24472296388E+03  0.24997438035E+03  0.00000000000E+00 0. -1.
</event>
<event>
 7    1  0.2873461E-009  0.1074778E+03  0.7561462E-02  0.1265313E+00
          2   -1    0    0  501    0  0.00000000000E+00  0.00000000000E+00  0.66296483113E+03  0.66296483113E+03  0.00000000000E+00 0. -1.
         -2   -1    0    0    0  501 -0.00000000000E+00 -0.00000000000E+00 -0.30076075484E+02  0.30076075484E+02  0.00000000000E+00 0.  1.
         25    2    1    2    0    0  0.22276359331E+02  0.36177527610E+01  0.56184083384E+03  0.57603972810E+03  0.12508925398E+03 0.  0.
          5    1    3    3  502    0 -0.31396946897E+02 -0.43286343365E+02  0.29354822987E+03  0.29840829656E+03  0.41800000000E+01 0.  1.
         -5    1    3    3    0  502  0.53673306228E+02  0.46904096126E+02  0.26829260397E+03  0.27763143154E+03  0.41800000000E+01 0.  1.
        -11    1    1    2    0    0 -0.23117253341E+02 -0.43905478078E+02  0.24198276137E+02  0.55205570148E+02  0.00000000000E+00 0. -1.
         11    1    1    2    0    0  0.84089400968E+00  0.40287725317E+02  0.46849645675E+02  0.61795608370E+02  0.00000000000E+00 0.  1.
</event>
<event>
 7    1  0.2873461E-009  0.8503347E+02  0.7561462E-02  0.1315345E+00
          2   -1    0    0  501    0  0.00000000000E+00  0.00000000000E+00  0.24498694519E+03  0.24498694519E+03  0.00000000000E+00 0. -1.
         -2   -1    0    0    0  501 -0.00000000000E+00 -0.00000000000E+00 -0.53465384883E+02  0.53465384883E+02  0.00000000000E+00 0.  1.
         25    2    1    2    0    0 -0.10082629410E+00 -0.32296874890E+02  0.12122004366E+03  0.17717019961E+03  0.12510748319E+03 0.  0.
          5    1    3    3  502    0  0.59124081223E+01 -0.57720669969E+02  0.54640679498E+01  0.58429108756E+02  0.41800000000E+01 0. -1.
         -5    1    3    3    0  502 -0.60132344164E+01  0.25423795078E+02  0.11575597571E+03  0.11874109085E+03  0.41800000000E+01 0. -1.
        -11    1    1    2    0    0 -0.28812205954E+02  0.45337848981E+02  0.71631560441E+02  0.89536273171E+02  0.00000000000E+00 0. -1.
         11    1    1    2    0    0  0.28913032248E+02 -0.13040974091E+02 -0.13300437915E+01  0.31745857296E+02  0.00000000000E+00 0.  1.
</event>
<event>
 7    1  0.2873461E-009  0.3131103E+03  0.7561462E-02  0.1078865E+00
         -2   -1    0    0    0  501 -0.00000000000E+00  0.00000000000E+00  0.73861670681E+02  0.73861670681E+02  0.00000000000E+00 0. -1.
          2   -1    0    0  501    0  0.00000000000E+00 -0.00000000000E+00 -0.14271321166E+04  0.14271321166E+04  0.00000000000E+00 0.  1.
         25    2    1    2    0    0 -0.24797838372E+03  0.17218170421E+03 -0.80347713340E+03  0.86738797759E+03  0.12508629704E+03 0.  0.
          5    1    3    3  502    0 -0.25740577383E+03  0.15815646470E+03 -0.78856295534E+03  0.84446444961E+03  0.41800000000E+01 0.  1.
         -5    1    3    3    0  502  0.94273901069E+01  0.14025239512E+02 -0.14914178064E+02  0.22923527977E+02  0.41800000000E+01 0.  1.
        -11    1    1    2    0    0  0.59538984927E+02 -0.71427447060E+02 -0.23889522258E+03  0.25635463384E+03  0.00000000000E+00 0.  1.
         11    1    1    2    0    0  0.18843939879E+03 -0.10075425715E+03 -0.31089808990E+03  0.37725117582E+03  0.00000000000E+00 0. -1.
</event>
<event>
 7    1  0.2873461E-009  0.9295153E+02  0.7561462E-02  0.1295858E+00
          2   -1    0    0  501    0  0.00000000000E+00  0.00000000000E+00  0.33940651835E+02  0.33940651835E+02  0.00000000000E+00 0. -1.
         -2   -1    0    0    0  501 -0.00000000000E+00 -0.00000000000E+00 -0.43687688276E+03  0.43687688276E+03  0.00000000000E+00 0.  1.
         25    2    1    2    0    0  0.45839066122E+02 -0.15663926232E+02 -0.25020633959E+03  0.28389694645E+03  0.12509070816E+03 0.  0.
          5    1    3    3  502    0  0.60860710585E+02 -0.55281777441E+01 -0.40645857387E+02  0.73512889787E+02  0.41800000000E+01 0.  1.
         -5    1    3    3    0  502 -0.15021644463E+02 -0.10135748488E+02 -0.20956048220E+03  0.21038405667E+03  0.41800000000E+01 0.  1.
        -11    1    1    2    0    0 -0.68763315536E+02  0.33987563415E+02 -0.12429275578E+03  0.14605559616E+03  0.00000000000E+00 0.  1.
         11    1    1    2    0    0  0.22924249414E+02 -0.18323637184E+02 -0.28437135556E+02  0.40864991979E+02  0.00000000000E+00 0. -1.
</event>
<event>
 7    1  0.2873461E-009  0.8469581E+02  0.7561462E-02  0.1316230E+00
         -2   -1    0    0    0  501 -0.00000000000E+00  0.00000000000E+00  0.41594943661E+02  0.41594943661E+02  0.00000000000E+00 0.  1.
          2   -1    0    0  501    0  0.00000000000E+00 -0.00000000000E+00 -0.32046852059E+03  0.32046852059E+03  0.00000000000E+00 0. -1.
         25    2    1    2    0    0 -0.30745940500E+02 -0.13377633767E+02 -0.13427937372E+03  0.18655626802E+03  0.12509203407E+03 0.  0.
          5    1    3    3  502    0 -0.53486969647E+02  0.23173835863E+02 -0.15962245763E+02  0.60581748740E+02  0.41800000000E+01 0. -1.
         -5    1    3    3    0  502  0.22741029147E+02 -0.36551469630E+02 -0.11831712796E+03  0.12597451928E+03  0.41800000000E+01 0. -1.
        -11    1    1    2    0    0  0.18873554754E+02 -0.22814910105E+02 -0.13216397362E+03  0.13544019756E+03  0.00000000000E+00 0. -1.
         11    1    1    2    0    0  0.11872385747E+02  0.36192543872E+02 -0.12430229591E+02  0.40066998677E+02  0.00000000000E+00 0.  1.
</event>
<event>
 7    1  0.2873461E-009  0.2952672E+03  0.7561462E-02  0.1087631E+00
          1   -1    0    0  501    0  0.00000000000E+00  0.00000000000E+00  0.20347466442E+04  0.20347466442E+04  0.00000000000E+00 0. -1.
         -1   -1    0    0    0  501 -0.00000000000E+00 -0.00000000000E+00 -0.50641432718E+02  0.50641432718E+02  0.00000000000E+00 0.  1.
         25    2    1    2    0    0  0.17741035446E+03 -0.23551802003E+03  0.80130158711E+03  0.86294463515E+03  0.12508412450E+03 0.  0.
          5    1    3    3  502    0  0.62692415855E+02 -0.99491436894E+02  0.16803275756E+03  0.20513742962E+03  0.41800000000E+01 0.  1.
         -5    1    3    3    0  502  0.11471793860E+03 -0.13602658314E+03  0.63326882955E+03  0.65780720552E+03  0.41800000000E+01 0.  1.
        -11    1    1    2    0    0 -0.79528313725E+02  0.10345814177E+03  0.34915992700E+03  0.37274789658E+03  0.00000000000E+00 0. -1.
         11    1    1    2    0    0 -0.97882040734E+02  0.13205987826E+03  0.83364369736E+03  0.84969554518E+03  0.00000000000E+00 0.  1.
</event>
<event>
 7    1  0.2873461E-009  0.1362875E+03  0.7561462E-02  0.1218413E+00
         -1   -1    0    0    0  501 -0.00000000000E+00  0.00000000000E+00  0.27340849874E+03  0.27340849874E+03  0.00000000000E+00 0.  1.
          1   -1    0    0  501    0  0.00000000000E+00 -0.00000000000E+00 -0.72671570159E+02  0.72671570159E+02  0.00000000000E+00 0. -1.
         25    2    1    2    0    0 -0.75761818694E+02  0.32253239703E+02  0.70106931279E+02  0.16535825346E+03  0.12509294756E+03 0.  0.
          5    1    3    3  502    0 -0.84161612478E+02  0.69545081432E+02  0.39386635287E+02  0.11613989326E+03  0.41800000000E+01 0. -1.
         -5    1    3    3    0  502  0.83997937836E+01 -0.37291841729E+02  0.30720295993E+02  0.49218360203E+02  0.41800000000E+01 0. -1.
        -11    1    1    2    0    0 -0.29660496451E+01  0.26477221193E+02  0.26530195323E+02  0.37599095155E+02  0.00000000000E+00 0.  1.
         11    1    1    2    0    0  0.78727868339E+02 -0.58730460896E+02  0.10409980198E+03  0.14312272029E+03  0.00000000000E+00 0. -1.
</event>
<event>
 7    1  0.2873461E-009  0.9046452E+02  0.7561462E-02  0.1301731E+00
         -1   -1    0    0    0  501 -0.00000000000E+00  0.00000000000E+00  0.81519075703E+02  0.81519075703E+02  0.00000000000E+00 0.  1.
          1   -1    0    0  501    0  0.00000000000E+00 -0.00000000000E+00 -0.17985888315E+03  0.17985888315E+03  0.00000000000E+00 0. -1.
         25    2    1    2    0    0  0.52845368117E+02  0.20752970543E+01 -0.68906305031E+02  0.15230229560E+03  0.12510383920E+03 0.  0.
          5    1    3    3  502    0 -0.97780105803E+01 -0.23751466163E+02  0.25233590215E+02  0.36248422185E+02  0.41800000000E+01 0. -1.
         -5    1    3    3    0  502  0.62623378698E+02  0.25826763217E+02 -0.94139895245E+02  0.11605387341E+03  0.41800000000E+01 0. -1.
        -11    1    1    2    0    0 -0.99448828989E+01 -0.32796350817E+02 -0.42617409345E+02  0.54687703389E+02  0.00000000000E+00 0.  1.
         11    1    1    2    0    0 -0.42900485218E+02  0.30721053762E+02  0.13183906928E+02  0.54387959864E+02  0.00000000000E+00 0. -1.
</event>
<event>
 7    1  0.2873461E-009  0.9510350E+02  0.7561462E-02  0.1290943E+00
          3   -1    0    0  501    0  0.00000000000E+00  0.00000000000E+00  0.82725928973E+02  0.82725928973E+02  0.00000000000E+00 0. -1.
         -3   -1    0    0    0  501 -0.00000000000E+00 -0.00000000000E+00 -0.21521770221E+03  0.21521770221E+03  0.00000000000E+00 0.  1.
         25    2    1    2    0    0  0.17474003135E+02  0.59189608497E+02 -0.12128073864E+03  0.18483725708E+03  0.12508814293E+03 0.  0.
          5    1    3    3  502    0  0.31584327000E+02  0.18077522683E+02  0.16592844586E+02  0.40213945714E+02  0.41800000000E+01 0.  1.
         -5    1    3    3    0  502 -0.14110323865E+02  0.41112085813E+02 -0.13787358323E+03  0.14462331137E+03  0.41800000000E+01 0.  1.
        -11    1    1    2    0    0 -0.46412647065E+02 -0.65513241041E+02  0.28039569944E+01  0.80336671167E+02  0.00000000000E+00 0. -1.
         11    1    1    2    0    0  0.28938643931E+02  0.63236325446E+01 -0.14014991594E+02  0.32769702935E+02  0.00000000000E+00 0.  1.
</event>
<event>
 7    1  0.2873461E-009  0.1528832E+03  0.7561462E-02  0.1196974E+00
         -1   -1    0    0    0  501 -0.00000000000E+00  0.00000000000E+00  0.17764627657E+03  0.17764627657E+03  0.00000000000E+00 0.  1.
          1   -1    0    0  501    0  0.00000000000E+00 -0.00000000000E+00 -0.14115406870E+03  0.14115406870E+03  0.00000000000E+00 0. -1.
         25    2    1    2    0    0  0.11845024790E+02  0.11072922508E+03 -0.84279212245E+01  0.16768880869E+03  0.12508893158E+03 0.  0.
          5    1    3    3  502    0  0.75335196858E+01  0.13710546731E+03 -0.18922993587E+02  0.13867305135E+03  0.41800000000E+01 0.  1.
         -5    1    3    3    0  502  0.43115051043E+01 -0.26376242223E+02  0.10495072363E+02  0.29015757339E+02  0.41800000000E+01 0.  1.
        -11    1    1    2    0    0  0.92788380067E+01 -0.11847672411E+03  0.48450214177E+02  0.12833648836E+03  0.00000000000E+00 0.  1.
         11    1    1    2    0    0 -0.21123862797E+02  0.77474990309E+01 -0.35300850886E+01  0.22775048220E+02  0.00000000000E+00 0. -1.
</event>
<event>
 7    1  0.2873461E-009  0.7744883E+02  0.7561462E-02  0.1336451E+00
         -2   -1    0    0    0  501 -0.00000000000E+00  0.00000000000E+00  0.40560905167E+02  0.40560905167E+02  0.00000000000E+00 0.  1.
          2   -1    0    0  501    0  0.00000000000E+00 -0.00000000000E+00 -0.34938935758E+03  0.34938935758E+03  0.00000000000E+00 0. -1.
         25    2    1    2    0    0  0.45597321690E+02  0.13881636262E+02 -0.15324946399E+03  0.20348150374E+03  0.12509000192E+03 0.  0.
          5    1    3    3  502    0  0.40526928768E+02 -0.14133423857E+02  0.42890716687E+01  0.43336522254E+02  0.41800000000E+01 0. -1.
         -5    1    3    3    0  502  0.50703929227E+01  0.28015060119E+02 -0.15753853566E+03  0.16014498149E+03  0.41800000000E+01 0. -1.
        -11    1    1    2    0    0 -0.43088338589E+02 -0.38782566246E+02 -0.45820864296E+02  0.73893463661E+02  0.00000000000E+00 0.  1.
         11    1    1    2    0    0 -0.25089831012E+01  0.24900929984E+02 -0.10975812413E+03  0.11257529534E+03  0.00000000000E+00 0. -1.
</event>
<event>
 7    1  0.2873461E-009  0.9759342E+02  0.7561462E-02  0.1285440E+00
          1   -1    0    0  501    0  0.00000000000E+00  0.00000000000E+00  0.43024249200E+03  0.43024249200E+03  0.00000000000E+00 0. -1.
         -1   -1    0    0    0  501 -0.00000000000E+00 -0.00000000000E+00 -0.32058653984E+02  0.32058653984E+02  0.00000000000E+00 0.  1.
         25    2    1    2    0    0 -0.35813379405E+02 -0.11418277869E+02  0.18180428495E+03  0.22385937486E+03  0.12508895425E+03 0.  0.
          5    1    3    3  502    0 -0.52229851691E+02 -0.40345074654E+02  0.38148790055E+02  0.76344515449E+02  0.41800000000E+01 0.  1.
         -5    1    3    3    0  502  0.16416472285E+02  0.28926796785E+02  0.14365549489E+03  0.14751485941E+03  0.41800000000E+01 0.  1.
        -11    1    1    2    0    0  0.63734367390E+02  0.19175176217E+02  0.18013115859E+03  0.19203382844E+03  0.00000000000E+00 0. -1.
         11    1    1    2    0    0 -0.27920987985E+02 -0.77568983481E+01  0.36248394483E+02  0.46407942689E+02  0.00000000000E+00 0.  1.
</event>
<event>
 7    1  0.2873461E-009  0.1085449E+03  0.7561462E-02  0.1263289E+00
          2   -1    0    0  501    0  0.00000000000E+00  0.00000000000E+00  0.85629183172E+03  0.85629183172E+03  0.00000000000E+00 0. -1.
         -2   -1    0    0    0  501 -0.00000000000E+00 -0.00000000000E+00 -0.16341245705E+02  0.16341245705E+02  0.00000000000E+00 0.  1.
         25    2    1    2    0    0  0.48735937414E+02 -0.46777965489E+01  0.51475130785E+03  0.53199003035E+03  0.12508960820E+03 0.  0.
          5    1    3    3  502    0 -0.28710552302E+02  0.35974097997E+02  0.15565840845E+03  0.16237439473E+03  0.41800000000E+01 0. -1.
         -5    1    3    3    0  502  0.77446489716E+02 -0.40651894546E+02  0.35909289940E+03  0.36961563563E+03  0.41800000000E+01 0. -1.
        -11    1    1    2    0    0  0.60591023515E+01 -0.21673634793E+02  0.22229567613E+02  0.31632465012E+02  0.00000000000E+00 0.  1.
         11    1    1    2    0    0 -0.54795039765E+02  0.26351431342E+02  0.30296971055E+03  0.30901058206E+03  0.00000000000E+00 0. -1.
</event>
<event>
 7    1  0.2873461E-009  0.1007322E+03  0.7561462E-02  0.1278764E+00
         -4   -1    0    0    0  501 -0.00000000000E+00  0.00000000000E+00  0.22175088588E+03  0.22175088588E+03  0.00000000000E+00 0.  1.
          4   -1    0    0  501    0  0.00000000000E+00 -0.00000000000E+00 -0.71998485006E+02  0.71998485006E+02  0.00000000000E+00 0. -1.
         25    2    1    2    0    0  0.37234668043E+02  0.91166869012E+01  0.14542251365E+03  0.19561456464E+03  0.12509123046E+03 0.  0.
          5    1    3    3  502    0 -0.65620689932E+00  0.61838402409E+02  0.47684574770E+02  0.78203003082E+02  0.41800000000E+01 0. -1.
         -5    1    3    3    0  502  0.37890874942E+02 -0.52721715508E+02  0.97737938881E+02  0.11741156155E+03  0.41800000000E+01 0. -1.
        -11    1    1    2    0    0 -0.50545291721E+02 -0.22695681288E+02  0.32434427958E+02  0.64202122872E+02  0.00000000000E+00 0.  1.
         11    1    1    2    0    0  0.13310623678E+02  0.13578994387E+02 -0.28104540735E+02  0.33932683378E+02  0.00000000000E+00 0. -1.
</event>
<event>
 7    1  0.2873461E-009  0.1097641E+03  0.7561462E-02  0.1261007E+00
          1   -1    0    0  501    0  0.00000000000E+00  0.00000000000E+00  0.79912196194E+02  0.79912196194E+02  0.00000000000E+00 0. -1.
         -1   -1    0    0    0  501 -0.00000000000E+00 -0.00000000000E+00 -0.20753085248E+03  0.20753085248E+03  0.00000000000E+00 0.  1.
         25    2    1    2    0    0 -0.14912778564E+02  0.67531857933E+02 -0.77464207540E+02  0.16257537899E+03  0.12508839916E+03 0.  0.
          5    1    3    3  502    0  0.86505956289E+01 -0.25136173998E+02  0.13875505739E+02  0.30276428249E+02  0.41800000000E+01 0.  1.
         -5    1    3    3    0  502 -0.23563374193E+02  0.92668031931E+02 -0.91339713279E+02  0.13229895074E+03  0.41800000000E+01 0.  1.
        -11    1    1    2    0    0  0.33557713911E+02 -0.70454008110E+02 -0.77113420247E+01  0.78417805488E+02  0.00000000000E+00 0. -1.
         11    1    1    2    0    0 -0.18644935347E+02  0.29221501766E+01 -0.42443106726E+02  0.46449864201E+02  0.00000000000E+00 0.  1.
</event>
<event>
 7    1  0.2873461E-009  0.1066045E+03  0.7561462E-02  0.1266990E+00
          2   -1    0    0  501    0  0.00000000000E+00  0.00000000000E+00  0.89032392628E+03  0.89032392628E+03  0.00000000000E+00 0. -1.
         -2   -1    0    0    0  501 -0.00000000000E+00 -0.00000000000E+00 -0.23665486840E+02  0.23665486840E+02  0.00000000000E+00 0.  1.
         25    2    1    2    0    0  0.16805143228E+02  0.23554608442E+02  0.73661415518E+03  0.74771976038E+03  0.12508874468E+03 0.  0.
          5    1    3    3  502    0 -0.29798854832E+02 -0.39484651197E+02  0.26334883772E+03  0.26798711193E+03  0.41800000000E+01 0.  1.
         -5    1    3    3    0  502  0.46603998060E+02  0.63039259639E+02  0.47326531745E+03  0.47973264846E+03  0.41800000000E+01 0.  1.
        -11    1    1    2    0    0 -0.49078877686E+02 -0.18193222803E+02  0.28528139914E+02  0.59611948113E+02  0.00000000000E+00 0.  1.
         11    1    1    2    0    0  0.32273734458E+02 -0.53613856390E+01  0.10151614435E+03  0.10665770463E+03  0.00000000000E+00 0. -1.
</event>
<event>
 7    1  0.2873461E-009  0.1559212E+03  0.7561462E-02  0.1193380E+00
          1   -1    0    0  501    0  0.00000000000E+00  0.00000000000E+00  0.46322935463E+03  0.46322935463E+03  0.00000000000E+00 0. -1.
         -1   -1    0    0    0  501 -0.00000000000E+00 -0.00000000000E+00 -0.68665415077E+02  0.68665415077E+02  0.00000000000E+00 0.  1.
         25    2    1    2    0    0 -0.86781369240E+02 -0.82757555059E+02  0.98512458712E+02  0.19932780789E+03  0.12508817494E+03 0.  0.
          5    1    3    3  502    0 -0.11419582636E+03 -0.40389130427E+02  0.80880020067E+02  0.14570867737E+03  0.41800000000E+01 0. -1.
         -5    1    3    3    0  502  0.27414457122E+02 -0.42368424632E+02  0.17632438645E+02  0.53619130519E+02  0.41800000000E+01 0. -1.
        -11    1    1    2    0    0  0.46735915702E+02 -0.14526622818E+01  0.45568457815E+02  0.65290431089E+02  0.00000000000E+00 0.  1.
         11    1    1    2    0    0  0.40045453538E+02  0.84210217341E+02  0.25048302302E+03  0.26727653072E+03  0.00000000000E+00 0. -1.
</event>
<event>
 7    1  0.2873461E-009  0.1126833E+03  0.7561462E-02  0.1255680E+00
          1   -1    0    0  501    0  0.00000000000E+00  0.00000000000E+00  0.18842175271E+03  0.18842175271E+03  0.00000000000E+00 0. -1.
         -1   -1    0    0    0  501 -0.00000000000E+00 -0.00000000000E+00 -0.72736777899E+02  0.72736777899E+02  0.00000000000E+00 0.  1.
         25    2    1    2    0    0  0.17066113336E+02 -0.43330421081E+02  0.78426904811E+02  0.15481015114E+03  0.12508647362E+03 0.  0.
          5    1    3    3  502    0  0.24417661378E+02 -0.84752689216E+02  0.67500759786E+02  0.11114434528E+03  0.41800000000E+01 0. -1.
         -5    1    3    3    0  502 -0.73515480419E+01  0.41422268134E+02  0.10926145024E+02  0.43665805857E+02  0.41800000000E+01 0. -1.
        -11    1    1    2    0    0  0.29809500322E+02 -0.16096824833E+01 -0.29049183480E+01  0.29993931682E+02  0.00000000000E+00 0.  1.
         11    1    1    2    0    0 -0.46875613658E+02  0.44940103565E+02  0.40162988354E+02  0.76354447793E+02  0.00000000000E+00 0. -1.
</event>
<event>
 7    1  0.2873461E-009  0.1151606E+03  0.7561462E-02  0.1251301E+00
          2   -1    0    0  501    0  0.00000000000E+00  0.00000000000E+00  0.33990871773E+03  0.33990871773E+03  0.00000000000E+00 0.  1.
         -2   -1    0    0    0  501 -0.00000000000E+00 -0.00000000000E+00 -0.54043055237E+02  0.54043055237E+02  0.00000000000E+00 0. -1.
         25    2    1    2    0    0 -0.51332139637E+02  0.17020360437E+02  0.70564995785E+02  0.15346452967E+03  0.12508901633E+03 0.  0.
          5    1    3    3  502    0  0.39251136680E+02 -0.71137932657E+01  0.34604689951E+02  0.52973717558E+02  0.41800000000E+01 0. -1.
         -5    1    3    3    0  502 -0.90583276317E+02  0.24134153703E+02  0.35960305834E+02  0.10049081211E+03  0.41800000000E+01 0. -1.
        -11    1    1    2    0    0  0.13339104126E+02 -0.46443914046E+02  0.16042811016E+03  0.16754744814E+03  0.00000000000E+00 0.  1.
         11    1    1    2    0    0  0.37993035512E+02  0.29423553609E+02  0.54872556548E+02  0.72939795150E+02  0.00000000000E+00 0. -1.
</event>
<event>
 7    1  0.2873461E-009  0.1044928E+03  0.7561462E-02  0.1271122E+00
          1   -1    0    0  501    0  0.00000000000E+00  0.00000000000E+00  0.64228688940E+03  0.64228688940E+03  0.00000000000E+00 0. -1.
         -1   -1    0    0    0  501 -0.00000000000E+00 -0.00000000000E+00 -0.19466126893E+02  0.19466126893E+02  0.00000000000E+00 0.  1.
         25    2    1    2    0    0  0.31011204336E+02 -0.58319415050E+01  0.36566920220E+03  0.38776023267E+03  0.12509327025E+03 0.  0.
          5    1    3    3  502    0  0.72421723850E+02 -0.95953238108E+01  0.13713412526E+03  0.15543557198E+03  0.41800000000E+01 0. -1.
         -5    1    3    3    0  502 -0.41410519514E+02  0.37633823058E+01  0.22853507694E+03  0.23232466069E+03  0.41800000000E+01 0. -1.
        -11    1    1    2    0    0 -0.49447008793E+02  0.34247281108E+02  0.17835976968E+03  0.18822882453E+03  0.00000000000E+00 0. -1.
         11    1    1    2    0    0  0.18435804458E+02 -0.28415339603E+02  0.78791790617E+02  0.85763959094E+02  0.00000000000E+00 0.  1.
</event>
<event>
 7    1  0.2873461E-009  0.1785085E+03  0.7561462E-02  0.1169254E+00
         -2   -1    0    0    0  501 -0.00000000000E+00  0.00000000000E+00  0.48767263027E+02  0.48767263027E+02  0.00000000000E+00 0. -1.
          2   -1    0    0  501    0  0.00000000000E+00 -0.00000000000E+00 -0.66127889099E+03  0.66127889099E+03  0.00000000000E+00 0.  1.
         25    2    1    2    0    0 -0.14184632409E+03 -0.14859187238E+00 -0.35731183535E+03  0.40427674851E+03  0.12509012737E+03 0.  0.
          5    1    3    3  502    0 -0.15304302030E+03  0.30257400474E+02 -0.30483650010E+03  0.34246231988E+03  0.41800000000E+01 0. -1.
         -5    1    3    3    0  502  0.11196696213E+02 -0.30405992347E+02 -0.52475335247E+02  0.61814428623E+02  0.41800000000E+01 0. -1.
        -11    1    1    2    0    0  0.69266690914E+02  0.45339763162E+02 -0.13184289312E+03  0.15567953320E+03  0.00000000000E+00 0. -1.
         11    1    1    2    0    0  0.72579633175E+02 -0.45191171290E+02 -0.12335689950E+03  0.15008987230E+03  0.00000000000E+00 0.  1.
</event>
<event>
 7    1  0.2873461E-009  0.1026368E+03  0.7561462E-02  0.1274847E+00
         -2   -1    0    0    0  501 -0.00000000000E+00  0.00000000000E+00  0.13851781510E+03  0.13851781510E+03  0.00000000000E+00 0.  1.
          2   -1    0    0  501    0  0.00000000000E+00 -0.00000000000E+00 -0.18927448180E+03  0.18927448180E+03  0.00000000000E+00 0. -1.
         25    2    1    2    0    0 -0.36997828082E+02 -0.10541161069E+02 -0.14463087874E+03  0.19505153266E+03  0.12508818469E+03 0.  0.
          5    1    3    3  502    0  0.31167596431E+02  0.19341912081E+02 -0.10355342690E+03  0.10993776991E+03  0.41800000000E+01 0.  1.
         -5    1    3    3    0  502 -0.68165424513E+02 -0.29883073150E+02 -0.41077451846E+02  0.85113762753E+02  0.41800000000E+01 0.  1.
        -11    1    1    2    0    0  0.61439106674E+02  0.23937487034E+02  0.64192108593E+02  0.92023876902E+02  0.00000000000E+00 0. -1.
         11    1    1    2    0    0 -0.24441278592E+02 -0.13396325965E+02  0.29682103455E+02  0.40716887333E+02  0.00000000000E+00 0.  1.
</event>
<event>
 7    1  0.2900434E-009  0.1681048E+03  0.7561462E-02  0.1179839E+00
          2   -1    0    0  501    0  0.00000000000E+00  0.00000000000E+00  0.94334529808E+03  0.94334529808E+03  0.00000000000E+00 0. -1.
         -2   -1    0    0    0  501 -0.00000000000E+00 -0.00000000000E+00 -0.35275188469E+02  0.35275188469E+02  0.00000000000E+00 0.  1.
         25    2    1    2    0    0 -0.36780621889E+02  0.14089616775E+03  0.45093001278E+03  0.49009659522E+03  0.12510896046E+03 0.  0.
          5    1    3    3  502    0 -0.76573219728E+02  0.60332699780E+02  0.28664473459E+03  0.30279724059E+03  0.41800000000E+01 0. -1.
         -5    1    3    3    0  502  0.39792597839E+02  0.80563467968E+02  0.16428527819E+03  0.18729935463E+03  0.41800000000E+01 0. -1.
        -11    1    1    2    0    0  0.35818421129E+02 -0.78580570908E+02  0.13391955931E+03  0.15934965887E+03  0.00000000000E+00 0.  1.
         11    1    1    2    0    0  0.96220076006E+00 -0.62315596839E+02  0.32322053752E+03  0.32917423246E+03  0.00000000000E+00 0. -1.
</event>
<event>
 7    1  0.2873461E-009  0.1110495E+03  0.7561462E-02  0.1258639E+00
         -3   -1    0    0    0  501 -0.00000000000E+00  0.00000000000E+00  0.45156649598E+02  0.45156649598E+02  0.00000000000E+00 0.  1.
          3   -1    0    0  501    0  0.00000000000E+00 -0.00000000000E+00 -0.33249872448E+03  0.33249872448E+03  0.00000000000E+00 0. -1.
         25    2    1    2    0    0 -0.41568135118E+02 -0.21567560859E+02 -0.11264311102E+03  0.17472759252E+03  0.12509273197E+03 0.  0.
          5    1    3    3  502    0  0.37192006660E+02 -0.23561525030E+02 -0.10131919407E+02  0.45370904906E+02  0.41800000000E+01 0.  1.
         -5    1    3    3    0  502 -0.78760141778E+02  0.19939641709E+01 -0.10251119161E+03  0.12935668762E+03  0.41800000000E+01 0.  1.
        -11    1    1    2    0    0 -0.14170082989E+02  0.38255060379E+02 -0.10171055152E+03  0.10958684769E+03  0.00000000000E+00 0. -1.
         11    1    1    2    0    0  0.55738218107E+02 -0.16687499519E+02 -0.72988412352E+02  0.93340933870E+02  0.00000000000E+00 0.  1.
</event>
<event>
 7    1  0.2873461E-009  0.1303927E+03  0.7561462E-02  0.1226874E+00
          2   -1    0    0  501    0  0.00000000000E+00  0.00000000000E+00  0.72951109657E+02  0.72951109657E+02  0.00000000000E+00 0.  1.
         -2   -1    0    0    0  501 -0.00000000000E+00 -0.00000000000E+00 -0.27303332862E+03  0.27303332862E+03  0.00000000000E+00 0. -1.
         25    2    1    2    0    0  0.80755796907E+02  0.36626452006E+02 -0.12030531511E+03  0.19489032087E+03  0.12508346256E+03 0.  0.
          5    1    3    3  502    0  0.55840026799E+02  0.77768259050E+02 -0.46052586512E+02  0.10632179378E+03  0.41800000000E+01 0. -1.
         -5    1    3    3    0  502  0.24915770108E+02 -0.41141807043E+02 -0.74252728597E+02  0.88568527091E+02  0.41800000000E+01 0. -1.
        -11    1    1    2    0    0  0.14254595851E+02  0.14310894119E+01 -0.37885431374E+02  0.40503671811E+02  0.00000000000E+00 0. -1.
         11    1    1    2    0    0 -0.95010392757E+02 -0.38057541418E+02 -0.41891472485E+02  0.11059044560E+03  0.00000000000E+00 0.  1.
</event>
<event>
 7    1  0.2873461E-009  0.5385529E+02  0.7561462E-02  0.1425591E+00
         -1   -1    0    0    0  501 -0.00000000000E+00  0.00000000000E+00  0.50644319559E+03  0.50644319559E+03  0.00000000000E+00 0.  1.
          1   -1    0    0  501    0  0.00000000000E+00 -0.00000000000E+00 -0.27943561075E+02  0.27943561075E+02  0.00000000000E+00 0. -1.
         25    2    1    2    0    0  0.11004368185E+01  0.40911244816E+02  0.34024603828E+03  0.36481003764E+03  0.12507620112E+03 0.  0.
          5    1    3    3  502    0  0.75367814060E+01  0.24962068775E+02  0.24177493397E+01  0.26518406124E+02  0.41800000000E+01 0.  1.
         -5    1    3    3    0  502 -0.64363445876E+01  0.15949176041E+02  0.33782828894E+03  0.33829163152E+03  0.41800000000E+01 0.  1.
        -11    1    1    2    0    0  0.22194951962E+02 -0.31373827369E+02  0.13917913800E+03  0.14438755275E+03  0.00000000000E+00 0.  1.
         11    1    1    2    0    0 -0.23295388780E+02 -0.95374174469E+01 -0.92554175740E+00  0.25189166273E+02  0.00000000000E+00 0. -1.
</event>
<event>
 7    1  0.2873461E-009  0.9902566E+02  0.7561462E-02  0.1282358E+00
          2   -1    0    0  501    0  0.00000000000E+00  0.00000000000E+00  0.18674912678E+03  0.18674912678E+03  0.00000000000E+00 0. -1.
         -2   -1    0    0    0  501 -0.00000000000E+00 -0.00000000000E+00 -0.67491403246E+02  0.67491403246E+02  0.00000000000E+00 0.  1.
         25    2    1    2    0    0 -0.24004834605E+02 -0.69871992817E+01  0.69358295982E+02  0.14520141043E+03  0.12509126001E+03 0.  0.
          5    1    3    3  502    0 -0.48311964089E+02 -0.54809400940E+02  0.33113394261E+02  0.80324875257E+02  0.41800000000E+01 0.  1.
         -5    1    3    3    0  502  0.24307129484E+02  0.47822201658E+02  0.36244901721E+02  0.64876535173E+02  0.41800000000E+01 0.  1.
        -11    1    1    2    0    0  0.41444274376E+02  0.22989055272E+02 -0.65356396421E+01  0.47841813578E+02  0.00000000000E+00 0.  1.
         11    1    1    2    0    0 -0.17439439771E+02 -0.16001855991E+02  0.56435067195E+02  0.61197306019E+02  0.00000000000E+00 0. -1.
</event>
<event>
 7    1  0.4790061E-009  0.8482163E+02  0.7561462E-02  0.1315900E+00
         -1   -1    0    0    0  501 -0.00000000000E+00  0.00000000000E+00  0.80789743011E+02  0.80789743011E+02  0.00000000000E+00 0.  1.
          1   -1    0    0  501    0  0.00000000000E+00 -0.00000000000E+00 -0.23658134243E+03  0.23658134243E+03  0.00000000000E+00 0. -1.
         25    2    1    2    0    0  0.51038515024E+02  0.36241048542E+02 -0.17960424369E+02  0.14102520500E+03  0.12508872046E+03 0.  0.
          5    1    3    3  502    0  0.64742858091E+02  0.14960473454E+02 -0.61403918050E+02  0.90572440575E+02  0.41800000000E+01 0.  1.
         -5    1    3    3    0  502 -0.13704343067E+02  0.21280575088E+02  0.43443493681E+02  0.50452764426E+02  0.41800000000E+01 0.  1.
        -11    1    1    2    0    0 -0.26091013825E+02 -0.44110769102E+02 -0.18981889892E+02  0.54651743769E+02  0.00000000000E+00 0.  1.
         11    1    1    2    0    0 -0.24947501199E+02  0.78697205600E+01 -0.11884928516E+03  0.12169413667E+03  0.00000000000E+00 0. -1.
</event>
<event>
 7    1  0.2873461E-009  0.1174206E+03  0.7561462E-02  0.1247414E+00
         -1   -1    0    0    0  501 -0.00000000000E+00  0.00000000000E+00  0.12274916345E+03  0.12274916345E+03  0.00000000000E+00 0.  1.
          1   -1    0    0  501    0  0.00000000000E+00 -0.00000000000E+00 -0.17694696575E+03  0.17694696575E+03  0.00000000000E+00 0. -1.
         25    2    1    2    0    0 -0.23477886883E+02 -0.64976390127E+02  0.44757638487E+02  0.14974849646E+03  0.12509285968E+03 0.  0.
          5    1    3    3  502    0  0.35480619461E+02 -0.74808732656E+02  0.23458810497E+02  0.86156886137E+02  0.41800000000E+01 0. -1.
         -5    1    3    3    0  502 -0.58958506344E+02  0.98323425289E+01  0.21298827991E+02  0.63591610325E+02  0.41800000000E+01 0. -1.
        -11    1    1    2    0    0  0.24392562426E+02  0.76585200381E+02 -0.39861896644E+02  0.89717672859E+02  0.00000000000E+00 0.  1.
         11    1    1    2    0    0 -0.91467554269E+00 -0.11608810254E+02 -0.59093544150E+02  0.60229959880E+02  0.00000000000E+00 0. -1.
</event>
<event>
 7    1  0.2873461E-009  0.8016720E+02  0.7561462E-02  0.1328578E+00
         -2   -1    0    0    0  501 -0.00000000000E+00  0.00000000000E+00  0.22943538752E+03  0.22943538752E+03  0.00000000000E+00 0.  1.
          2   -1    0    0  501    0  0.00000000000E+00 -0.00000000000E+00 -0.53287878841E+02  0.53287878841E+02  0.00000000000E+00 0. -1.
         25    2    1    2    0    0 -0.11336478961E+02 -0.18282725507E+02  0.95839551379E+02  0.15903499205E+03  0.12507651771E+03 0.  0.
          5    1    3    3  502    0  0.43908841011E+02 -0.46085946431E+01 -0.34850936990E+01  0.44484196538E+02  0.41800000000E+01 0. -1.
         -5    1    3    3    0  502 -0.55245319972E+02 -0.13674130864E+02  0.99324645078E+02  0.11455079552E+03  0.41800000000E+01 0. -1.
        -11    1    1    2    0    0  0.33395113266E+02  0.69065420954E+01 -0.53393711246E+01  0.34517282595E+02  0.00000000000E+00 0. -1.
         11    1    1    2    0    0 -0.22058634305E+02  0.11376183411E+02  0.85647328424E+02  0.89170991710E+02  0.00000000000E+00 0.  1.
</event>
<event>
 6    1  0.2873461E-009  0.1068968E+03  0.7561462E-02  0.1266427E+00
          2   -1    0    0  501    0  0.00000000000E+00  0.00000000000E+00  0.36931843241E+04  0.36931843241E+04  0.00000000000E+00 0. -1.
         -2   -1    0    0    0  501 -0.00000000000E+00 -0.00000000000E+00 -0.91074086229E+01  0.91074086229E+01  0.00000000000E+00 0.  1.
          5    1    1    2  502    0  0.49253514522E+02  0.56887572027E+02  0.23405578911E+04  0.23417708724E+04  0.41800000000E+01 0.  1.
         -5    1    1    2    0  502 -0.47295508017E+02 -0.21115217736E+02  0.10494545141E+04  0.10507401996E+04  0.41800000000E+01 0.  1.
        -11    1    1    2    0    0  0.20781875874E+02  0.18374031069E+02  0.37879394767E+02  0.46950398619E+02  0.00000000000E+00 0.  1.
         11    1    1    2    0    0 -0.22739882379E+02 -0.54146385360E+02  0.25618511546E+03  0.26283026211E+03  0.00000000000E+00 0. -1.
</event>
<event>
 7    1  0.2873461E-009  0.1096635E+03  0.7561462E-02  0.1261194E+00
         -1   -1    0    0    0  501 -0.00000000000E+00  0.00000000000E+00  0.78273611743E+03  0.78273611743E+03  0.00000000000E+00 0.  1.
          1   -1    0    0  501    0  0.00000000000E+00 -0.00000000000E+00 -0.22199949199E+02  0.22199949199E+02  0.00000000000E+00 0. -1.
         25    2    1    2    0    0  0.25198765308E+02  0.71428249525E+02  0.39992062828E+03  0.42581847567E+03  0.12509153726E+03 0.  0.
          5    1    3    3  502    0  0.91457229434E+00  0.77762184529E+02  0.10997198782E+03  0.13475572081E+03  0.41800000000E+01 0.  1.
         -5    1    3    3    0  502  0.24284193013E+02 -0.63339350040E+01  0.28994864045E+03  0.29106275486E+03  0.41800000000E+01 0.  1.
        -11    1    1    2    0    0 -0.17791427599E+02  0.18561213371E+02  0.61142774844E+02  0.66328669921E+02  0.00000000000E+00 0. -1.
         11    1    1    2    0    0 -0.74073377081E+01 -0.89989462896E+02  0.29947276511E+03  0.31278892104E+03  0.00000000000E+00 0.  1.
</event>
<event>
 7    1  0.2873461E-009  0.1061652E+03  0.7561462E-02  0.1267841E+00
         -4   -1    0    0    0  501 -0.00000000000E+00  0.00000000000E+00  0.26273114494E+03  0.26273114494E+03  0.00000000000E+00 0.  1.
          4   -1    0    0  501    0  0.00000000000E+00 -0.00000000000E+00 -0.47932936313E+02  0.47932936313E+02  0.00000000000E+00 0. -1.
         25    2    1    2    0    0 -0.14874377758E+02  0.15524634020E+02  0.92158484560E+02  0.15685141320E+03  0.12508764196E+03 0.  0.
          5    1    3    3  502    0 -0.66187287014E+02  0.11691685219E+01  0.24683665505E+02  0.70773438944E+02  0.41800000000E+01 0.  1.
         -5    1    3    3    0  502  0.51312909256E+02  0.14355465498E+02  0.67474819055E+02  0.86077974258E+02  0.41800000000E+01 0.  1.
        -11    1    1    2    0    0  0.42297815908E+02 -0.38181515944E+02  0.69629835774E+02  0.89973592905E+02  0.00000000000E+00 0.  1.
         11    1    1    2    0    0 -0.27423438150E+02  0.22656881924E+02  0.53009888292E+02  0.63839075144E+02  0.00000000000E+00 0. -1.
</event>
<event>
 7    1  0.2873461E-009  0.1045018E+03  0.7561462E-02  0.1271104E+00
         -2   -1    0    0    0  501 -0.00000000000E+00  0.00000000000E+00  0.32017184664E+02  0.32017184664E+02  0.00000000000E+00 0.  1.
          2   -1    0    0  501    0  0.00000000000E+00 -0.00000000000E+00 -0.37320157619E+03  0.37320157619E+03  0.00000000000E+00 0. -1.
         25    2    1    2    0    0  0.29682418706E+01 -0.15147143498E+02 -0.19100816495E+03  0.22884705723E+03  0.12509440480E+03 0.  0.
          5    1    3    3  502    0 -0.35782182643E+02 -0.57699198853E+02 -0.95222146558E+02  0.11702261208E+03  0.41800000000E+01 0. -1.
         -5    1    3    3    0  502  0.38750424513E+02  0.42552055355E+02 -0.95786018390E+02  0.11182444515E+03  0.41800000000E+01 0. -1.
        -11    1    1    2    0    0 -0.25582215985E+02 -0.25905691219E+02 -0.10555917784E+03  0.11166151816E+03  0.00000000000E+00 0. -1.
         11    1    1    2    0    0  0.22613974115E+02  0.41052834717E+02 -0.44617048734E+02  0.64710185453E+02  0.00000000000E+00 0.  1.
</event>
<event>
 7    1  0.2873461E-009  0.1006529E+03  0.7561462E-02  0.1278929E+00
         -1   -1    0    0    0  501 -0.00000000000E+00  0.00000000000E+00  0.69494651729E+02  0.69494651729E+02  0.00000000000E+00 0.  1.
          1   -1    0    0  501    0  0.00000000000E+00 -0.00000000000E+00 -0.18511229905E+03  0.18511229905E+03  0.00000000000E+00 0. -1.
         25    2    1    2    0    0 -0.17210210877E+02  0.15583634755E+01 -0.94212371036E+02  0.15754025352E+03  0.12507733914E+03 0.  0.
          5    1    3    3  502    0  0.37024898253E+02 -0.30235261291E+02 -0.79469213428E+02  0.92832334878E+02  0.41800000000E+01 0.  1.
         -5    1    3    3    0  502 -0.54235109130E+02  0.31793624767E+02 -0.14743157607E+02  0.64707918637E+02  0.41800000000E+01 0.  1.
        -11    1    1    2    0    0 -0.35066089023E+02 -0.11891946770E+02 -0.23293995138E+02  0.43745390693E+02  0.00000000000E+00 0.  1.
         11    1    1    2    0    0  0.52276299900E+02  0.10333583295E+02  0.18887188565E+01  0.53321306566E+02  0.00000000000E+00 0. -1.
</event>
<event>
 7    1  0.2873461E-009  0.1047672E+03  0.7561462E-02  0.1270579E+00
         -1   -1    0    0    0  501 -0.00000000000E+00  0.00000000000E+00  0.15744929521E+03  0.15744929521E+03  0.00000000000E+00 0.  1.
          1   -1    0    0  501    0  0.00000000000E+00 -0.00000000000E+00 -0.10326796728E+03  0.10326796728E+03  0.00000000000E+00 0. -1.
         25    2    1    2    0    0  0.38978458369E+02 -0.31909804164E+02  0.75473553728E+02  0.15453553343E+03  0.12508963971E+03 0.  0.
          5    1    3    3  502    0  0.84558087752E+02 -0.14591115950E+02  0.48677969735E+02  0.98742027559E+02  0.41800000000E+01 0.  1.
         -5    1    3    3    0  502 -0.45579629383E+02 -0.17318688215E+02  0.26795583993E+02  0.55793505874E+02  0.41800000000E+01 0.  1.
        -11    1    1    2    0    0  0.97256115617E+01  0.23272521355E+02  0.27072778717E+02  0.37001798847E+02  0.00000000000E+00 0.  1.
         11    1    1    2    0    0 -0.48704069931E+02  0.86372828095E+01 -0.48365004519E+02  0.69179930213E+02  0.00000000000E+00 0. -1.
</event>
<event>
 7    1  0.2873461E-009  0.7627518E+02  0.7561462E-02  0.1339967E+00
         -2   -1    0    0    0  501 -0.00000000000E+00  0.00000000000E+00  0.81078741488E+03  0.81078741488E+03  0.00000000000E+00 0. -1.
          2   -1    0    0  501    0  0.00000000000E+00 -0.00000000000E+00 -0.35919945257E+02  0.35919945257E+02  0.00000000000E+00 0.  1.
         25    2    1    2    0    0 -0.65251495070E+02  0.23287320834E+01  0.69093132473E+03  0.70519336982E+03  0.12509361588E+03 0.  0.
          5    1    3    3  502    0 -0.41139082596E+02  0.16845290698E+02  0.66412828621E+02  0.80027021317E+02  0.41800000000E+01 0.  1.
         -5    1    3    3    0  502 -0.24112412474E+02 -0.14516558615E+02  0.62451849611E+03  0.62516634850E+03  0.41800000000E+01 0.  1.
        -11    1    1    2    0    0  0.66858668990E+02  0.94811012088E+01  0.11985653412E+02  0.68583006546E+02  0.00000000000E+00 0.  1.
         11    1    1    2    0    0 -0.16071739197E+01 -0.11809833292E+02  0.71950491477E+02  0.72930983773E+02  0.00000000000E+00 0. -1.
</event>
<event>
 7    1  0.2873461E-009  0.1061195E+03  0.7561462E-02  0.1267929E+00
          1   -1    0    0  501    0  0.00000000000E+00  0.00000000000E+00  0.86492393190E+02  0.86492393190E+02  0.00000000000E+00 0. -1.
         -1   -1    0    0    0  501 -0.00000000000E+00 -0.00000000000E+00 -0.26079249684E+03  0.26079249684E+03  0.00000000000E+00 0.  1.
         25    2    1    2    0    0 -0.19434743553E+02  0.62297040735E+02 -0.18052282613E+03  0.22911716881E+03  0.12509019046E+03 0.  0.
          5    1    3    3  502    0 -0.23148554337E+02 -0.35313009427E+02 -0.43271127939E+02  0.60603028933E+02  0.41800000000E+01 0. -1.
         -5    1    3    3    0  502  0.37138107841E+01  0.97610050162E+02 -0.13725169819E+03  0.16851413988E+03  0.41800000000E+01 0. -1.
        -11    1    1    2    0    0 -0.65419012741E+01 -0.29415332241E+02 -0.43641146485E+02  0.53034025961E+02  0.00000000000E+00 0.  1.
         11    1    1    2    0    0  0.25976644827E+02 -0.32881708494E+02  0.49863868963E+02  0.65133695258E+02  0.00000000000E+00 0. -1.
</event>
<event>
 7    1  0.2873461E-009  0.1638394E+03  0.7561462E-02  0.1184429E+00
          2   -1    0    0  501    0  0.00000000000E+00  0.00000000000E+00  0.55052995380E+03  0.55052995380E+03  0.00000000000E+00 0.  1.
         -2   -1    0    0    0  501 -0.00000000000E+00 -0.00000000000E+00 -0.62485842480E+02  0.62485842480E+02  0.00000000000E+00 0. -1.
         25    2    1    2    0    0  0.10496336988E+03  0.10500844936E+03  0.29568313142E+03  0.35372351828E+03  0.12509088584E+03 0.  0.
          5    1    3    3  502    0  0.17819872283E+02  0.58946891664E+02  0.22245661457E+03  0.23086078413E+03  0.41800000000E+01 0.  1.
         -5    1    3    3    0  502  0.87143497600E+02  0.46061557698E+02  0.73226516856E+02  0.12286273415E+03  0.41800000000E+01 0.  1.
        -11    1    1    2    0    0 -0.52638753088E+02 -0.30850199009E+01  0.30274070601E+02  0.60801932742E+02  0.00000000000E+00 0.  1.
         11    1    1    2    0    0 -0.52324616795E+02 -0.10192342946E+03  0.16208690930E+03  0.19849034526E+03  0.00000000000E+00 0. -1.
</event>
<event>
 7    1  0.2873461E-009  0.2356898E+03  0.7561462E-02  0.1122698E+00
         -2   -1    0    0    0  501 -0.00000000000E+00  0.00000000000E+00  0.43414814977E+02  0.43414814977E+02  0.00000000000E+00 0.  1.
          2   -1    0    0  501    0  0.00000000000E+00 -0.00000000000E+00 -0.19664230237E+04  0.19664230237E+04  0.00000000000E+00 0. -1.
         25    2    1    2    0    0  0.20429696097E+03 -0.11368253996E+03 -0.14516513502E+04  0.14756692976E+04  0.12508902902E+03 0.  0.
          5    1    3    3  502    0  0.13273538078E+03 -0.95311998594E+02 -0.12541839620E+04  0.12647916593E+04  0.41800000000E+01 0.  1.
         -5    1    3    3    0  502  0.71561580196E+02 -0.18370541369E+02 -0.19746738822E+03  0.21087763836E+03  0.41800000000E+01 0.  1.
        -11    1    1    2    0    0 -0.17827048528E+03  0.10198622001E+03 -0.32066240468E+03  0.38079644532E+03  0.00000000000E+00 0.  1.
         11    1    1    2    0    0 -0.26026475689E+02  0.11696319950E+02 -0.15069445377E+03  0.15337209569E+03  0.00000000000E+00 0. -1.
</event>
<event>
 7    1  0.2873461E-009  0.1600923E+03  0.7561462E-02  0.1188593E+00
          3   -1    0    0  501    0  0.00000000000E+00  0.00000000000E+00  0.28685630124E+03  0.28685630124E+03  0.00000000000E+00 0. -1.
         -3   -1    0    0    0  501 -0.00000000000E+00 -0.00000000000E+00 -0.96559729291E+02  0.96559729291E+02  0.00000000000E+00 0.  1.
         25    2    1    2    0    0  0.11950599601E+03 -0.60216729490E+00  0.67122771939E+02  0.18556678957E+03  0.12509005232E+03 0.  0.
          5    1    3    3  502    0 -0.22833793461E+02  0.15214783657E+00 -0.80124182872E+01  0.24557616326E+02  0.41800000000E+01 0.  1.
         -5    1    3    3    0  502  0.14233978947E+03 -0.75431513147E+00  0.75135190226E+02  0.16100917324E+03  0.41800000000E+01 0.  1.
        -11    1    1    2    0    0  0.14456992872E+02 -0.13606832651E+02  0.12111338538E+02  0.23255860742E+02  0.00000000000E+00 0.  1.
         11    1    1    2    0    0 -0.13396298888E+03  0.14208999946E+02  0.11106246147E+03  0.17459338022E+03  0.00000000000E+00 0. -1.
</event>
<event>
 7    1  0.2873461E-009  0.1515810E+03  0.7561462E-02  0.1198544E+00
          3   -1    0    0  501    0  0.00000000000E+00  0.00000000000E+00  0.26458027294E+03  0.26458027294E+03  0.00000000000E+00 0. -1.
         -3   -1    0    0    0  501 -0.00000000000E+00 -0.00000000000E+00 -0.16071412755E+03  0.16071412755E+03  0.00000000000E+00 0.  1.
         25    2    1    2    0    0 -0.13246216305E+03  0.54783945856E+02 -0.49566063298E+02  0.19660458754E+03  0.12509621836E+03 0.  0.
          5    1    3    3  502    0 -0.55195895616E+02  0.21405717792E+02 -0.86248921621E+02  0.10469546565E+03  0.41800000000E+01 0. -1.
         -5    1    3    3    0  502 -0.77266267435E+02  0.33378228064E+02  0.36682858322E+02  0.91909121891E+02  0.41800000000E+01 0. -1.
        -11    1    1    2    0    0  0.84773939640E+02 -0.69514444967E+02  0.13840763140E+03  0.17656599710E+03  0.00000000000E+00 0. -1.
         11    1    1    2    0    0  0.47688223411E+02  0.14730499111E+02  0.15024577295E+02  0.52123815853E+02  0.00000000000E+00 0.  1.
</event>
<event>
 7    1  0.2873461E-009  0.6164953E+02  0.7561462E-02  0.1391037E+00
         -1   -1    0    0    0  501 -0.00000000000E+00  0.00000000000E+00  0.36300472408E+02  0.36300472408E+02  0.00000000000E+00 0.  1.
          1   -1    0    0  501    0  0.00000000000E+00 -0.00000000000E+00 -0.43413794302E+03  0.43413794302E+03  0.00000000000E+00 0. -1.
         25    2    1    2    0    0  0.39995512570E+02  0.13920371891E+02 -0.13331031762E+03  0.18765069891E+03  0.12509087193E+03 0.  0.
          5    1    3    3  502    0  0.92764964169E+01  0.30216658755E+02  0.15017834322E+02  0.35243546924E+02  0.41800000000E+01 0. -1.
         -5    1    3    3    0  502  0.30719016154E+02 -0.16296286864E+02 -0.14832815194E+03  0.15240715199E+03  0.41800000000E+01 0. -1.
        -11    1    1    2    0    0 -0.20514349772E+01  0.10873017337E+02  0.29869030920E+01  0.11460911026E+02  0.00000000000E+00 0.  1.
         11    1    1    2    0    0 -0.37944077593E+02 -0.24793389228E+02 -0.26751405609E+03  0.27132680549E+03  0.00000000000E+00 0. -1.
</event>
<event>
 7    1  0.2873461E-009  0.1016236E+03  0.7561462E-02  0.1276918E+00
          3   -1    0    0  501    0  0.00000000000E+00  0.00000000000E+00  0.62811340024E+03  0.62811340024E+03  0.00000000000E+00 0. -1.
         -3   -1    0    0    0  501 -0.00000000000E+00 -0.00000000000E+00 -0.22626714690E+02  0.22626714690E+02  0.00000000000E+00 0.  1.
         25    2    1    2    0    0 -0.48999240193E+02  0.33935542277E+00  0.39326707235E+03  0.41557915988E+03  0.12508400070E+03 0.  0.
          5    1    3    3  502    0  0.22263906487E+02  0.44315928619E+02  0.12617327239E+03  0.13563461994E+03  0.41800000000E+01 0.  1.
         -5    1    3    3    0  502 -0.71263146680E+02 -0.43976573196E+02  0.26709379996E+03  0.27994453994E+03  0.41800000000E+01 0.  1.
        -11    1    1    2    0    0  0.90782938431E+01  0.22061655432E+02  0.69488366249E+01  0.24847905142E+02  0.00000000000E+00 0.  1.
         11    1    1    2    0    0  0.39920946350E+02 -0.22401010855E+02  0.20527077658E+03  0.21031304991E+03  0.00000000000E+00 0. -1.
</event>
<event>
 7    1  0.2873461E-009  0.8488865E+02  0.7561462E-02  0.1315724E+00
          1   -1    0    0  501    0  0.00000000000E+00  0.00000000000E+00  0.37339249157E+03  0.37339249157E+03  0.00000000000E+00 0. -1.
         -1   -1    0    0    0  501 -0.00000000000E+00 -0.00000000000E+00 -0.44990496139E+02  0.44990496139E+02  0.00000000000E+00 0.  1.
         25    2    1    2    0    0 -0.66657464095E+02 -0.36703635945E+00  0.22363079451E+03  0.26475969144E+03  0.12507441676E+03 0.  0.
          5    1    3    3  502    0 -0.25260658449E+02  0.38398903317E+02  0.19632311726E+03  0.20167502426E+03  0.41800000000E+01 0. -1.
         -5    1    3    3    0  502 -0.41396805646E+02 -0.38765939676E+02  0.27307677248E+02  0.63084667181E+02  0.41800000000E+01 0. -1.
        -11    1    1    2    0    0  0.44540678531E+02 -0.14613908691E+01  0.11912884653E+03  0.12719154761E+03  0.00000000000E+00 0. -1.
         11    1    1    2    0    0  0.22116785564E+02  0.18284272285E+01 -0.14357645605E+02  0.26431748658E+02  0.00000000000E+00 0.  1.
</event>
<event>
 7    1  0.2873461E-009  0.1150703E+03  0.7561462E-02  0.1251458E+00
          2   -1    0    0  501    0  0.00000000000E+00  0.00000000000E+00  0.23973520491E+03  0.23973520491E+03  0.00000000000E+00 0.  1.
         -2   -1    0    0    0  501 -0.00000000000E+00 -0.00000000000E+00 -0.90265611662E+02  0.90265611662E+02  0.00000000000E+00 0. -1.
         25    2    1    2    0    0  0.43588403127E+02  0.27683539264E+02 -0.13367929413E+02  0.13599105010E+03  0.12509411232E+03 0.  0.
          5    1    3    3  502    0  0.78264469149E+02  0.41943912513E+02 -0.31269528630E+02  0.94233087335E+02  0.41800000000E+01 0.  1.
         -5    1    3    3    0  502 -0.34676066022E+02 -0.14260373249E+02  0.17901599217E+02  0.41757962767E+02  0.41800000000E+01 0.  1.
        -11    1    1    2    0    0  0.16160571182E+01 -0.52112661973E+02  0.10054905451E+03  0.11326276326E+03  0.00000000000E+00 0.  1.
         11    1    1    2    0    0 -0.45204460245E+02  0.24429122709E+02  0.62288468142E+02  0.80747003201E+02  0.00000000000E+00 0. -1.
</event>
<event>
 7    1  0.2873461E-009  0.1706512E+03  0.7561462E-02  0.1177170E+00
          1   -1    0    0  501    0  0.00000000000E+00  0.00000000000E+00  0.19379686086E+03  0.19379686086E+03  0.00000000000E+00 0. -1.
         -1   -1    0    0    0  501 -0.00000000000E+00 -0.00000000000E+00 -0.22878056584E+03  0.22878056584E+03  0.00000000000E+00 0.  1.
         25    2    1    2    0    0 -0.85600624056E+02 -0.13675260094E+03 -0.98913326082E+02  0.22685207740E+03  0.12509707527E+03 0.  0.
          5    1    3    3  502    0 -0.11964873465E+02 -0.85325109028E+01 -0.75573965427E+02  0.77102909087E+02  0.41800000000E+01 0. -1.
         -5    1    3    3    0  502 -0.73635750590E+02 -0.12822009004E+03 -0.23339360654E+02  0.14974916831E+03  0.41800000000E+01 0. -1.
        -11    1    1    2    0    0 -0.24053894653E+01  0.63655226495E+02 -0.19087142665E+01  0.63729247201E+02  0.00000000000E+00 0. -1.
         11    1    1    2    0    0  0.88006013521E+02  0.73097374447E+02  0.65838335365E+02  0.13199610210E+03  0.00000000000E+00 0.  1.
</event>
<event>
 7    1  0.2873461E-009  0.1014598E+03  0.7561462E-02  0.1277256E+00
         -1   -1    0    0    0  501 -0.00000000000E+00  0.00000000000E+00  0.37810398663E+02  0.37810398663E+02  0.00000000000E+00 0. -1.
          1   -1    0    0  501    0  0.00000000000E+00 -0.00000000000E+00 -0.36581790409E+03  0.36581790409E+03  0.00000000000E+00 0.  1.
         25    2    1    2    0    0  0.30925650125E+02  0.11687249144E+02 -0.13094008964E+03  0.18407931324E+03  0.12508756477E+03 0.  0.
          5    1    3    3  502    0 -0.16269824551E+02  0.59334039102E+02 -0.70936557456E+02  0.93993100655E+02  0.41800000000E+01 0.  1.
         -5    1    3    3    0  502  0.47195474676E+02 -0.47646789958E+02 -0.60003532185E+02  0.90086212585E+02  0.41800000000E+01 0.  1.
        -11    1    1    2    0    0 -0.11686767860E+02 -0.38964654023E+02 -0.33755527209E+02  0.52860764498E+02  0.00000000000E+00 0. -1.
         11    1    1    2    0    0 -0.19238882265E+02  0.27277404879E+02 -0.16331188858E+03  0.16668822502E+03  0.00000000000E+00 0.  1.
</event>
<event>
 7    1  0.2873461E-009  0.7781920E+02  0.7561462E-02  0.1335357E+00
          2   -1    0    0  501    0  0.00000000000E+00  0.00000000000E+00  0.15182514118E+03  0.15182514118E+03  0.00000000000E+00 0. -1.
         -2   -1    0    0    0  501 -0.00000000000E+00 -0.00000000000E+00 -0.10341564121E+03  0.10341564121E+03  0.00000000000E+00 0.  1.
         25    2    1    2    0    0  0.29760492425E+02 -0.88166434388E+01 -0.32954912962E+02  0.13302931473E+03  0.12508937677E+03 0.  0.
          5    1    3    3  502    0 -0.28286583778E+01  0.27354342159E+02 -0.67619266685E+02  0.73117022438E+02  0.41800000000E+01 0. -1.
         -5    1    3    3    0  502  0.32589150803E+02 -0.36170985598E+02  0.34664353723E+02  0.59912292296E+02  0.41800000000E+01 0. -1.
        -11    1    1    2    0    0 -0.53942012606E+02  0.94661388524E+01  0.23691962110E+02  0.59671245818E+02  0.00000000000E+00 0.  1.
         11    1    1    2    0    0  0.24181520181E+02 -0.64949541359E+00  0.57672450829E+02  0.62540221835E+02  0.00000000000E+00 0. -1.
</event>
<event>
 7    1  0.2873461E-009  0.1477131E+03  0.7561462E-02  0.1203312E+00
         -1   -1    0    0    0  501 -0.00000000000E+00  0.00000000000E+00  0.81283139918E+03  0.81283139918E+03  0.00000000000E+00 0.  1.
          1   -1    0    0  501    0  0.00000000000E+00 -0.00000000000E+00 -0.37099167685E+02  0.37099167685E+02  0.00000000000E+00 0. -1.
         25    2    1    2    0    0 -0.10787784333E+03  0.48479685854E+02  0.24883662774E+03  0.30257949885E+03  0.12508707686E+03 0.  0.
          5    1    3    3  502    0 -0.81407831011E+02  0.89887744301E+02  0.19400177383E+03  0.22882570261E+03  0.41800000000E+01 0.  1.
         -5    1    3    3    0  502 -0.26470012322E+02 -0.41408058447E+02  0.54834853906E+02  0.73753796239E+02  0.41800000000E+01 0.  1.
        -11    1    1    2    0    0  0.12691760630E+02 -0.22921973478E+02  0.26220506603E+02  0.37067676249E+02  0.00000000000E+00 0. -1.
         11    1    1    2    0    0  0.95186082704E+02 -0.25557712376E+02  0.50067509715E+03  0.51028339177E+03  0.00000000000E+00 0.  1.
</event>
<event>
 7    1  0.2873461E-009  0.1842004E+03  0.7561462E-02  0.1163799E+00
          1   -1    0    0  501    0  0.00000000000E+00  0.00000000000E+00  0.52213035133E+03  0.52213035133E+03  0.00000000000E+00 0. -1.
         -1   -1    0    0    0  501 -0.00000000000E+00 -0.00000000000E+00 -0.84911684420E+02  0.84911684420E+02  0.00000000000E+00 0.  1.
         25    2    1    2    0    0  0.15736213172E+03 -0.33231744662E+02  0.34436648098E+03  0.40012868222E+03  0.12508996667E+03 0.  0.
          5    1    3    3  502    0  0.11644474399E+03 -0.80037927513E+02  0.23377153076E+03  0.27318866967E+03  0.41800000000E+01 0. -1.
         -5    1    3    3    0  502  0.40917387733E+02  0.46806182851E+02  0.11059495022E+03  0.12694001255E+03  0.41800000000E+01 0. -1.
        -11    1    1    2    0    0 -0.15199936500E+02  0.15083936804E+02 -0.16178077868E+02  0.26838282780E+02  0.00000000000E+00 0.  1.
         11    1    1    2    0    0 -0.14216219522E+03  0.18147807859E+02  0.10903026379E+03  0.18007507074E+03  0.00000000000E+00 0. -1.
</event>
<event>
 7    1  0.2873461E-009  0.1472002E+03  0.7561462E-02  0.1203956E+00
          1   -1    0    0  501    0  0.00000000000E+00  0.00000000000E+00  0.21648804502E+03  0.21648804502E+03  0.00000000000E+00 0. -1.
         -1   -1    0    0    0  501 -0.00000000000E+00 -0.00000000000E+00 -0.11474891947E+03  0.11474891947E+03  0.00000000000E+00 0.  1.
         25    2    1    2    0    0  0.10538871315E+03  0.42827882346E+02  0.48436771641E+02  0.17588009232E+03  0.12508668060E+03 0.  0.
          5    1    3    3  502    0  0.11895849787E+03  0.65752773487E+02  0.21335950892E+02  0.13764899796E+03  0.41800000000E+01 0. -1.
         -5    1    3    3    0  502 -0.13569784723E+02 -0.22924891141E+02  0.27100820749E+02  0.38231094367E+02  0.41800000000E+01 0. -1.
        -11    1    1    2    0    0 -0.73593495814E+02 -0.60324233719E+02  0.54695261568E+01  0.95314907104E+02  0.00000000000E+00 0. -1.
         11    1    1    2    0    0 -0.31795217338E+02  0.17496351373E+02  0.47832827754E+02  0.60041965056E+02  0.00000000000E+00 0.  1.
</event>
<event>
 7    1  0.2873461E-009  0.1236801E+03  0.7561462E-02  0.1237147E+00
          1   -1    0    0  501    0  0.00000000000E+00  0.00000000000E+00  0.83864612819E+02  0.83864612819E+02  0.00000000000E+00 0. -1.
         -1   -1    0    0    0  501 -0.00000000000E+00 -0.00000000000E+00 -0.27006718395E+03  0.27006718395E+03  0.00000000000E+00 0.  1.
         25    2    1    2    0    0  0.37618600241E+02  0.10205847722E+03 -0.81922901391E+02  0.18490535477E+03  0.12509011390E+03 0.  0.
          5    1    3    3  502    0  0.35242366626E+02  0.41303281171E+02  0.26473986965E+02  0.60550225654E+02  0.41800000000E+01 0.  1.
         -5    1    3    3    0  502  0.23762336151E+01  0.60755196049E+02 -0.10839688836E+03  0.12435512912E+03  0.41800000000E+01 0.  1.
        -11    1    1    2    0    0 -0.50402516775E+01 -0.99120492806E+02 -0.87256862295E+02  0.13215156544E+03  0.00000000000E+00 0. -1.
         11    1    1    2    0    0 -0.32578348564E+02 -0.29379844136E+01 -0.17022807445E+02  0.36874876554E+02  0.00000000000E+00 0.  1.
</event>
<event>
 7    1  0.2873461E-009  0.8257723E+02  0.7561462E-02  0.1321893E+00
         -1   -1    0    0    0  501 -0.00000000000E+00  0.00000000000E+00  0.37469840700E+03  0.37469840700E+03  0.00000000000E+00 0.  1.
          1   -1    0    0  501    0  0.00000000000E+00 -0.00000000000E+00 -0.35384123377E+02  0.35384123377E+02  0.00000000000E+00 0. -1.
         25    2    1    2    0    0  0.13933416741E+02 -0.64446226631E+01  0.26234344562E+03  0.29104346198E+03  0.12508613048E+03 0.  0.
          5    1    3    3  502    0 -0.30538286310E+02  0.39193735881E+02  0.55700028976E+02  0.74757618280E+02  0.41800000000E+01 0.  1.
         -5    1    3    3    0  502  0.44471703051E+02 -0.45638358544E+02  0.20664341664E+03  0.21628584370E+03  0.41800000000E+01 0.  1.
        -11    1    1    2    0    0 -0.56489476801E+01  0.27882989776E+02  0.88760409766E+02  0.93208272544E+02  0.00000000000E+00 0.  1.
         11    1    1    2    0    0 -0.82844690605E+01 -0.21438367113E+02 -0.11789571762E+02  0.25830795853E+02  0.00000000000E+00 0. -1.
</event>
<event>
 7    1  0.2873461E-009  0.1015876E+03  0.7561462E-02  0.1276992E+00
          1   -1    0    0  501    0  0.00000000000E+00  0.00000000000E+00  0.57462140854E+02  0.57462140854E+02  0.00000000000E+00 0. -1.
         -1   -1    0    0    0  501 -0.00000000000E+00 -0.00000000000E+00 -0.32122577677E+03  0.32122577677E+03  0.00000000000E+00 0.  1.
         25    2    1    2    0    0 -0.21209607514E+02 -0.75486333749E+02 -0.12221424075E+03  0.19165432059E+03  0.12508806467E+03 0.  0.
          5    1    3    3  502    0  0.18453191986E+02  0.15791525094E+02 -0.79570429136E+02  0.83299568740E+02  0.41800000000E+01 0. -1.
         -5    1    3    3    0  502 -0.39662799500E+02 -0.91277858843E+02 -0.42643811616E+02  0.10835475185E+03  0.41800000000E+01 0. -1.
        -11    1    1    2    0    0  0.20474567973E+01  0.22176659993E+02  0.10611380974E+02  0.24669773691E+02  0.00000000000E+00 0. -1.
         11    1    1    2    0    0  0.19162150717E+02  0.53309673755E+02 -0.15216077614E+03  0.16236382334E+03  0.00000000000E+00 0.  1.
</event>
<event>
 7    1  0.2873461E-009  0.1076620E+03  0.7561462E-02  0.1264962E+00
         -1   -1    0    0    0  501 -0.00000000000E+00  0.00000000000E+00  0.58738486897E+02  0.58738486897E+02  0.00000000000E+00 0.  1.
          1   -1    0    0  501    0  0.00000000000E+00 -0.00000000000E+00 -0.27462136655E+03  0.27462136655E+03  0.00000000000E+00 0. -1.
         25    2    1    2    0    0 -0.42619690112E+02  0.36922812117E+02 -0.16653181219E+03  0.21577812787E+03  0.12509046310E+03 0.  0.
          5    1    3    3  502    0 -0.74879287565E+02 -0.10275749563E+01 -0.14086792771E+03  0.15959075497E+03  0.41800000000E+01 0.  1.
         -5    1    3    3    0  502  0.32259597453E+02  0.37950387073E+02 -0.25663884484E+02  0.56187372902E+02  0.41800000000E+01 0.  1.
        -11    1    1    2    0    0  0.62475435062E+02 -0.30040305306E+02 -0.62167945974E+01  0.69600635515E+02  0.00000000000E+00 0. -1.
         11    1    1    2    0    0 -0.19855744950E+02 -0.68825068105E+01 -0.43134272870E+02  0.47981090062E+02  0.00000000000E+00 0.  1.
</event>
<event>
 7    1  0.2873461E-009  0.1112923E+03  0.7561462E-02  0.1258195E+00
         -2   -1    0    0    0  501 -0.00000000000E+00  0.00000000000E+00  0.19838515666E+02  0.19838515666E+02  0.00000000000E+00 0.  1.
          2   -1    0    0  501    0  0.00000000000E+00 -0.00000000000E+00 -0.65747950896E+03  0.65747950896E+03  0.00000000000E+00 0. -1.
         25    2    1    2    0    0  0.19872653504E+02  0.25417781870E+02 -0.41881493091E+03  0.43828599959E+03  0.12509070746E+03 0.  0.
          5    1    3    3  502    0  0.31087813062E+02 -0.45217685969E+02 -0.14037466710E+03  0.15077669186E+03  0.41800000000E+01 0.  1.
         -5    1    3    3    0  502 -0.11215159559E+02  0.70635467839E+02 -0.27844026380E+03  0.28750930772E+03  0.41800000000E+01 0.  1.
        -11    1    1    2    0    0  0.35906334935E+02 -0.16130092158E+02 -0.81042139797E+02  0.90095911030E+02  0.00000000000E+00 0.  1.
         11    1    1    2    0    0 -0.55778988439E+02 -0.92876897122E+01 -0.13778392259E+03  0.14893611401E+03  0.00000000000E+00 0. -1.
</event>
<event>
 7    1  0.2873461E-009  0.1287940E+03  0.7561462E-02  0.1229256E+00
          2   -1    0    0  501    0  0.00000000000E+00  0.00000000000E+00  0.21467458255E+03  0.21467458255E+03  0.00000000000E+00 0. -1.
         -2   -1    0    0    0  501 -0.00000000000E+00 -0.00000000000E+00 -0.90837979385E+02  0.90837979385E+02  0.00000000000E+00 0.  1.
         25    2    1    2    0    0 -0.78289274264E+02  0.17318436403E+02  0.10515188683E+03  0.18202641174E+03  0.12509019371E+03 0.  0.
          5    1    3    3  502    0 -0.54804476466E+02  0.66953173824E+02  0.36456956989E+02  0.93983191257E+02  0.41800000000E+01 0. -1.
         -5    1    3    3    0  502 -0.23484797798E+02 -0.49634737421E+02  0.68694929841E+02  0.88043220480E+02  0.41800000000E+01 0. -1.
        -11    1    1    2    0    0  0.16988203747E+02  0.32652023847E+02  0.24451324111E+02  0.44188471106E+02  0.00000000000E+00 0.  1.
         11    1    1    2    0    0  0.61301070517E+02 -0.49970460250E+02 -0.57666077778E+01  0.79297679092E+02  0.00000000000E+00 0. -1.
</event>
<event>
 7    1  0.2873461E-009  0.9338640E+02  0.7561462E-02  0.1294852E+00
         -2   -1    0    0    0  501 -0.00000000000E+00  0.00000000000E+00  0.31185375840E+02  0.31185375840E+02  0.00000000000E+00 0. -1.
          2   -1    0    0  501    0  0.00000000000E+00 -0.00000000000E+00 -0.55675745660E+03  0.55675745660E+03  0.00000000000E+00 0.  1.
         25    2    1    2    0    0 -0.36906209863E+02 -0.58934485363E+02 -0.33811885447E+03  0.36716106714E+03  0.12509015782E+03 0.  0.
          5    1    3    3  502    0 -0.18618959040E+02 -0.56590886317E+02 -0.48523474083E+02  0.76949294909E+02  0.41800000000E+01 0. -1.
         -5    1    3    3    0  502 -0.18287250823E+02 -0.23435990462E+01 -0.28959538038E+03  0.29021177223E+03  0.41800000000E+01 0. -1.
        -11    1    1    2    0    0  0.63603934239E+02  0.45902691415E+02 -0.16760994360E+03  0.18505569627E+03  0.00000000000E+00 0.  1.
         11    1    1    2    0    0 -0.26697724376E+02  0.13031793948E+02 -0.19843282694E+02  0.35726069031E+02  0.00000000000E+00 0. -1.
</event>
<event>
 7    1  0.3681259E-009  0.1184854E+03  0.7561462E-02  0.1245617E+00
          1   -1    0    0  501    0  0.00000000000E+00  0.00000000000E+00  0.42599284727E+03  0.42599284727E+03  0.00000000000E+00 0. -1.
         -1   -1    0    0    0  501 -0.00000000000E+00 -0.00000000000E+00 -0.53021297083E+02  0.53021297083E+02  0.00000000000E+00 0.  1.
         25    2    1    2    0    0 -0.16190979281E+02 -0.10186861137E+03  0.18626257759E+03  0.24695313335E+03  0.12511091268E+03 0.  0.
          5    1    3    3  502    0  0.31254915899E+02 -0.19189856521E+02 -0.84254034406E+00  0.36922928316E+02  0.41800000000E+01 0.  1.
         -5    1    3    3    0  502 -0.47445895180E+02 -0.82678754844E+02  0.18710511793E+03  0.21003020504E+03  0.41800000000E+01 0.  1.
        -11    1    1    2    0    0 -0.32689702777E+01  0.30225994653E+02 -0.77675925399E+00  0.30412173128E+02  0.00000000000E+00 0. -1.
         11    1    1    2    0    0  0.19459949558E+02  0.71642616713E+02  0.18748573186E+03  0.20164883788E+03  0.00000000000E+00 0.  1.
</event>
<event>
 7    1  0.2873461E-009  0.3080661E+03  0.7561462E-02  0.1081277E+00
         -3   -1    0    0    0  501 -0.00000000000E+00  0.00000000000E+00  0.13032041178E+03  0.13032041178E+03  0.00000000000E+00 0.  1.
          3   -1    0    0  501    0  0.00000000000E+00 -0.00000000000E+00 -0.86472137325E+03  0.86472137325E+03  0.00000000000E+00 0. -1.
         25    2    1    2    0    0  0.19519962386E+03  0.23240023442E+03 -0.23733439990E+03  0.40507770531E+03  0.12509023883E+03 0.  0.
          5    1    3    3  502    0  0.72154263078E+02  0.44979276910E+02 -0.99259815329E+01  0.85705137192E+02  0.41800000000E+01 0.  1.
         -5    1    3    3    0  502  0.12304536078E+03  0.18742095750E+03 -0.22740841836E+03  0.31937256812E+03  0.41800000000E+01 0.  1.
        -11    1    1    2    0    0 -0.10027203225E+03 -0.85061281625E+02 -0.29173750110E+03  0.32000104942E+03  0.00000000000E+00 0.  1.
         11    1    1    2    0    0 -0.94927591606E+02 -0.14733895279E+03 -0.20532906047E+03  0.26996303030E+03  0.00000000000E+00 0. -1.
</event>
<event>
 7    1  0.2873461E-009  0.1291549E+03  0.7561462E-02  0.1228715E+00
          1   -1    0    0  501    0  0.00000000000E+00  0.00000000000E+00  0.20552854191E+03  0.20552854191E+03  0.00000000000E+00 0. -1.
         -1   -1    0    0    0  501 -0.00000000000E+00 -0.00000000000E+00 -0.11438863683E+03  0.11438863683E+03  0.00000000000E+00 0.  1.
         25    2    1    2    0    0  0.80598220715E+02  0.57376715993E+02  0.40953633589E+01  0.15954208799E+03  0.12509494442E+03 0.  0.
          5    1    3    3  502    0 -0.33855142771E+02  0.11534565035E+02 -0.16232040978E+01  0.36046138130E+02  0.41800000000E+01 0.  1.
         -5    1    3    3    0  502  0.11445336349E+03  0.45842150958E+02  0.57185674567E+01  0.12349594986E+03  0.41800000000E+01 0.  1.
        -11    1    1    2    0    0 -0.17631680792E+02 -0.12267307033E+02 -0.19256404725E+02  0.28847393510E+02  0.00000000000E+00 0.  1.
         11    1    1    2    0    0 -0.62966539924E+02 -0.45109408960E+02  0.10630094645E+03  0.13152769724E+03  0.00000000000E+00 0. -1.
</event>
<event>
 7    1  0.2873461E-009  0.1059466E+03  0.7561462E-02  0.1268266E+00
          1   -1    0    0  501    0  0.00000000000E+00  0.00000000000E+00  0.13672287803E+03  0.13672287803E+03  0.00000000000E+00 0. -1.
         -1   -1    0    0    0  501 -0.00000000000E+00 -0.00000000000E+00 -0.13494802846E+03  0.13494802846E+03  0.00000000000E+00 0.  1.
         25    2    1    2    0    0 -0.42246028821E+02 -0.83460417818E+01  0.72609068970E+02  0.15090402516E+03  0.12508223115E+03 0.  0.
          5    1    3    3  502    0  0.34071891512E+01 -0.61661467904E+02  0.31454195665E+02  0.69430428394E+02  0.41800000000E+01 0. -1.
         -5    1    3    3    0  502 -0.45653217972E+02  0.53315426122E+02  0.41154873305E+02  0.81473596769E+02  0.41800000000E+01 0. -1.
        -11    1    1    2    0    0  0.44802826281E+02  0.32527198799E+02 -0.77785174468E+02  0.95476935809E+02  0.00000000000E+00 0.  1.
         11    1    1    2    0    0 -0.25567974602E+01 -0.24181157017E+02  0.69509550612E+01  0.25289945516E+02  0.00000000000E+00 0. -1.
</event>
<event>
 7    1  0.2873461E-009  0.1660804E+03  0.7561462E-02  0.1181998E+00
         -1   -1    0    0    0  501 -0.00000000000E+00  0.00000000000E+00  0.33932734802E+03  0.33932734802E+03  0.00000000000E+00 0.  1.
          1   -1    0    0  501    0  0.00000000000E+00 -0.00000000000E+00 -0.94308807357E+02  0.94308807357E+02  0.00000000000E+00 0. -1.
         25    2    1    2    0    0  0.10197925600E+03  0.97204535432E+02  0.17564461009E+03  0.25757556270E+03  0.12508257706E+03 0.  0.
          5    1    3    3  502    0 -0.20995437084E+02  0.16878906529E+02  0.74110028839E+02  0.78965021614E+02  0.41800000000E+01 0. -1.
         -5    1    3    3    0  502  0.12297469309E+03  0.80325628902E+02  0.10153458125E+03  0.17861054109E+03  0.41800000000E+01 0. -1.
        -11    1    1    2    0    0 -0.70714632184E+02 -0.18242932157E+02  0.51260620493E+02  0.89224520127E+02  0.00000000000E+00 0.  1.
         11    1    1    2    0    0 -0.31264623819E+02 -0.78961603274E+02  0.18113310087E+02  0.86836072553E+02  0.00000000000E+00 0. -1.
</event>
<event>
 7    1  0.2873461E-009  0.8642713E+02  0.7561462E-02  0.1311742E+00
         -1   -1    0    0    0  501 -0.00000000000E+00  0.00000000000E+00  0.89248882889E+02  0.89248882889E+02  0.00000000000E+00 0.  1.
          1   -1    0    0  501    0  0.00000000000E+00 -0.00000000000E+00 -0.19195073217E+03  0.19195073217E+03  0.00000000000E+00 0. -1.
         25    2    1    2    0    0  0.39350207696E+01  0.32895918030E+02  0.11172549501E+02  0.12988142016E+03  0.12508689631E+03 0.  0.
          5    1    3    3  502    0  0.42648572011E+02  0.17876782054E+02 -0.41777954526E+02  0.62460787023E+02  0.41800000000E+01 0.  1.
         -5    1    3    3    0  502 -0.38713551241E+02  0.15019135975E+02  0.52950504027E+02  0.67420633132E+02  0.41800000000E+01 0.  1.
        -11    1    1    2    0    0  0.31990426343E+02  0.51023977803E+01 -0.82050593162E+01  0.33417732405E+02  0.00000000000E+00 0.  1.
         11    1    1    2    0    0 -0.35925447112E+02 -0.37998315810E+02 -0.10566933947E+03  0.11790046250E+03  0.00000000000E+00 0. -1.
</event>
<event>
 7    1  0.2873461E-009  0.9341617E+02  0.7561462E-02  0.1294784E+00
         -2   -1    0    0    0  501 -0.00000000000E+00  0.00000000000E+00  0.11024400372E+03  0.11024400372E+03  0.00000000000E+00 0. -1.
          2   -1    0    0  501    0  0.00000000000E+00 -0.00000000000E+00 -0.16085635140E+03  0.16085635140E+03  0.00000000000E+00 0.  1.
         25    2    1    2    0    0 -0.49300129065E+02 -0.45467034239E+02 -0.69625719609E+02  0.15809025866E+03  0.12508810944E+03 0.  0.
          5    1    3    3  502    0  0.19440902056E+02 -0.54813020226E+01  0.26295623534E+02  0.33420436288E+02  0.41800000000E+01 0. -1.
         -5    1    3    3    0  502 -0.68741031122E+02 -0.39985732216E+02 -0.95921343143E+02  0.12466982237E+03  0.41800000000E+01 0. -1.
        -11    1    1    2    0    0  0.29396021921E+02  0.56590182940E+02 -0.20845492066E+02  0.67090308163E+02  0.00000000000E+00 0.  1.
         11    1    1    2    0    0  0.19904107145E+02 -0.11123148701E+02  0.39858863997E+02  0.45919788299E+02  0.00000000000E+00 0. -1.
</event>
<event>
 7    1  0.2873461E-009  0.1356888E+03  0.7561462E-02  0.1219251E+00
         -1   -1    0    0    0  501 -0.00000000000E+00  0.00000000000E+00  0.29369726169E+02  0.29369726169E+02  0.00000000000E+00 0.  1.
          1   -1    0    0  501    0  0.00000000000E+00 -0.00000000000E+00 -0.72526816901E+03  0.72526816901E+03  0.00000000000E+00 0. -1.
         25    2    1    2    0    0  0.62991905239E+02  0.55912591127E+02 -0.25473573898E+03  0.29602804525E+03  0.12509240139E+03 0.  0.
          5    1    3    3  502    0  0.70767674197E+01 -0.38615516169E+02 -0.50539651047E+02  0.64132421240E+02  0.41800000000E+01 0. -1.
         -5    1    3    3    0  502  0.55915137819E+02  0.94528107296E+02 -0.20419608794E+03  0.23189562401E+03  0.41800000000E+01 0. -1.
        -11    1    1    2    0    0 -0.20689431975E+02  0.23929718161E+02 -0.16613131261E+03  0.16911622346E+03  0.00000000000E+00 0.  1.
         11    1    1    2    0    0 -0.42302473263E+02 -0.79842309288E+02 -0.27503139125E+03  0.28949362648E+03  0.00000000000E+00 0. -1.
</event>
<event>
 7    1  0.2873461E-009  0.8009924E+02  0.7561462E-02  0.1328770E+00
          2   -1    0    0  501    0  0.00000000000E+00  0.00000000000E+00  0.20187068155E+03  0.20187068155E+03  0.00000000000E+00 0. -1.
         -2   -1    0    0    0  501 -0.00000000000E+00 -0.00000000000E+00 -0.89179670515E+02  0.89179670515E+02  0.00000000000E+00 0.  1.
         25    2    1    2    0    0 -0.10742585995E+02  0.21398773972E+02 -0.20045591384E+02  0.12892487542E+03  0.12508591882E+03 0.  0.
          5    1    3    3  502    0 -0.46070439948E+02 -0.21015200158E+02 -0.45306930240E+02  0.68075798949E+02  0.41800000000E+01 0.  1.
         -5    1    3    3    0  502  0.35327853954E+02  0.42413974131E+02  0.25261338856E+02  0.60849076471E+02  0.41800000000E+01 0.  1.
        -11    1    1    2    0    0 -0.74331688044E+01 -0.32093210491E+02  0.13674690306E+03  0.14065895512E+03  0.00000000000E+00 0. -1.
         11    1    1    2    0    0  0.18175754799E+02  0.10694436519E+02 -0.40103006484E+01  0.21466521522E+02  0.00000000000E+00 0.  1.
</event>
<event>
 7    1  0.2873461E-009  0.1062032E+03  0.7561462E-02  0.1267767E+00
          2   -1    0    0  501    0  0.00000000000E+00  0.00000000000E+00  0.46284073686E+03  0.46284073686E+03  0.00000000000E+00 0. -1.
         -2   -1    0    0    0  501 -0.00000000000E+00 -0.00000000000E+00 -0.80376929154E+02  0.80376929154E+02  0.00000000000E+00 0.  1.
         25    2    1    2    0    0 -0.62523980943E+02 -0.28028903109E+02  0.40396905140E+03  0.42840471121E+03  0.12507891308E+03 0.  0.
          5    1    3    3  502    0 -0.79812616735E+02 -0.28999412781E+02  0.40152142727E+03  0.41042410832E+03  0.41800000000E+01 0.  1.
         -5    1    3    3    0  502  0.17288635792E+02  0.97050967222E+00  0.24476241324E+01  0.17980602895E+02  0.41800000000E+01 0.  1.
        -11    1    1    2    0    0 -0.10424410390E+02  0.34783688226E+02  0.55147578842E+01  0.36728542758E+02  0.00000000000E+00 0. -1.
         11    1    1    2    0    0  0.72948391333E+02 -0.67547851175E+01 -0.27020001573E+02  0.78084412049E+02  0.00000000000E+00 0.  1.
</event>
<event>
 7    1  0.2873461E-009  0.3491450E+03  0.7561462E-02  0.1062967E+00
         -2   -1    0    0    0  501 -0.00000000000E+00  0.00000000000E+00  0.13662172384E+03  0.13662172384E+03  0.00000000000E+00 0.  1.
          2   -1    0    0  501    0  0.00000000000E+00 -0.00000000000E+00 -0.93401121166E+03  0.93401121166E+03  0.00000000000E+00 0. -1.
         25    2    1    2    0    0  0.15331059208E+03  0.30350856388E+03 -0.35690580000E+03  0.50857711652E+03  0.12508935760E+03 0.  0.
          5    1    3    3  502    0  0.10963405553E+03  0.28725435756E+03 -0.34098026228E+03  0.45915106853E+03  0.41800000000E+01 0.  1.
         -5    1    3    3    0  502  0.43676536554E+02  0.16254206320E+02 -0.15925537720E+02  0.49426047992E+02  0.41800000000E+01 0.  1.
        -11    1    1    2    0    0 -0.22868017500E+02 -0.97711255650E+02 -0.17483544269E+03  0.20158836208E+03  0.00000000000E+00 0.  1.
         11    1    1    2    0    0 -0.13044257458E+03 -0.20579730823E+03 -0.26564824514E+03  0.36046745690E+03  0.00000000000E+00 0. -1.
</event>
<event>
 7    1  0.2873461E-009  0.1189963E+03  0.7561462E-02  0.1244762E+00
          2   -1    0    0  501    0  0.00000000000E+00  0.00000000000E+00  0.53214617524E+03  0.53214617524E+03  0.00000000000E+00 0.  1.
         -2   -1    0    0    0  501 -0.00000000000E+00 -0.00000000000E+00 -0.47058959148E+02  0.47058959148E+02  0.00000000000E+00 0. -1.
         25    2    1    2    0    0 -0.47877395735E+02 -0.38730876788E+02  0.81714776790E+02  0.16160726258E+03  0.12508907520E+03 0.  0.
          5    1    3    3  502    0  0.39421565269E+02 -0.54116413240E+01  0.43929008937E+01  0.40250660222E+02  0.41800000000E+01 0. -1.
         -5    1    3    3    0  502 -0.87298961004E+02 -0.33319235464E+02  0.77321875896E+02  0.12135660236E+03  0.41800000000E+01 0. -1.
        -11    1    1    2    0    0  0.12549271215E+02  0.61269934765E+02  0.29151476636E+03  0.29814819825E+03  0.00000000000E+00 0.  1.
         11    1    1    2    0    0  0.35328124520E+02 -0.22539057976E+02  0.11185767295E+03  0.11944967356E+03  0.00000000000E+00 0. -1.
</event>
<event>
 7    1  0.2873461E-009  0.1502211E+03  0.7561462E-02  0.1200202E+00
          1   -1    0    0  501    0  0.00000000000E+00  0.00000000000E+00  0.36965945593E+03  0.36965945593E+03  0.00000000000E+00 0. -1.
         -1   -1    0    0    0  501 -0.00000000000E+00 -0.00000000000E+00 -0.81140516318E+02  0.81140516318E+02  0.00000000000E+00 0.  1.
         25    2    1    2    0    0  0.11288817938E+03 -0.72395454050E+02  0.13864267786E+03  0.22990149890E+03  0.12509222302E+03 0.  0.
          5    1    3    3  502    0  0.32863265316E+02 -0.42589241027E+02 -0.13285733798E+02  0.55568163377E+02  0.41800000000E+01 0.  1.
         -5    1    3    3    0  502  0.80024914065E+02 -0.29806213023E+02  0.15192841165E+03  0.17433333552E+03  0.41800000000E+01 0.  1.
        -11    1    1    2    0    0 -0.69684471574E+02 -0.75731681778E+01  0.79180255319E+02  0.10574871766E+03  0.00000000000E+00 0.  1.
         11    1    1    2    0    0 -0.43203707807E+02  0.79968622228E+02  0.70696006437E+02  0.11514975569E+03  0.00000000000E+00 0. -1.
</event>
<event>
 7    1  0.2873461E-009  0.8047198E+02  0.7561462E-02  0.1327717E+00
         -2   -1    0    0    0  501 -0.00000000000E+00  0.00000000000E+00  0.19261499015E+03  0.19261499015E+03  0.00000000000E+00 0.  1.
          2   -1    0    0  501    0  0.00000000000E+00 -0.00000000000E+00 -0.67174329282E+02  0.67174329282E+02  0.00000000000E+00 0. -1.
         25    2    1    2    0    0 -0.11807178959E+02  0.31215965107E+02  0.79299324274E+02  0.15182044781E+03  0.12508884679E+03 0.  0.
          5    1    3    3  502    0 -0.46026836255E+02  0.40522765654E+02  0.94727513558E+02  0.11292182436E+03  0.41800000000E+01 0.  1.
         -5    1    3    3    0  502  0.34219657296E+02 -0.93068005473E+01 -0.15428189283E+02  0.38898623452E+02  0.41800000000E+01 0.  1.
        -11    1    1    2    0    0 -0.14998226095E+02  0.74299788497E+01  0.57246549383E+02  0.59643262721E+02  0.00000000000E+00 0.  1.
         11    1    1    2    0    0  0.26805405054E+02 -0.38645943957E+02 -0.11105212789E+02  0.48325608900E+02  0.00000000000E+00 0. -1.
</event>
<event>
 7    1  0.2873461E-009  0.8964342E+02  0.7561462E-02  0.1303718E+00
          1   -1    0    0  501    0  0.00000000000E+00  0.00000000000E+00  0.35756549780E+03  0.35756549780E+03  0.00000000000E+00 0. -1.
         -1   -1    0    0    0  501 -0.00000000000E+00 -0.00000000000E+00 -0.37419845681E+02  0.37419845681E+02  0.00000000000E+00 0.  1.
         25    2    1    2    0    0  0.23122879879E+01  0.54508684394E+01  0.10133969495E+03  0.16109551091E+03  0.12508785401E+03 0.  0.
          5    1    3    3  502    0 -0.54021578431E+02  0.69570651482E+01  0.87111089481E+02  0.10282288657E+03  0.41800000000E+01 0. -1.
         -5    1    3    3    0  502  0.56333866419E+02 -0.15061967088E+01  0.14228605472E+02  0.58272624344E+02  0.41800000000E+01 0. -1.
        -11    1    1    2    0    0  0.31096921203E+02  0.80407143372E+01  0.17119561002E+03  0.17418268710E+03  0.00000000000E+00 0.  1.
         11    1    1    2    0    0 -0.33409209191E+02 -0.13491582777E+02  0.47610347143E+02  0.59707145465E+02  0.00000000000E+00 0. -1.
</event>
<event>
 7    1  0.2873461E-009  0.9887018E+02  0.7561462E-02  0.1282690E+00
         -2   -1    0    0    0  501 -0.00000000000E+00  0.00000000000E+00  0.21149256056E+02  0.21149256056E+02  0.00000000000E+00 0.  1.
          2   -1    0    0  501    0  0.00000000000E+00 -0.00000000000E+00 -0.83742054086E+03  0.83742054086E+03  0.00000000000E+00 0. -1.
         25    2    1    2    0    0 -0.21718426157E+02  0.11345928364E+02 -0.68530758919E+03  0.69707087197E+03  0.12514347217E+03 0.  0.
          5    1    3    3  502    0  0.42271761507E+02  0.38785294564E+02 -0.33149343537E+03  0.33644698095E+03  0.41800000000E+01 0.  1.
         -5    1    3    3    0  502 -0.63990187664E+02 -0.27439366200E+02 -0.35381415382E+03  0.36062389103E+03  0.41800000000E+01 0.  1.
        -11    1    1    2    0    0 -0.22491951077E+02  0.55050340835E+01 -0.10501450167E+03  0.10753715091E+03  0.00000000000E+00 0. -1.
         11    1    1    2    0    0  0.44210377234E+02 -0.16850962447E+02 -0.25949193936E+02  0.53961774030E+02  0.00000000000E+00 0.  1.
</event>
<event>
 7    1  0.2873461E-009  0.1071407E+03  0.7561462E-02  0.1265958E+00
          2   -1    0    0  501    0  0.00000000000E+00  0.00000000000E+00  0.53558931449E+03  0.53558931449E+03  0.00000000000E+00 0. -1.
         -2   -1    0    0    0  501 -0.00000000000E+00 -0.00000000000E+00 -0.27952604861E+02  0.27952604861E+02  0.00000000000E+00 0.  1.
         25    2    1    2    0    0 -0.38148529311E+02  0.34034259913E+02  0.32837557971E+03  0.35509343165E+03  0.12508869939E+03 0.  0.
          5    1    3    3  502    0 -0.73052131036E+02  0.32851763926E+02  0.29804561521E+03  0.30864949925E+03  0.41800000000E+01 0. -1.
         -5    1    3    3    0  502  0.34903601725E+02  0.11824959871E+01  0.30329964501E+02  0.46443932400E+02  0.41800000000E+01 0. -1.
        -11    1    1    2    0    0 -0.20699510074E+02 -0.34288248881E+02  0.37125353211E+02  0.54611771439E+02  0.00000000000E+00 0. -1.
         11    1    1    2    0    0  0.58848039385E+02  0.25398896736E+00  0.14213577671E+03  0.15383671626E+03  0.00000000000E+00 0.  1.
</event>
<event>
 6    1  0.2873461E-009  0.1330252E+03  0.7561462E-02  0.1223035E+00
         -2   -1    0    0    0  501 -0.00000000000E+00  0.00000000000E+00  0.12590230477E+03  0.12590230477E+03  0.00000000000E+00 0.  1.
          2   -1    0    0  501    0  0.00000000000E+00 -0.00000000000E+00 -0.45339558327E+03  0.45339558327E+03  0.00000000000E+00 0. -1.
          5    1    1    2  502    0 -0.46084306137E+02  0.23589727616E+02 -0.29952702562E+02  0.59957279057E+02  0.41800000000E+01 0. -1.
         -5    1    1    2    0  502 -0.38023357050E+02  0.64205012376E+02 -0.35313759114E+03  0.36095940211E+03  0.41800000000E+01 0. -1.
        -11    1    1    2    0    0  0.91117951649E+02 -0.56298380007E+02  0.64345314545E+02  0.12494922252E+03  0.00000000000E+00 0.  1.
         11    1    1    2    0    0 -0.70102884616E+01 -0.31496359985E+02 -0.87482993444E+01  0.33431984357E+02  0.00000000000E+00 0. -1.
</event>
<event>
 7    1  0.2873461E-009  0.1035792E+03  0.7561462E-02  0.1272945E+00
          2   -1    0    0  501    0  0.00000000000E+00  0.00000000000E+00  0.28600484946E+03  0.28600484946E+03  0.00000000000E+00 0. -1.
         -2   -1    0    0    0  501 -0.00000000000E+00 -0.00000000000E+00 -0.57340881026E+02  0.57340881026E+02  0.00000000000E+00 0.  1.
         25    2    1    2    0    0  0.53668943264E+02 -0.16879377115E+02  0.76583631246E+02  0.15708894559E+03  0.12508643176E+03 0.  0.
          5    1    3    3  502    0  0.75042695860E+02  0.33461380668E+00  0.96940975314E+02  0.12266435205E+03  0.41800000000E+01 0.  1.
         -5    1    3    3    0  502 -0.21373752595E+02 -0.17213990922E+02 -0.20357344068E+02  0.34424593548E+02  0.41800000000E+01 0.  1.
        -11    1    1    2    0    0 -0.77267968402E+02  0.40419086514E+01  0.13085572851E+03  0.15201939892E+03  0.00000000000E+00 0.  1.
         11    1    1    2    0    0  0.23599025138E+02  0.12837468464E+02  0.21224608678E+02  0.34237385962E+02  0.00000000000E+00 0. -1.
</event>
<event>
 7    1  0.2873461E-009  0.1152419E+03  0.7561462E-02  0.1251159E+00
         -2   -1    0    0    0  501 -0.00000000000E+00  0.00000000000E+00  0.63473375751E+02  0.63473375751E+02  0.00000000000E+00 0. -1.
          2   -1    0    0  501    0  0.00000000000E+00 -0.00000000000E+00 -0.24315090055E+03  0.24315090055E+03  0.00000000000E+00 0.  1.
         25    2    1    2    0    0 -0.64645155077E+02 -0.56452479009E+01 -0.82404423451E+02  0.16324728959E+03  0.12509325984E+03 0.  0.
          5    1    3    3  502    0  0.96249961868E+01 -0.47753937320E+02 -0.72499638356E+01  0.49427861139E+02  0.41800000000E+01 0.  1.
         -5    1    3    3    0  502 -0.74270151264E+02  0.42108689419E+02 -0.75154459615E+02  0.11381942845E+03  0.41800000000E+01 0.  1.
        -11    1    1    2    0    0  0.52532085768E+02  0.35829474782E+02 -0.89752218367E+02  0.10999469078E+03  0.00000000000E+00 0.  1.
         11    1    1    2    0    0  0.12113069309E+02 -0.30184226881E+02 -0.75208829805E+01  0.33382295926E+02  0.00000000000E+00 0. -1.
</event>
<event>
 7    1  0.2873461E-009  0.9053087E+02  0.7561462E-02  0.1301571E+00
         -2   -1    0    0    0  501 -0.00000000000E+00  0.00000000000E+00  0.45259302143E+02  0.45259302143E+02  0.00000000000E+00 0. -1.
          2   -1    0    0  501    0  0.00000000000E+00 -0.00000000000E+00 -0.34502047229E+03  0.34502047229E+03  0.00000000000E+00 0.  1.
         25    2    1    2    0    0  0.56394521918E+02 -0.23255151224E+02 -0.17466700960E+03  0.22333155241E+03  0.12508906387E+03 0.  0.
          5    1    3    3  502    0 -0.23072864645E+02 -0.85417350304E+01 -0.12696152286E+03  0.12939095411E+03  0.41800000000E+01 0.  1.
         -5    1    3    3    0  502  0.79467386563E+02 -0.14713416194E+02 -0.47705486738E+02  0.93940598296E+02  0.41800000000E+01 0.  1.
        -11    1    1    2    0    0 -0.28955928083E+02  0.34921034950E+02 -0.79329725162E+01  0.46052757855E+02  0.00000000000E+00 0. -1.
         11    1    1    2    0    0 -0.27438593835E+02 -0.11665883726E+02 -0.11716118804E+03  0.12089546417E+03  0.00000000000E+00 0.  1.
</event>
<event>
 7    1  0.2873461E-009  0.7288190E+02  0.7561462E-02  0.1350558E+00
          1   -1    0    0  501    0  0.00000000000E+00  0.00000000000E+00  0.15603789058E+03  0.15603789058E+03  0.00000000000E+00 0. -1.
         -1   -1    0    0    0  501 -0.00000000000E+00 -0.00000000000E+00 -0.14301664218E+03  0.14301664218E+03  0.00000000000E+00 0.  1.
         25    2    1    2    0    0  0.35542934298E+02 -0.12699324938E+02 -0.88131791710E+02  0.15760427246E+03  0.12508925196E+03 0.  0.
          5    1    3    3  502    0  0.24140866326E+02 -0.39361754097E+02 -0.11109380239E+03  0.12038037399E+03  0.41800000000E+01 0. -1.
         -5    1    3    3    0  502  0.11402067972E+02  0.26662429159E+02  0.22962010680E+02  0.37223898468E+02  0.41800000000E+01 0. -1.
        -11    1    1    2    0    0  0.14807301160E+02 -0.65584521207E+01  0.83004929046E+02  0.84570016600E+02  0.00000000000E+00 0. -1.
         11    1    1    2    0    0 -0.50350235458E+02  0.19257777058E+02  0.18148111071E+02  0.56880243700E+02  0.00000000000E+00 0.  1.
</event>
<event>
 7    1  0.2873461E-009  0.1355365E+03  0.7561462E-02  0.1219464E+00
          2   -1    0    0  501    0  0.00000000000E+00  0.00000000000E+00  0.57150322768E+03  0.57150322768E+03  0.00000000000E+00 0. -1.
         -2   -1    0    0    0  501 -0.00000000000E+00 -0.00000000000E+00 -0.39381835729E+02  0.39381835729E+02  0.00000000000E+00 0.  1.
         25    2    1    2    0    0  0.61105791320E+02  0.71692989023E+02  0.20128142285E+03  0.25502083573E+03  0.12509041955E+03 0.  0.
          5    1    3    3  502    0  0.77845725873E+02  0.91954317533E+02  0.19224395369E+03  0.22691576340E+03  0.41800000000E+01 0. -1.
         -5    1    3    3    0  502 -0.16739934553E+02 -0.20261328509E+02  0.90374691629E+01  0.28105072330E+02  0.41800000000E+01 0. -1.
        -11    1    1    2    0    0 -0.25120212039E+02 -0.82576025956E+02  0.16960457864E+03  0.19030380504E+03  0.00000000000E+00 0.  1.
         11    1    1    2    0    0 -0.35985579281E+02  0.10883036933E+02  0.16123539045E+03  0.16556042264E+03  0.00000000000E+00 0. -1.
</event>
<event>
 7    1  0.2873461E-009  0.9446826E+02  0.7561462E-02  0.1292378E+00
         -1   -1    0    0    0  501 -0.00000000000E+00  0.00000000000E+00  0.44451694727E+03  0.44451694727E+03  0.00000000000E+00 0.  1.
          1   -1    0    0  501    0  0.00000000000E+00 -0.00000000000E+00 -0.39306532444E+02  0.39306532444E+02  0.00000000000E+00 0. -1.
         25    2    1    2    0    0  0.32983702725E+02  0.16952895044E+02  0.34500010217E+03  0.36884738693E+03  0.12509196237E+03 0.  0.
          5    1    3    3  502    0  0.78619202941E+02  0.27544516830E+02  0.21682645026E+03  0.23231629605E+03  0.41800000000E+01 0.  1.
         -5    1    3    3    0  502 -0.45635500216E+02 -0.10591621785E+02  0.12817365191E+03  0.13653109088E+03  0.41800000000E+01 0.  1.
        -11    1    1    2    0    0  0.22592096435E+01  0.12413938224E+02  0.67374200532E+02  0.68545552648E+02  0.00000000000E+00 0.  1.
         11    1    1    2    0    0 -0.35242912369E+02 -0.29366833268E+02 -0.71638878737E+01  0.46430540142E+02  0.00000000000E+00 0. -1.
</event>
<event>
 7    1  0.2873461E-009  0.8621680E+02  0.7561462E-02  0.1312281E+00
          1   -1    0    0  501    0  0.00000000000E+00  0.00000000000E+00  0.85342849708E+02  0.85342849708E+02  0.00000000000E+00 0. -1.
         -1   -1    0    0    0  501 -0.00000000000E+00 -0.00000000000E+00 -0.19985627965E+03  0.19985627965E+03  0.00000000000E+00 0.  1.
         25    2    1    2    0    0 -0.50384223117E+02 -0.26005740503E+02 -0.13871486838E+02  0.13805780515E+03  0.12511063479E+03 0.  0.
          5    1    3    3  502    0  0.15473155172E+02 -0.39080684946E+02  0.35041583059E+02  0.54882633047E+02  0.41800000000E+01 0.  1.
         -5    1    3    3    0  502 -0.65857378290E+02  0.13074944444E+02 -0.48913069896E+02  0.83175172102E+02  0.41800000000E+01 0.  1.
        -11    1    1    2    0    0  0.28012208862E+02  0.29035081140E+02 -0.11398669110E+03  0.12091602677E+03  0.00000000000E+00 0.  1.
         11    1    1    2    0    0  0.22372014255E+02 -0.30293406373E+01  0.13344747998E+02  0.26225297437E+02  0.00000000000E+00 0. -1.
</event>
<event>
 7    1  0.2873461E-009  0.1082170E+03  0.7561462E-02  0.1263908E+00
          2   -1    0    0  501    0  0.00000000000E+00  0.00000000000E+00  0.91604985099E+03  0.91604985099E+03  0.00000000000E+00 0. -1.
         -2   -1    0    0    0  501 -0.00000000000E+00 -0.00000000000E+00 -0.18571491450E+02  0.18571491450E+02  0.00000000000E+00 0.  1.
         25    2    1    2    0    0  0.47951957028E+02 -0.46684443070E+02  0.51613309540E+03  0.53527618835E+03  0.12509355795E+03 0.  0.
          5    1    3    3  502    0  0.71375943564E+02 -0.51458029912E+02  0.49594832469E+03  0.50371089657E+03  0.41800000000E+01 0.  1.
         -5    1    3    3    0  502 -0.23423986536E+02  0.47735868420E+01  0.20184770710E+02  0.31565291780E+02  0.41800000000E+01 0.  1.
        -11    1    1    2    0    0  0.22190007277E+02  0.59942444533E+01  0.25298698487E+02  0.34181157597E+02  0.00000000000E+00 0. -1.
         11    1    1    2    0    0 -0.70141964306E+02  0.40690198617E+02  0.35604656566E+03  0.36516399649E+03  0.00000000000E+00 0.  1.
</event>
<event>
 7    1  0.2873461E-009  0.1441287E+03  0.7561462E-02  0.1207879E+00
         -1   -1    0    0    0  501 -0.00000000000E+00  0.00000000000E+00  0.12163276624E+02  0.12163276624E+02  0.00000000000E+00 0.  1.
          1   -1    0    0  501    0  0.00000000000E+00 -0.00000000000E+00 -0.19136315352E+04  0.19136315352E+04  0.00000000000E+00 0. -1.
         25    2    1    2    0    0  0.95242421501E+02  0.18083270991E+02 -0.11593329116E+04  0.11700849666E+04  0.12509158945E+03 0.  0.
          5    1    3    3  502    0  0.99128352416E+02  0.55660293219E+02 -0.99133702602E+03  0.99784320915E+03  0.41800000000E+01 0.  1.
         -5    1    3    3    0  502 -0.38859309151E+01 -0.37577022228E+02 -0.16799588555E+03  0.17224175748E+03  0.41800000000E+01 0.  1.
        -11    1    1    2    0    0  0.95372106198E+01  0.22253434900E+02 -0.65680302195E+02  0.70000541767E+02  0.00000000000E+00 0.  1.
         11    1    1    2    0    0 -0.10477963212E+03 -0.40336705892E+02 -0.67645504480E+03  0.68570930341E+03  0.00000000000E+00 0. -1.
</event>
<event>
 7    1  0.2873461E-009  0.1013243E+03  0.7561462E-02  0.1277535E+00
          1   -1    0    0  501    0  0.00000000000E+00  0.00000000000E+00  0.92022895350E+03  0.92022895350E+03  0.00000000000E+00 0. -1.
         -1   -1    0    0    0  501 -0.00000000000E+00 -0.00000000000E+00 -0.16500121406E+02  0.16500121406E+02  0.00000000000E+00 0.  1.
         25    2    1    2    0    0  0.19717405153E+02 -0.40960208030E+02  0.62446319331E+03  0.63848906856E+03  0.12508995229E+03 0.  0.
          5    1    3    3  502    0  0.53754887306E+02 -0.35416598103E+02  0.15699099355E+03  0.16972792283E+03  0.41800000000E+01 0. -1.
         -5    1    3    3    0  502 -0.34037482154E+02 -0.55436099274E+01  0.46747219976E+03  0.46876114573E+03  0.41800000000E+01 0. -1.
        -11    1    1    2    0    0  0.30045022170E+02  0.44299502370E+02  0.12122864474E+03  0.13251993651E+03  0.00000000000E+00 0.  1.
         11    1    1    2    0    0 -0.49762427322E+02 -0.33392943402E+01  0.15803699404E+03  0.16572006983E+03  0.00000000000E+00 0. -1.
</event>
<event>
 7    1  0.2873461E-009  0.2062525E+03  0.7561462E-02  0.1144568E+00
          2   -1    0    0  501    0  0.00000000000E+00  0.00000000000E+00  0.67949300819E+03  0.67949300819E+03  0.00000000000E+00 0. -1.
         -2   -1    0    0    0  501 -0.00000000000E+00 -0.00000000000E+00 -0.12318621391E+03  0.12318621391E+03  0.00000000000E+00 0.  1.
         25    2    1    2    0    0  0.18549689729E+03  0.18540582976E+02  0.19812536680E+02  0.22537371696E+03  0.12509166066E+03 0.  0.
          5    1    3    3  502    0  0.18264548549E+03  0.49119229307E+02  0.32372597806E+02  0.19193105415E+03  0.41800000000E+01 0. -1.
         -5    1    3    3    0  502  0.28514118011E+01 -0.30578646331E+02 -0.12560061126E+02  0.33442662815E+02  0.41800000000E+01 0. -1.
        -11    1    1    2    0    0 -0.13660541696E+03  0.77354380523E+01  0.24539569684E+03  0.28096249745E+03  0.00000000000E+00 0. -1.
         11    1    1    2    0    0 -0.48891480329E+02 -0.26276021028E+02  0.29109856076E+03  0.29634300769E+03  0.00000000000E+00 0.  1.
</event>
<event>
 6    1  0.2873461E-009  0.2278208E+03  0.7561462E-02  0.1128183E+00
          1   -1    0    0  501    0  0.00000000000E+00  0.00000000000E+00  0.29289504834E+03  0.29289504834E+03  0.00000000000E+00 0. -1.
         -1   -1    0    0    0  501 -0.00000000000E+00 -0.00000000000E+00 -0.21535315427E+03  0.21535315427E+03  0.00000000000E+00 0.  1.
          5    1    1    2  502    0  0.32505567105E+02 -0.13012460319E+03 -0.76714392519E+01  0.13440739424E+03  0.41800000000E+01 0. -1.
         -5    1    1    2    0  502  0.97769158914E+02 -0.28948114809E+02 -0.47401897797E+02  0.11252206051E+03  0.41800000000E+01 0. -1.
        -11    1    1    2    0    0 -0.10496452301E+03  0.68448172233E+02  0.10435864508E+03  0.16307492197E+03  0.00000000000E+00 0.  1.
         11    1    1    2    0    0 -0.25310203006E+02  0.90624545763E+02  0.28256586037E+02  0.98243825890E+02  0.00000000000E+00 0. -1.
</event>
<event>
 7    1  0.2873461E-009  0.1153341E+03  0.7561462E-02  0.1250999E+00
         -3   -1    0    0    0  501 -0.00000000000E+00  0.00000000000E+00  0.17416177513E+02  0.17416177513E+02  0.00000000000E+00 0.  1.
          3   -1    0    0  501    0  0.00000000000E+00 -0.00000000000E+00 -0.78143198500E+03  0.78143198500E+03  0.00000000000E+00 0. -1.
         25    2    1    2    0    0 -0.35471104620E+02  0.21613626817E+02 -0.48430055357E+03  0.50192056482E+03  0.12510747009E+03 0.  0.
          5    1    3    3  502    0 -0.33514149277E+02  0.72483690571E+02 -0.26834176235E+03  0.28000331681E+03  0.41800000000E+01 0. -1.
         -5    1    3    3    0  502 -0.19569553435E+01 -0.50870063755E+02 -0.21595879122E+03  0.22191724801E+03  0.41800000000E+01 0. -1.
        -11    1    1    2    0    0 -0.14060345539E+02 -0.43319748733E+02 -0.12674369036E+03  0.13467834641E+03  0.00000000000E+00 0.  1.
         11    1    1    2    0    0  0.49531450160E+02  0.21706121916E+02 -0.15297156356E+03  0.16224925128E+03  0.00000000000E+00 0. -1.
</event>
<event>
 7    1  0.2873461E-009  0.1556927E+03  0.7561462E-02  0.1193647E+00
          2   -1    0    0  501    0  0.00000000000E+00  0.00000000000E+00  0.58648955030E+03  0.58648955030E+03  0.00000000000E+00 0. -1.
         -2   -1    0    0    0  501 -0.00000000000E+00 -0.00000000000E+00 -0.48941805365E+02  0.48941805365E+02  0.00000000000E+00 0.  1.
         25    2    1    2    0    0  0.34677350170E+02  0.12623306931E+03  0.28565840574E+03  0.33821336961E+03  0.12510096806E+03 0.  0.
          5    1    3    3  502    0  0.80537559007E+02  0.94217775733E+02  0.21231838576E+03  0.24588586175E+03  0.41800000000E+01 0. -1.
         -5    1    3    3    0  502 -0.45860208837E+02  0.32015293577E+02  0.73340019983E+02  0.92327507865E+02  0.41800000000E+01 0. -1.
        -11    1    1    2    0    0 -0.16327367818E+02 -0.77635692392E+02  0.62970637517E+02  0.10128763430E+03  0.00000000000E+00 0.  1.
         11    1    1    2    0    0 -0.18349982352E+02 -0.48597376918E+02  0.18891870168E+03  0.19593035176E+03  0.00000000000E+00 0. -1.
</event>
<event>
 7    1  0.2873461E-009  0.1366639E+03  0.7561462E-02  0.1217890E+00
         -1   -1    0    0    0  501 -0.00000000000E+00  0.00000000000E+00  0.99833366806E+02  0.99833366806E+02  0.00000000000E+00 0.  1.
          1   -1    0    0  501    0  0.00000000000E+00 -0.00000000000E+00 -0.19275186307E+03  0.19275186307E+03  0.00000000000E+00 0. -1.
         25    2    1    2    0    0 -0.17037039303E+02  0.83352671290E+02 -0.34190827198E+02  0.15509765040E+03  0.12509332507E+03 0.  0.
          5    1    3    3  502    0  0.52959159393E+02  0.41174485799E+02 -0.28704862684E+02  0.73085240549E+02  0.41800000000E+01 0.  1.
         -5    1    3    3    0  502 -0.69996198696E+02  0.42178185491E+02 -0.54859645136E+01  0.82012409853E+02  0.41800000000E+01 0.  1.
        -11    1    1    2    0    0 -0.17451027635E+01 -0.99501525769E+02 -0.45874406421E+02  0.10958129484E+03  0.00000000000E+00 0.  1.
         11    1    1    2    0    0  0.18782142067E+02  0.16148854479E+02 -0.12853262646E+02  0.27906284637E+02  0.00000000000E+00 0. -1.
</event>
<event>
 7    1  0.2873461E-009  0.1273309E+03  0.7561462E-02  0.1231471E+00
          1   -1    0    0  501    0  0.00000000000E+00  0.00000000000E+00  0.49654538241E+03  0.49654538241E+03  0.00000000000E+00 0.  1.
         -1   -1    0    0    0  501 -0.00000000000E+00 -0.00000000000E+00 -0.63024570552E+02  0.63024570552E+02  0.00000000000E+00 0. -1.
         25    2    1    2    0    0 -0.10032789133E+03 -0.70693902801E+02  0.33217481954E+03  0.37556305494E+03  0.12507671180E+03 0.  0.
          5    1    3    3  502    0 -0.99037114210E+02 -0.63454433055E+02  0.13871305225E+03  0.18191645976E+03  0.41800000000E+01 0.  1.
         -5    1    3    3    0  502 -0.12907771201E+01 -0.72394697456E+01  0.19346176728E+03  0.19364659519E+03  0.41800000000E+01 0.  1.
        -11    1    1    2    0    0  0.82931935766E+02  0.37468029078E+02  0.11266905596E+03  0.14483050557E+03  0.00000000000E+00 0.  1.
         11    1    1    2    0    0  0.17395955564E+02  0.33225873722E+02 -0.11323063642E+02  0.39176392443E+02  0.00000000000E+00 0. -1.
</event>
<event>
 7    1  0.2873461E-009  0.1279531E+03  0.7561462E-02  0.1230525E+00
          2   -1    0    0  501    0  0.00000000000E+00  0.00000000000E+00  0.28617969963E+03  0.28617969963E+03  0.00000000000E+00 0. -1.
         -2   -1    0    0    0  501 -0.00000000000E+00 -0.00000000000E+00 -0.59751565199E+02  0.59751565199E+02  0.00000000000E+00 0.  1.
         25    2    1    2    0    0 -0.41770232470E+02  0.56808069949E+02  0.14497123395E+03  0.20405914189E+03  0.12510621722E+03 0.  0.
          5    1    3    3  502    0  0.42667862876E+02  0.30872949718E+02  0.37013063299E+02  0.64506781050E+02  0.41800000000E+01 0. -1.
         -5    1    3    3    0  502 -0.84438095346E+02  0.25935120231E+02  0.10795817065E+03  0.13955236084E+03  0.41800000000E+01 0. -1.
        -11    1    1    2    0    0 -0.25037828086E+02 -0.37521580682E+02  0.21119679632E+02  0.49807657242E+02  0.00000000000E+00 0.  1.
         11    1    1    2    0    0  0.66808060556E+02 -0.19286489267E+02  0.60337220852E+02  0.92064465695E+02  0.00000000000E+00 0. -1.
</event>
<event>
 7    1  0.2873461E-009  0.1158054E+03  0.7561462E-02  0.1250182E+00
         -1   -1    0    0    0  501 -0.00000000000E+00  0.00000000000E+00  0.33612345785E+02  0.33612345785E+02  0.00000000000E+00 0.  1.
          1   -1    0    0  501    0  0.00000000000E+00 -0.00000000000E+00 -0.55806965298E+03  0.55806965298E+03  0.00000000000E+00 0. -1.
         25    2    1    2    0    0 -0.57840986008E+02 -0.52508894083E+02 -0.34875031325E+03  0.37865126430E+03  0.12508890973E+03 0.  0.
          5    1    3    3  502    0 -0.17819093744E+01  0.22591260035E+02 -0.20941889837E+03  0.21068290777E+03  0.41800000000E+01 0. -1.
         -5    1    3    3    0  502 -0.56059076633E+02 -0.75100154117E+02 -0.13933141488E+03  0.16796835653E+03  0.41800000000E+01 0. -1.
        -11    1    1    2    0    0 -0.18437342186E+02  0.30026913204E+02 -0.26980457570E+02  0.44379006232E+02  0.00000000000E+00 0.  1.
         11    1    1    2    0    0  0.76278328193E+02  0.22481980878E+02 -0.14872653637E+03  0.16865172823E+03  0.00000000000E+00 0. -1.
</event>
<event>
 7    1  0.2873461E-009  0.9347486E+02  0.7561462E-02  0.1294649E+00
          1   -1    0    0  501    0  0.00000000000E+00  0.00000000000E+00  0.31807552044E+03  0.31807552044E+03  0.00000000000E+00 0. -1.
         -1   -1    0    0    0  501 -0.00000000000E+00 -0.00000000000E+00 -0.85899411306E+02  0.85899411306E+02  0.00000000000E+00 0.  1.
         25    2    1    2    0    0  0.62574105549E+02 -0.52826412899E+02  0.85894029399E+01  0.14975803258E+03  0.12509013508E+03 0.  0.
          5    1    3    3  502    0  0.68892335802E+02 -0.58858402821E+02 -0.40776122481E+02  0.99451646942E+02  0.41800000000E+01 0.  1.
         -5    1    3    3    0  502 -0.63182302522E+01  0.60319899216E+01  0.49365525421E+02  0.50306385639E+02  0.41800000000E+01 0.  1.
        -11    1    1    2    0    0 -0.27997916603E+02  0.41715910411E+02  0.32788933589E+02  0.59993455322E+02  0.00000000000E+00 0. -1.
         11    1    1    2    0    0 -0.34576188946E+02  0.11110502489E+02  0.19079777261E+03  0.19422344385E+03  0.00000000000E+00 0.  1.
</event>
<event>
 7    1  0.2873461E-009  0.1889106E+03  0.7561462E-02  0.1159448E+00
          2   -1    0    0  501    0  0.00000000000E+00  0.00000000000E+00  0.71176789813E+03  0.71176789813E+03  0.00000000000E+00 0. -1.
         -2   -1    0    0    0  501 -0.00000000000E+00 -0.00000000000E+00 -0.15804387769E+03  0.15804387769E+03  0.00000000000E+00 0.  1.
         25    2    1    2    0    0 -0.16801893384E+03 -0.70231505569E+02 -0.55586871271E+02  0.22781739010E+03  0.12509211195E+03 0.  0.
          5    1    3    3  502    0  0.36656835000E+01 -0.70701768550E+01  0.25969530837E+02  0.27482968692E+02  0.41800000000E+01 0. -1.
         -5    1    3    3    0  502 -0.17168461734E+03 -0.63161328714E+02 -0.81556402107E+02  0.20033442141E+03  0.41800000000E+01 0. -1.
        -11    1    1    2    0    0  0.15898475764E+03  0.55176669645E+02  0.59771325272E+03  0.62095229326E+03  0.00000000000E+00 0. -1.
         11    1    1    2    0    0  0.90341762013E+01  0.15054835924E+02  0.11597638998E+02  0.21042092450E+02  0.00000000000E+00 0.  1.
</event>
<event>
 7    1  0.2873461E-009  0.6266276E+02  0.7561462E-02  0.1386985E+00
          1   -1    0    0  501    0  0.00000000000E+00  0.00000000000E+00  0.19535848671E+03  0.19535848671E+03  0.00000000000E+00 0. -1.
         -1   -1    0    0    0  501 -0.00000000000E+00 -0.00000000000E+00 -0.73089122472E+02  0.73089122472E+02  0.00000000000E+00 0.  1.
         25    2    1    2    0    0  0.18957780828E+02  0.25442531895E+01  0.12164809473E+03  0.17553077287E+03  0.12508765964E+03 0.  0.
          5    1    3    3  502    0  0.34128073026E+01 -0.12611419127E+02 -0.24307059813E+02  0.27910584064E+02  0.41800000000E+01 0. -1.
         -5    1    3    3    0  502  0.15544973525E+02  0.15155672316E+02  0.14595515455E+03  0.14762018881E+03  0.41800000000E+01 0. -1.
        -11    1    1    2    0    0  0.34616356871E+02  0.63430733035E+01 -0.11965068711E+02  0.37171085688E+02  0.00000000000E+00 0.  1.
         11    1    1    2    0    0 -0.53574137699E+02 -0.88873264930E+01  0.12586338213E+02  0.55745750618E+02  0.00000000000E+00 0. -1.
</event>
<event>
 7    1  0.2873461E-009  0.1145554E+03  0.7561462E-02  0.1252359E+00
         -2   -1    0    0    0  501 -0.00000000000E+00  0.00000000000E+00  0.23303881057E+02  0.23303881057E+02  0.00000000000E+00 0.  1.
          2   -1    0    0  501    0  0.00000000000E+00 -0.00000000000E+00 -0.68518323268E+03  0.68518323268E+03  0.00000000000E+00 0. -1.
         25    2    1    2    0    0 -0.49636553275E+02 -0.35045683833E+02 -0.43737782612E+03  0.45895342524E+03  0.12508755484E+03 0.  0.
          5    1    3    3  502    0  0.30217865878E+02 -0.27841589319E+02 -0.58178287651E+02  0.71347453129E+02  0.41800000000E+01 0. -1.
         -5    1    3    3    0  502 -0.79854419153E+02 -0.72040945135E+01 -0.37919953847E+03  0.38760597211E+03  0.41800000000E+01 0. -1.
        -11    1    1    2    0    0 -0.24489914405E+02 -0.21558517082E+01 -0.69789598248E+02  0.73993186360E+02  0.00000000000E+00 0. -1.
         11    1    1    2    0    0  0.74126467680E+02  0.37201535541E+02 -0.15471192725E+03  0.17554050214E+03  0.00000000000E+00 0.  1.
</event>
<event>
 7    1  0.2879613E-009  0.8760211E+02  0.7561462E-02  0.1308765E+00
          2   -1    0    0  501    0  0.00000000000E+00  0.00000000000E+00  0.10396950301E+03  0.10396950301E+03  0.00000000000E+00 0. -1.
         -2   -1    0    0    0  501 -0.00000000000E+00 -0.00000000000E+00 -0.16665711722E+03  0.16665711722E+03  0.00000000000E+00 0.  1.
         25    2    1    2    0    0  0.23811732574E+02  0.48209273521E+02 -0.87318162162E+02  0.16174995537E+03  0.12508978358E+03 0.  0.
          5    1    3    3  502    0 -0.36181264018E+02 -0.22005532384E+01 -0.73516972117E+02  0.82074014704E+02  0.41800000000E+01 0. -1.
         -5    1    3    3    0  502  0.59992996592E+02  0.50409826759E+02 -0.13801190046E+02  0.79675940664E+02  0.41800000000E+01 0. -1.
        -11    1    1    2    0    0 -0.10705800378E+02 -0.44544649789E+00 -0.31939015004E+02  0.33688473752E+02  0.00000000000E+00 0.  1.
         11    1    1    2    0    0 -0.13105932197E+02 -0.47763827023E+02  0.56569562956E+02  0.75188191118E+02  0.00000000000E+00 0. -1.
</event>
<event>
 7    1  0.2873461E-009  0.1079423E+03  0.7561462E-02  0.1264429E+00
          2   -1    0    0  501    0  0.00000000000E+00  0.00000000000E+00  0.47422875795E+03  0.47422875795E+03  0.00000000000E+00 0. -1.
         -2   -1    0    0    0  501 -0.00000000000E+00 -0.00000000000E+00 -0.29960064196E+02  0.29960064196E+02  0.00000000000E+00 0.  1.
         25    2    1    2    0    0 -0.69540271270E+01 -0.37866015370E+02  0.18299220949E+03  0.22498243652E+03  0.12509498149E+03 0.  0.
          5    1    3    3  502    0  0.44197595462E+01  0.39098686671E+02  0.11484959738E+03  0.12147486980E+03  0.41800000000E+01 0.  1.
         -5    1    3    3    0  502 -0.11373786673E+02 -0.76964702041E+02  0.68142612110E+02  0.10350756672E+03  0.41800000000E+01 0.  1.
        -11    1    1    2    0    0  0.41757926950E+02  0.46546767651E+02  0.16221744287E+03  0.17385288267E+03  0.00000000000E+00 0. -1.
         11    1    1    2    0    0 -0.34803899823E+02 -0.86807522814E+01  0.99059041395E+02  0.10535350296E+03  0.00000000000E+00 0.  1.
</event>
<event>
 7    1  0.2873461E-009  0.8228007E+02  0.7561462E-02  0.1322703E+00
          1   -1    0    0  501    0  0.00000000000E+00  0.00000000000E+00  0.67835841362E+03  0.67835841362E+03  0.00000000000E+00 0. -1.
         -1   -1    0    0    0  501 -0.00000000000E+00 -0.00000000000E+00 -0.25733418302E+02  0.25733418302E+02  0.00000000000E+00 0.  1.
         25    2    1    2    0    0  0.59789752324E+02 -0.19346463072E+02  0.23330606353E+03  0.27208010683E+03  0.12508703025E+03 0.  0.
          5    1    3    3  502    0  0.41668169712E+02 -0.14240618607E+02  0.67970700772E+01  0.44751582621E+02  0.41800000000E+01 0.  1.
         -5    1    3    3    0  502  0.18121582612E+02 -0.51058444658E+01  0.22650899345E+03  0.22732852421E+03  0.41800000000E+01 0.  1.
        -11    1    1    2    0    0 -0.70791221257E+02 -0.83105591792E+01  0.33756226804E+03  0.34500543069E+03  0.00000000000E+00 0. -1.
         11    1    1    2    0    0  0.11001468933E+02  0.27657022252E+02  0.81756663748E+02  0.87006294403E+02  0.00000000000E+00 0.  1.
</event>
<event>
 7    1  0.2873461E-009  0.1587413E+03  0.7561462E-02  0.1190125E+00
          2   -1    0    0  501    0  0.00000000000E+00  0.00000000000E+00  0.51103571304E+03  0.51103571304E+03  0.00000000000E+00 0. -1.
         -2   -1    0    0    0  501 -0.00000000000E+00 -0.00000000000E+00 -0.64350152716E+02  0.64350152716E+02  0.00000000000E+00 0.  1.
         25    2    1    2    0    0 -0.13681753069E+03  0.12435356099E+02  0.29573051841E+03  0.34925382043E+03  0.12509203323E+03 0.  0.
          5    1    3    3  502    0 -0.31582622338E+02 -0.23760064973E+02  0.77508578186E+01  0.40491368440E+02  0.41800000000E+01 0.  1.
         -5    1    3    3    0  502 -0.10523490836E+03  0.36195421072E+02  0.28797966059E+03  0.30876245199E+03  0.41800000000E+01 0.  1.
        -11    1    1    2    0    0  0.42089543031E+02 -0.49214933699E+02  0.42222740696E+02  0.77307174075E+02  0.00000000000E+00 0.  1.
         11    1    1    2    0    0  0.94727987663E+02  0.36779577600E+02  0.10873230122E+03  0.14882487125E+03  0.00000000000E+00 0. -1.
</event>
<event>
 7    1  0.2873461E-009  0.6775121E+02  0.7561462E-02  0.1367912E+00
          1   -1    0    0  501    0  0.00000000000E+00  0.00000000000E+00  0.30885186462E+03  0.30885186462E+03  0.00000000000E+00 0. -1.
         -1   -1    0    0    0  501 -0.00000000000E+00 -0.00000000000E+00 -0.38707369610E+02  0.38707369610E+02  0.00000000000E+00 0.  1.
         25    2    1    2    0    0 -0.10800299441E+02  0.90173587335E+01  0.15114095907E+03  0.19669738272E+03  0.12509321178E+03 0.  0.
          5    1    3    3  502    0 -0.20168188481E+02  0.29030389865E+02  0.16598010230E+03  0.16975389869E+03  0.41800000000E+01 0. -1.
         -5    1    3    3    0  502  0.93678890405E+01 -0.20013031132E+02 -0.14839143224E+02  0.26943484032E+02  0.41800000000E+01 0. -1.
        -11    1    1    2    0    0  0.27903791527E+02 -0.35953471663E+02  0.25728421736E+02  0.52280258140E+02  0.00000000000E+00 0.  1.
         11    1    1    2    0    0 -0.17103492087E+02  0.26936112929E+02  0.93275114203E+02  0.98581593368E+02  0.00000000000E+00 0. -1.
</event>
<event>
 7    1  0.2873461E-009  0.2256581E+03  0.7561462E-02  0.1129734E+00
         -2   -1    0    0    0  501 -0.00000000000E+00  0.00000000000E+00  0.76901963862E+02  0.76901963862E+02  0.00000000000E+00 0.  1.
          2   -1    0    0  501    0  0.00000000000E+00 -0.00000000000E+00 -0.10414150120E+04  0.10414150120E+04  0.00000000000E+00 0. -1.
         25    2    1    2    0    0 -0.21051708210E+03  0.73016852176E+02 -0.76176605383E+03  0.80348253602E+03  0.12509101634E+03 0.  0.
          5    1    3    3  502    0 -0.17890427300E+03  0.64931580706E+02 -0.73986097707E+03  0.76395980710E+03  0.41800000000E+01 0.  1.
         -5    1    3    3    0  502 -0.31612809093E+02  0.80852714698E+01 -0.21905076755E+02  0.39522728918E+02  0.41800000000E+01 0.  1.
        -11    1    1    2    0    0  0.14447805486E+03 -0.25543999346E+02 -0.78676410961E+02  0.16648237708E+03  0.00000000000E+00 0.  1.
         11    1    1    2    0    0  0.66039027237E+02 -0.47472852830E+02 -0.12407058339E+03  0.14835206280E+03  0.00000000000E+00 0. -1.
</event>
<event>
 7    1  0.2873461E-009  0.1498649E+03  0.7561462E-02  0.1200639E+00
         -2   -1    0    0    0  501 -0.00000000000E+00  0.00000000000E+00  0.17293005045E+02  0.17293005045E+02  0.00000000000E+00 0.  1.
          2   -1    0    0  501    0  0.00000000000E+00 -0.00000000000E+00 -0.13127937247E+04  0.13127937247E+04  0.00000000000E+00 0. -1.
         25    2    1    2    0    0 -0.98351378645E+02 -0.29758678630E+02 -0.76730078445E+03  0.78419230847E+03  0.12509400547E+03 0.  0.
          5    1    3    3  502    0  0.30134497322E+02 -0.29420789639E+01 -0.14483933234E+03  0.14802921452E+03  0.41800000000E+01 0.  1.
         -5    1    3    3    0  502 -0.12848587597E+03 -0.26816599667E+02 -0.62246145211E+03  0.63616309395E+03  0.41800000000E+01 0.  1.
        -11    1    1    2    0    0  0.43069972789E+01 -0.27436694964E+02 -0.10987562647E+03  0.11333126554E+03  0.00000000000E+00 0.  1.
         11    1    1    2    0    0  0.94044381366E+02  0.57195373594E+02 -0.41832430873E+03  0.43256315574E+03  0.00000000000E+00 0. -1.
</event>
<event>
 7    1  0.2873461E-009  0.1419844E+03  0.7561462E-02  0.1210683E+00
         -2   -1    0    0    0  501 -0.00000000000E+00  0.00000000000E+00  0.29365000694E+02  0.29365000694E+02  0.00000000000E+00 0.  1.
          2   -1    0    0  501    0  0.00000000000E+00 -0.00000000000E+00 -0.13957022986E+04  0.13957022986E+04  0.00000000000E+00 0. -1.
         25    2    1    2    0    0  0.74465450534E+02  0.86496986837E+02 -0.11560934941E+04  0.11684289073E+04  0.12508841810E+03 0.  0.
          5    1    3    3  502    0  0.44940064339E+02 -0.17332261378E+02 -0.59968371252E+03  0.60162949074E+03  0.41800000000E+01 0.  1.
         -5    1    3    3    0  502  0.29525386195E+02  0.10382924822E+03 -0.55640978158E+03  0.56679941659E+03  0.41800000000E+01 0.  1.
        -11    1    1    2    0    0 -0.52991851695E+02 -0.18245616051E+02 -0.15911810879E+03  0.16869976703E+03  0.00000000000E+00 0. -1.
         11    1    1    2    0    0 -0.21473598839E+02 -0.68251370785E+02 -0.51125694987E+02  0.87938624899E+02  0.00000000000E+00 0.  1.
</event>
<event>
 7    1  0.2873461E-009  0.9597461E+02  0.7561462E-02  0.1288996E+00
          1   -1    0    0  501    0  0.00000000000E+00  0.00000000000E+00  0.47969371564E+03  0.47969371564E+03  0.00000000000E+00 0. -1.
         -1   -1    0    0    0  501 -0.00000000000E+00 -0.00000000000E+00 -0.26024781082E+02  0.26024781082E+02  0.00000000000E+00 0.  1.
         25    2    1    2    0    0  0.47250766381E+01 -0.22580515579E+02  0.25887543350E+03  0.28843750608E+03  0.12508996288E+03 0.  0.
          5    1    3    3  502    0 -0.44259742023E+02  0.84092670388E+01  0.20242185862E+03  0.20741678279E+03  0.41800000000E+01 0.  1.
         -5    1    3    3    0  502  0.48984818661E+02 -0.30989782618E+02  0.56453574878E+02  0.81020723291E+02  0.41800000000E+01 0.  1.
        -11    1    1    2    0    0 -0.13807167117E+02  0.54075766474E+02  0.77571686009E+02  0.95562507574E+02  0.00000000000E+00 0. -1.
         11    1    1    2    0    0  0.90820904785E+01 -0.31495250895E+02  0.11722181505E+03  0.12171848307E+03  0.00000000000E+00 0.  1.
</event>
<event>
 7    1  0.2873461E-009  0.1080342E+03  0.7561462E-02  0.1264254E+00
          2   -1    0    0  501    0  0.00000000000E+00  0.00000000000E+00  0.10012984193E+04  0.10012984193E+04  0.00000000000E+00 0. -1.
         -2   -1    0    0    0  501 -0.00000000000E+00 -0.00000000000E+00 -0.12149650219E+02  0.12149650219E+02  0.00000000000E+00 0.  1.
         25    2    1    2    0    0 -0.44465214872E+02 -0.66333515847E+01  0.51311866394E+03  0.53005587053E+03  0.12508919179E+03 0.  0.
          5    1    3    3  502    0 -0.52563456208E+02 -0.59109631391E+02  0.32785210455E+03  0.33728525066E+03  0.41800000000E+01 0.  1.
         -5    1    3    3    0  502  0.80982413359E+01  0.52476279806E+02  0.18526655939E+03  0.19277061987E+03  0.41800000000E+01 0.  1.
        -11    1    1    2    0    0 -0.16665626200E+02  0.14334136353E+02  0.10440249697E+03  0.10669157387E+03  0.00000000000E+00 0. -1.
         11    1    1    2    0    0  0.61130841073E+02 -0.77007847688E+01  0.37162760815E+03  0.37670062511E+03  0.00000000000E+00 0.  1.
</event>
<event>
 7    1  0.2873461E-009  0.1272695E+03  0.7561462E-02  0.1231564E+00
         -2   -1    0    0    0  501 -0.00000000000E+00  0.00000000000E+00  0.26349490031E+02  0.26349490031E+02  0.00000000000E+00 0.  1.
          2   -1    0    0  501    0  0.00000000000E+00 -0.00000000000E+00 -0.90532550234E+03  0.90532550234E+03  0.00000000000E+00 0. -1.
         25    2    1    2    0    0 -0.90700512398E+02  0.52789694996E+02 -0.44484677320E+03  0.47386654415E+03  0.12509002835E+03 0.  0.
          5    1    3    3  502    0 -0.36790552902E+02  0.31795098274E-01 -0.19471320933E+02  0.41834800497E+02  0.41800000000E+01 0. -1.
         -5    1    3    3    0  502 -0.53909959495E+02  0.52757899898E+02 -0.42537545227E+03  0.43203174366E+03  0.41800000000E+01 0. -1.
        -11    1    1    2    0    0  0.47333035432E+02 -0.78415188554E+02 -0.23026397451E+03  0.24781213852E+03  0.00000000000E+00 0.  1.
         11    1    1    2    0    0  0.43367476966E+02  0.25625493559E+02 -0.20386526460E+03  0.20999630970E+03  0.00000000000E+00 0. -1.
</event>
<event>
 7    1  0.2873461E-009  0.1985554E+03  0.7561462E-02  0.1150964E+00
          1   -1    0    0  501    0  0.00000000000E+00  0.00000000000E+00  0.48951187728E+03  0.48951187728E+03  0.00000000000E+00 0. -1.
         -1   -1    0    0    0  501 -0.00000000000E+00 -0.00000000000E+00 -0.13033977262E+03  0.13033977262E+03  0.00000000000E+00 0.  1.
         25    2    1    2    0    0 -0.13870789745E+02 -0.17266204104E+03  0.36627885702E+03  0.42404306829E+03  0.12509094068E+03 0.  0.
          5    1    3    3  502    0  0.44496894056E+02 -0.53394420689E+02  0.19645379325E+03  0.20842865212E+03  0.41800000000E+01 0.  1.
         -5    1    3    3    0  502 -0.58367683801E+02 -0.11926762035E+03  0.16982506377E+03  0.21561441617E+03  0.41800000000E+01 0.  1.
        -11    1    1    2    0    0  0.50367845759E+02  0.74734951514E+02  0.68027824287E+01  0.90379813637E+02  0.00000000000E+00 0.  1.
         11    1    1    2    0    0 -0.36497056014E+02  0.97927089522E+02 -0.13909534791E+02  0.10542876798E+03  0.00000000000E+00 0. -1.
</event>
<event>
 7    1  0.2873461E-009  0.7723601E+02  0.7561462E-02  0.1337083E+00
         -1   -1    0    0    0  501 -0.00000000000E+00  0.00000000000E+00  0.45143629606E+02  0.45143629606E+02  0.00000000000E+00 0.  1.
          1   -1    0    0  501    0  0.00000000000E+00 -0.00000000000E+00 -0.23969268881E+03  0.23969268881E+03  0.00000000000E+00 0. -1.
         25    2    1    2    0    0 -0.33934182977E+02 -0.19482685808E+02 -0.11865651214E+03  0.17679067908E+03  0.12507786580E+03 0.  0.
          5    1    3    3  502    0 -0.49710838116E+02  0.24022216877E+02 -0.69471689494E+01  0.55802955892E+02  0.41800000000E+01 0. -1.
         -5    1    3    3    0  502  0.15776655138E+02 -0.43504902685E+02 -0.11170934319E+03  0.12098772319E+03  0.41800000000E+01 0. -1.
        -11    1    1    2    0    0 -0.58429144784E+01  0.10257246554E+02 -0.64614338469E+02  0.65683814538E+02  0.00000000000E+00 0. -1.
         11    1    1    2    0    0  0.39777097456E+02  0.92254392544E+01 -0.11278208594E+02  0.42361824802E+02  0.00000000000E+00 0.  1.
</event>
<event>
 7    1  0.2873461E-009  0.6693571E+02  0.7561462E-02  0.1370835E+00
         -1   -1    0    0    0  501 -0.00000000000E+00  0.00000000000E+00  0.31711018665E+02  0.31711018665E+02  0.00000000000E+00 0.  1.
          1   -1    0    0  501    0  0.00000000000E+00 -0.00000000000E+00 -0.43863363191E+03  0.43863363191E+03  0.00000000000E+00 0. -1.
         25    2    1    2    0    0  0.36471196795E+02 -0.10236609695E+02 -0.17188959146E+03  0.21593683739E+03  0.12509096575E+03 0.  0.
          5    1    3    3  502    0  0.19843355702E+02 -0.17913501615E+02  0.13053633779E+02  0.30042004934E+02  0.41800000000E+01 0.  1.
         -5    1    3    3    0  502  0.16627841092E+02  0.76768919203E+01 -0.18494322524E+03  0.18589483245E+03  0.41800000000E+01 0.  1.
        -11    1    1    2    0    0 -0.57881913576E+02  0.23907772488E+02 -0.10785968726E+03  0.12472212971E+03  0.00000000000E+00 0.  1.
         11    1    1    2    0    0  0.21410716781E+02 -0.13671162794E+02 -0.12717333452E+03  0.12968568347E+03  0.00000000000E+00 0. -1.
</event>
<event>
 7    1  0.2873461E-009  0.1233133E+03  0.7561462E-02  0.1237729E+00
         -2   -1    0    0    0  501 -0.00000000000E+00  0.00000000000E+00  0.66593211646E+02  0.66593211646E+02  0.00000000000E+00 0.  1.
          2   -1    0    0  501    0  0.00000000000E+00 -0.00000000000E+00 -0.36859291266E+03  0.36859291266E+03  0.00000000000E+00 0. -1.
         25    2    1    2    0    0 -0.37218209284E+02  0.55998204024E+02 -0.37214280421E+02  0.14681223842E+03  0.12509171327E+03 0.  0.
          5    1    3    3  502    0  0.39907855752E+02  0.33754804512E+02  0.10304039030E+02  0.53438463663E+02  0.41800000000E+01 0.  1.
         -5    1    3    3    0  502 -0.77126065035E+02  0.22243399512E+02 -0.47518319451E+02  0.93373774761E+02  0.41800000000E+01 0.  1.
        -11    1    1    2    0    0  0.55296004638E+02 -0.34507104314E+00 -0.11638764058E+03  0.12885592762E+03  0.00000000000E+00 0.  1.
         11    1    1    2    0    0 -0.18077795354E+02 -0.55653132981E+02 -0.14839778001E+03  0.15951795826E+03  0.00000000000E+00 0. -1.
</event>
<event>
 7    1  0.3808733E-009  0.1470748E+03  0.7561462E-02  0.1204114E+00
          3   -1    0    0  501    0  0.00000000000E+00  0.00000000000E+00  0.16917229132E+03  0.16917229132E+03  0.00000000000E+00 0. -1.
         -3   -1    0    0    0  501 -0.00000000000E+00 -0.00000000000E+00 -0.13907429767E+03  0.13907429767E+03  0.00000000000E+00 0.  1.
         25    2    1    2    0    0  0.95624729383E+02  0.46596255899E+02 -0.26615359452E+01  0.16423150272E+03  0.12509837240E+03 0.  0.
          5    1    3    3  502    0 -0.30386131347E+02  0.13291346027E+02  0.39399731148E+01  0.33659659024E+02  0.41800000000E+01 0. -1.
         -5    1    3    3    0  502  0.12601086073E+03  0.33304909872E+02 -0.66015090600E+01  0.13057184369E+03  0.41800000000E+01 0. -1.
        -11    1    1    2    0    0 -0.10758970826E+03 -0.33744861297E+02  0.71762079367E+01  0.11298565815E+03  0.00000000000E+00 0.  1.
         11    1    1    2    0    0  0.11964978875E+02 -0.12851394602E+02  0.25583321664E+02  0.31029428129E+02  0.00000000000E+00 0. -1.
</event>
<event>
 7    1  0.2873461E-009  0.1245715E+03  0.7561462E-02  0.1235740E+00
         -2   -1    0    0    0  501 -0.00000000000E+00  0.00000000000E+00  0.33910007269E+02  0.33910007269E+02  0.00000000000E+00 0.  1.
          2   -1    0    0  501    0  0.00000000000E+00 -0.00000000000E+00 -0.54399408442E+03  0.54399408442E+03  0.00000000000E+00 0. -1.
         25    2    1    2    0    0 -0.10331003138E+02  0.64120184567E+02 -0.18634798881E+03  0.23364739594E+03  0.12508958789E+03 0.  0.
          5    1    3    3  502    0 -0.39497431904E+02  0.87252581350E+02 -0.95217670063E+02  0.13511823405E+03  0.41800000000E+01 0.  1.
         -5    1    3    3    0  502  0.29166428767E+02 -0.23132396783E+02 -0.91130318748E+02  0.98529161892E+02  0.41800000000E+01 0.  1.
        -11    1    1    2    0    0 -0.13367394947E+02 -0.83893326954E+02 -0.21346925356E+03  0.22975182213E+03  0.00000000000E+00 0.  1.
         11    1    1    2    0    0  0.23698398084E+02  0.19773142388E+02 -0.11026683478E+03  0.11450487363E+03  0.00000000000E+00 0. -1.
</event>
<event>
 7    1  0.2873461E-009  0.1233054E+03  0.7561462E-02  0.1237742E+00
         -2   -1    0    0    0  501 -0.00000000000E+00  0.00000000000E+00  0.14759103056E+02  0.14759103056E+02  0.00000000000E+00 0.  1.
          2   -1    0    0  501    0  0.00000000000E+00 -0.00000000000E+00 -0.13228830728E+04  0.13228830728E+04  0.00000000000E+00 0. -1.
         25    2    1    2    0    0  0.89687498656E+02  0.87665665351E+01 -0.71404863114E+03  0.73050249027E+03  0.12509092916E+03 0.  0.
          5    1    3    3  502    0  0.85954689858E+02  0.42091444067E+02 -0.29657601763E+03  0.31166441087E+03  0.41800000000E+01 0. -1.
         -5    1    3    3    0  502  0.37328087979E+01 -0.33324877532E+02 -0.41747261351E+03  0.41883807940E+03  0.41800000000E+01 0. -1.
        -11    1    1    2    0    0  0.90934714948E+01 -0.15541439112E+02 -0.34956700000E+02  0.39321729723E+02  0.00000000000E+00 0.  1.
         11    1    1    2    0    0 -0.98780970151E+02  0.67748725766E+01 -0.55911863864E+03  0.56781795590E+03  0.00000000000E+00 0. -1.
</event>
<event>
 7    1  0.2873461E-009  0.1029416E+03  0.7561462E-02  0.1274229E+00
         -2   -1    0    0    0  501 -0.00000000000E+00  0.00000000000E+00  0.73588352702E+02  0.73588352702E+02  0.00000000000E+00 0.  1.
          2   -1    0    0  501    0  0.00000000000E+00 -0.00000000000E+00 -0.22045896107E+03  0.22045896107E+03  0.00000000000E+00 0. -1.
         25    2    1    2    0    0 -0.45768975367E+01 -0.43404520650E+02 -0.15504369767E+02  0.13339213963E+03  0.12509267376E+03 0.  0.
          5    1    3    3  502    0 -0.36426323172E+02 -0.77396326833E+02 -0.78448511167E+01  0.86000479743E+02  0.41800000000E+01 0.  1.
         -5    1    3    3    0  502  0.31849425636E+02  0.33991806183E+02 -0.76595186501E+01  0.47391659887E+02  0.41800000000E+01 0.  1.
        -11    1    1    2    0    0  0.17616619756E+02  0.53917762236E+02 -0.44244290234E+02  0.71937664644E+02  0.00000000000E+00 0.  1.
         11    1    1    2    0    0 -0.13039722220E+02 -0.10513241585E+02 -0.87121948365E+02  0.88717509496E+02  0.00000000000E+00 0. -1.
</event>
<event>
 7    1  0.2873461E-009  0.1242961E+03  0.7561462E-02  0.1236173E+00
         -2   -1    0    0    0  501 -0.00000000000E+00  0.00000000000E+00  0.28118738149E+03  0.28118738149E+03  0.00000000000E+00 0.  1.
          2   -1    0    0  501    0  0.00000000000E+00 -0.00000000000E+00 -0.99509901742E+02  0.99509901742E+02  0.00000000000E+00 0. -1.
         25    2    1    2    0    0  0.77475345917E+02 -0.56731436302E+02  0.19982730310E+01  0.15770949807E+03  0.12508959828E+03 0.  0.
          5    1    3    3  502    0  0.76124426391E+01 -0.67285471801E+02  0.38569271575E+02  0.78040663172E+02  0.41800000000E+01 0. -1.
         -5    1    3    3    0  502  0.69862903278E+02  0.10554035499E+02 -0.36570998544E+02  0.79668834900E+02  0.41800000000E+01 0. -1.
        -11    1    1    2    0    0 -0.74156620162E+02  0.25285524152E+02  0.17404794089E+03  0.19086971413E+03  0.00000000000E+00 0.  1.
         11    1    1    2    0    0 -0.33187257550E+01  0.31445912150E+02  0.56312658257E+01  0.32118071025E+02  0.00000000000E+00 0. -1.
</event>
<event>
 7    1  0.2873461E-009  0.1687014E+03  0.7561462E-02  0.1179209E+00
         -2   -1    0    0    0  501 -0.00000000000E+00  0.00000000000E+00  0.79224539096E+03  0.79224539096E+03  0.00000000000E+00 0.  1.
          2   -1    0    0  501    0  0.00000000000E+00 -0.00000000000E+00 -0.48187414062E+02  0.48187414062E+02  0.00000000000E+00 0. -1.
         25    2    1    2    0    0 -0.13859622328E+03 -0.52247227092E+02  0.53634847981E+03  0.57031193450E+03  0.12508926807E+03 0.  0.
          5    1    3    3  502    0  0.17285934371E+02  0.11108486211E+02  0.10924057552E+03  0.11123478653E+03  0.41800000000E+01 0. -1.
         -5    1    3    3    0  502 -0.15588215765E+03 -0.63355713303E+02  0.42710790429E+03  0.45907714797E+03  0.41800000000E+01 0. -1.
        -11    1    1    2    0    0  0.76284306117E+02  0.28665635741E+02  0.18070660029E+03  0.19823190818E+03  0.00000000000E+00 0.  1.
         11    1    1    2    0    0  0.62311917166E+02  0.23581591351E+02  0.27002896793E+02  0.71888962343E+02  0.00000000000E+00 0. -1.
</event>
<event>
 7    1  0.2873461E-009  0.1378722E+03  0.7561462E-02  0.1216221E+00
         -1   -1    0    0    0  501 -0.00000000000E+00  0.00000000000E+00  0.79404578132E+02  0.79404578132E+02  0.00000000000E+00 0.  1.
          1   -1    0    0  501    0  0.00000000000E+00 -0.00000000000E+00 -0.25108408860E+03  0.25108408860E+03  0.00000000000E+00 0. -1.
         25    2    1    2    0    0 -0.86622952297E+02  0.24833707598E+02 -0.81780221835E+02  0.17451573834E+03  0.12508992505E+03 0.  0.
          5    1    3    3  502    0  0.18505179079E+02 -0.25464184964E+02 -0.39018513004E+02  0.50306889446E+02  0.41800000000E+01 0. -1.
         -5    1    3    3    0  502 -0.10512813138E+03  0.50297892562E+02 -0.42761708830E+02  0.12420884890E+03  0.41800000000E+01 0. -1.
        -11    1    1    2    0    0 -0.17930398499E+02 -0.13012785920E+02 -0.13524155576E+02  0.25956397511E+02  0.00000000000E+00 0.  1.
         11    1    1    2    0    0  0.10455335080E+03 -0.11820921678E+02 -0.76375133060E+02  0.13001653088E+03  0.00000000000E+00 0. -1.
</event>
<event>
 7    1  0.2873461E-009  0.1804107E+03  0.7561462E-02  0.1167406E+00
          1   -1    0    0  501    0  0.00000000000E+00  0.00000000000E+00  0.51602357190E+02  0.51602357190E+02  0.00000000000E+00 0. -1.
         -1   -1    0    0    0  501 -0.00000000000E+00 -0.00000000000E+00 -0.94283962185E+03  0.94283962185E+03  0.00000000000E+00 0.  1.
         25    2    1    2    0    0  0.13009913212E+03 -0.74051960813E+02 -0.73378312753E+03  0.75927289184E+03  0.12509264148E+03 0.  0.
          5    1    3    3  502    0  0.14682424989E+03 -0.43358489599E+02 -0.50231301091E+03  0.52514107848E+03  0.41800000000E+01 0. -1.
         -5    1    3    3    0  502 -0.16725117766E+02 -0.30693471213E+02 -0.23147011662E+03  0.23413181336E+03  0.41800000000E+01 0. -1.
        -11    1    1    2    0    0 -0.10426593031E+02 -0.18463992124E+02 -0.84036053938E+01  0.22809064667E+02  0.00000000000E+00 0. -1.
         11    1    1    2    0    0 -0.11967253909E+03  0.92515952936E+02 -0.14905053173E+03  0.21236002253E+03  0.00000000000E+00 0.  1.
</event>
<event>
 7    1  0.2873461E-009  0.1121041E+03  0.7561462E-02  0.1256722E+00
         -2   -1    0    0    0  501 -0.00000000000E+00  0.00000000000E+00  0.20481879269E+02  0.20481879269E+02  0.00000000000E+00 0.  1.
          2   -1    0    0  501    0  0.00000000000E+00 -0.00000000000E+00 -0.81644853713E+03  0.81644853713E+03  0.00000000000E+00 0. -1.
         25    2    1    2    0    0 -0.28819744899E+02  0.58989142667E+02 -0.35294971385E+03  0.38017166403E+03  0.12508675781E+03 0.  0.
          5    1    3    3  502    0 -0.40448923360E-03 -0.24368339858E+02 -0.21477744104E+03  0.21619583152E+03  0.41800000000E+01 0.  1.
         -5    1    3    3    0  502 -0.28819340410E+02  0.83357482525E+02 -0.13817227280E+03  0.16397583251E+03  0.41800000000E+01 0.  1.
        -11    1    1    2    0    0  0.56963769808E+02 -0.14900275470E+02 -0.23159070936E+03  0.23895846070E+03  0.00000000000E+00 0.  1.
         11    1    1    2    0    0 -0.28144024909E+02 -0.44088867197E+02 -0.21142623466E+03  0.21780029167E+03  0.00000000000E+00 0. -1.
</event>
<event>
 7    1  0.2873461E-009  0.1197168E+03  0.7561462E-02  0.1243565E+00
          3   -1    0    0  501    0  0.00000000000E+00  0.00000000000E+00  0.73261013336E+02  0.73261013336E+02  0.00000000000E+00 0. -1.
         -3   -1    0    0    0  501 -0.00000000000E+00 -0.00000000000E+00 -0.22884940137E+03  0.22884940137E+03  0.00000000000E+00 0.  1.
         25    2    1    2    0    0 -0.28174610904E+02  0.61190948755E+02 -0.65718718458E+02  0.15653974110E+03  0.12509036606E+03 0.  0.
          5    1    3    3  502    0 -0.60345432109E+02  0.69025637508E+02 -0.78530057634E+02  0.12079135798E+03  0.41800000000E+01 0. -1.
         -5    1    3    3    0  502  0.32170821204E+02 -0.78346887529E+01  0.12811339176E+02  0.35748383129E+02  0.41800000000E+01 0. -1.
        -11    1    1    2    0    0  0.88900088179E+00 -0.80720245847E+02 -0.59131810219E+02  0.10006557546E+03  0.00000000000E+00 0. -1.
         11    1    1    2    0    0  0.27285610022E+02  0.19529297092E+02 -0.30737859363E+02  0.45505098147E+02  0.00000000000E+00 0.  1.
</event>
<event>
 7    1  0.2873461E-009  0.1069741E+03  0.7561462E-02  0.1266278E+00
         -2   -1    0    0    0  501 -0.00000000000E+00  0.00000000000E+00  0.72905659242E+02  0.72905659242E+02  0.00000000000E+00 0.  1.
          2   -1    0    0  501    0  0.00000000000E+00 -0.00000000000E+00 -0.22740970449E+03  0.22740970449E+03  0.00000000000E+00 0. -1.
         25    2    1    2    0    0  0.60578831732E+02  0.15972918505E+02 -0.75232184167E+02  0.15884263816E+03  0.12508466406E+03 0.  0.
          5    1    3    3  502    0 -0.17081950623E+02  0.46215080485E+02 -0.53001042892E+02  0.72485927248E+02  0.41800000000E+01 0.  1.
         -5    1    3    3    0  502  0.77660782355E+02 -0.30242161980E+02 -0.22231141275E+02  0.86356710912E+02  0.41800000000E+01 0.  1.
        -11    1    1    2    0    0 -0.44474179734E+02  0.14339857831E+02  0.82581191202E+01  0.47452931595E+02  0.00000000000E+00 0.  1.
         11    1    1    2    0    0 -0.16104651998E+02 -0.30312776336E+02 -0.87529980200E+02  0.94019793974E+02  0.00000000000E+00 0. -1.
</event>
<event>
 7    1  0.2873461E-009  0.1034472E+03  0.7561462E-02  0.1273210E+00
          1   -1    0    0  501    0  0.00000000000E+00  0.00000000000E+00  0.27461131968E+02  0.27461131968E+02  0.00000000000E+00 0. -1.
         -1   -1    0    0    0  501 -0.00000000000E+00 -0.00000000000E+00 -0.49853309907E+03  0.49853309907E+03  0.00000000000E+00 0.  1.
         25    2    1    2    0    0 -0.96968076072E+01 -0.96483908415E+01 -0.17453867744E+03  0.21517103975E+03  0.12509079461E+03 0.  0.
          5    1    3    3  502    0  0.73192868375E+00 -0.64768767369E+02 -0.12203203650E+03  0.13822018405E+03  0.41800000000E+01 0.  1.
         -5    1    3    3    0  502 -0.10428736291E+02  0.55120376528E+02 -0.52506640946E+02  0.76950855698E+02  0.41800000000E+01 0.  1.
        -11    1    1    2    0    0  0.11294771773E+01  0.47201513858E+02 -0.22155156159E+03  0.22652671602E+03  0.00000000000E+00 0.  1.
         11    1    1    2    0    0  0.85673304298E+01 -0.37553123017E+02 -0.74981728067E+02  0.84296475270E+02  0.00000000000E+00 0. -1.
</event>
<event>
 7    1  0.2873461E-009  0.1386967E+03  0.7561462E-02  0.1215093E+00
          1   -1    0    0  501    0  0.00000000000E+00  0.00000000000E+00  0.66590714077E+03  0.66590714077E+03  0.00000000000E+00 0. -1.
         -1   -1    0    0    0  501 -0.00000000000E+00 -0.00000000000E+00 -0.66847278720E+02  0.66847278720E+02  0.00000000000E+00 0.  1.
         25    2    1    2    0    0 -0.11080045640E+03 -0.48399467386E+02  0.79875055751E+02  0.19143265058E+03  0.12508871089E+03 0.  0.
          5    1    3    3  502    0 -0.35985261573E+02 -0.69696410365E+02 -0.17930156672E+01  0.78569815918E+02  0.41800000000E+01 0. -1.
         -5    1    3    3    0  502 -0.74815194829E+02  0.21296942979E+02  0.81668071418E+02  0.11286283466E+03  0.41800000000E+01 0. -1.
        -11    1    1    2    0    0  0.89283580313E+02  0.37745600069E+02  0.50326058087E+03  0.51251097578E+03  0.00000000000E+00 0. -1.
         11    1    1    2    0    0  0.21516876089E+02  0.10653867317E+02  0.15924225428E+02  0.28810793132E+02  0.00000000000E+00 0.  1.
</event>
<event>
 7    1  0.2873461E-009  0.1537404E+03  0.7561462E-02  0.1195951E+00
          2   -1    0    0  501    0  0.00000000000E+00  0.00000000000E+00  0.25546896508E+03  0.25546896508E+03  0.00000000000E+00 0. -1.
         -2   -1    0    0    0  501 -0.00000000000E+00 -0.00000000000E+00 -0.12129898137E+03  0.12129898137E+03  0.00000000000E+00 0.  1.
         25    2    1    2    0    0 -0.12907799121E+03  0.67027642904E+01  0.20017213809E+02  0.18098212099E+03  0.12509110443E+03 0.  0.
          5    1    3    3  502    0 -0.34851559555E+02  0.48996045368E+02 -0.28645545947E+02  0.66732925664E+02  0.41800000000E+01 0.  1.
         -5    1    3    3    0  502 -0.94226431653E+02 -0.42293281077E+02  0.48662759756E+02  0.11424919533E+03  0.41800000000E+01 0.  1.
        -11    1    1    2    0    0  0.16940643020E+02  0.22308866941E+02 -0.62631786265E+01  0.28703629329E+02  0.00000000000E+00 0.  1.
         11    1    1    2    0    0  0.11213734819E+03 -0.29011631232E+02  0.12041594853E+03  0.16708219614E+03  0.00000000000E+00 0. -1.
</event>
<event>
 7    1  0.2873461E-009  0.9838297E+02  0.7561462E-02  0.1283734E+00
          1   -1    0    0  501    0  0.00000000000E+00  0.00000000000E+00  0.20070836884E+03  0.20070836884E+03  0.00000000000E+00 0. -1.
         -1   -1    0    0    0  501 -0.00000000000E+00 -0.00000000000E+00 -0.58313508063E+02  0.58313508063E+02  0.00000000000E+00 0.  1.
         25    2    1    2    0    0 -0.83363881667E+00  0.40319871739E+01  0.86419428060E+02  0.15209474614E+03  0.12509013703E+03 0.  0.
          5    1    3    3  502    0  0.21249313448E+02 -0.52201546179E+02  0.15030691223E+02  0.58480157525E+02  0.41800000000E+01 0.  1.
         -5    1    3    3    0  502 -0.22082952265E+02  0.56233533353E+02  0.71388736837E+02  0.93614588613E+02  0.41800000000E+01 0.  1.
        -11    1    1    2    0    0  0.53638592400E+01 -0.41553283249E+02  0.54973979619E+02  0.69120075014E+02  0.00000000000E+00 0. -1.
         11    1    1    2    0    0 -0.45302204234E+01  0.37521296075E+02  0.10014530976E+01  0.37807055751E+02  0.00000000000E+00 0.  1.
</event>
<event>
 7    1  0.2873461E-009  0.1007096E+03  0.7561462E-02  0.1278811E+00
         -1   -1    0    0    0  501 -0.00000000000E+00  0.00000000000E+00  0.17402413947E+02  0.17402413947E+02  0.00000000000E+00 0.  1.
          1   -1    0    0  501    0  0.00000000000E+00 -0.00000000000E+00 -0.82385592603E+03  0.82385592603E+03  0.00000000000E+00 0. -1.
         25    2    1    2    0    0 -0.50959698021E+02  0.12775290117E+02 -0.50500358310E+03  0.52291279184E+03  0.12509624320E+03 0.  0.
          5    1    3    3  502    0 -0.82002571293E+01 -0.43884799866E+02 -0.34394817991E+03  0.34685867834E+03  0.41800000000E+01 0.  1.
         -5    1    3    3    0  502 -0.42759440892E+02  0.56660089983E+02 -0.16105540319E+03  0.17605411349E+03  0.41800000000E+01 0.  1.
        -11    1    1    2    0    0  0.53167828344E+02  0.16843052715E+02 -0.26743582048E+03  0.27318935644E+03  0.00000000000E+00 0. -1.
         11    1    1    2    0    0 -0.22081303226E+01 -0.29618342832E+02 -0.34014108494E+02  0.45156191694E+02  0.00000000000E+00 0.  1.
</event>
<event>
 7    1  0.2873461E-009  0.3323943E+03  0.7561462E-02  0.1070082E+00
          1   -1    0    0  501    0  0.00000000000E+00  0.00000000000E+00  0.15424200048E+03  0.15424200048E+03  0.00000000000E+00 0. -1.
         -1   -1    0    0    0  501 -0.00000000000E+00 -0.00000000000E+00 -0.73485966014E+03  0.73485966014E+03  0.00000000000E+00 0.  1.
         25    2    1    2    0    0 -0.15411251479E+03  0.27549449169E+03 -0.22777663018E+03  0.40887327030E+03  0.12508907124E+03 0.  0.
          5    1    3    3  502    0 -0.14491426803E+03  0.13462736177E+03 -0.14355018359E+03  0.24443567503E+03  0.41800000000E+01 0.  1.
         -5    1    3    3    0  502 -0.91982467571E+01  0.14086712992E+03 -0.84226446595E+02  0.16443759528E+03  0.41800000000E+01 0.  1.
        -11    1    1    2    0    0  0.14693075214E+03 -0.19129369775E+03 -0.26491117835E+03  0.35827343906E+03  0.00000000000E+00 0. -1.
         11    1    1    2    0    0  0.71817626482E+01 -0.84200793938E+02 -0.87929851137E+02  0.12195495125E+03  0.00000000000E+00 0.  1.
</event>
<event>
 7    1  0.2952365E-009  0.1342928E+03  0.7561462E-02  0.1221221E+00
         -2   -1    0    0    0  501 -0.00000000000E+00  0.00000000000E+00  0.22827153908E+02  0.22827153908E+02  0.00000000000E+00 0.  1.
          2   -1    0    0  501    0  0.00000000000E+00 -0.00000000000E+00 -0.10203184498E+04  0.10203184498E+04  0.00000000000E+00 0. -1.
         25    2    1    2    0    0 -0.88161619125E+02 -0.60711178739E+02 -0.54434955459E+03  0.56870262987E+03  0.12509166772E+03 0.  0.
          5    1    3    3  502    0 -0.57092255380E+01 -0.65952942970E+02 -0.36779630265E+03  0.37372982031E+03  0.41800000000E+01 0. -1.
         -5    1    3    3    0  502 -0.82452393587E+02  0.52417642310E+01 -0.17655325194E+03  0.19497280957E+03  0.41800000000E+01 0. -1.
        -11    1    1    2    0    0  0.13844945276E+02  0.40077962769E+02 -0.58012881240E+02  0.71856941204E+02  0.00000000000E+00 0.  1.
         11    1    1    2    0    0  0.74316673849E+02  0.20633215970E+02 -0.39512886001E+03  0.40258603258E+03  0.00000000000E+00 0. -1.
</event>
<event>
 7    1  0.2873461E-009  0.1395827E+03  0.7561462E-02  0.1213892E+00
         -2   -1    0    0    0  501 -0.00000000000E+00  0.00000000000E+00  0.60308604148E+02  0.60308604148E+02  0.00000000000E+00 0. -1.
          2   -1    0    0  501    0  0.00000000000E+00 -0.00000000000E+00 -0.41200460061E+03  0.41200460061E+03  0.00000000000E+00 0.  1.
         25    2    1    2    0    0 -0.11283732847E+03 -0.47361741022E+01 -0.21146799011E+03  0.27040923866E+03  0.12509097278E+03 0.  0.
          5    1    3    3  502    0 -0.14495770218E+01  0.43068534144E+02 -0.83749530191E+02  0.94278608995E+02  0.41800000000E+01 0. -1.
         -5    1    3    3    0  502 -0.11138775144E+03 -0.47804708246E+02 -0.12771845991E+03  0.17613062966E+03  0.41800000000E+01 0. -1.
        -11    1    1    2    0    0  0.98353874875E+02 -0.25195634439E+01 -0.15256788530E+03  0.18154005764E+03  0.00000000000E+00 0.  1.
         11    1    1    2    0    0  0.14483453590E+02  0.72557375461E+01  0.12339878947E+02  0.20363908457E+02  0.00000000000E+00 0. -1.
</event>
<event>
 6    1  0.2873461E-009  0.8255429E+02  0.7561462E-02  0.1321955E+00
          1   -1    0    0  501    0  0.00000000000E+00  0.00000000000E+00  0.44357528826E+03  0.44357528826E+03  0.00000000000E+00 0. -1.
         -1   -1    0    0    0  501 -0.00000000000E+00 -0.00000000000E+00 -0.38611100931E+02  0.38611100931E+02  0.00000000000E+00 0.  1.
          5    1    1    2  502    0  0.13667606593E+02 -0.43886608408E+02  0.23199241056E+03  0.23653919089E+03  0.41800000000E+01 0. -1.
         -5    1    1    2    0  502 -0.22964001423E+02  0.62874242901E+02  0.11818765844E+03  0.13589080465E+03  0.41800000000E+01 0. -1.
        -11    1    1    2    0    0 -0.15608728933E+02 -0.21811924881E+02  0.73652052492E+02  0.78383782265E+02  0.00000000000E+00 0. -1.
         11    1    1    2    0    0  0.24905123763E+02  0.28242903869E+01 -0.18867934161E+02  0.31372611388E+02  0.00000000000E+00 0.  1.
</event>
<event>
 7    1  0.2873461E-009  0.1953185E+03  0.7561462E-02  0.1153750E+00
          2   -1    0    0  501    0  0.00000000000E+00  0.00000000000E+00  0.14103654436E+04  0.14103654436E+04  0.00000000000E+00 0. -1.
         -2   -1    0    0    0  501 -0.00000000000E+00 -0.00000000000E+00 -0.33794870125E+02  0.33794870125E+02  0.00000000000E+00 0.  1.
         25    2    1    2    0    0 -0.73996677721E+00 -0.17792023819E+03  0.50100075167E+03  0.54617243551E+03  0.12508564038E+03 0.  0.
          5    1    3    3  502    0 -0.50967199259E+02 -0.10706808117E+03  0.37311820864E+03  0.39153020244E+03  0.41800000000E+01 0. -1.
         -5    1    3    3    0  502  0.50227232482E+02 -0.70852157015E+02  0.12788254304E+03  0.15464223307E+03  0.41800000000E+01 0. -1.
        -11    1    1    2    0    0 -0.16119728694E+02  0.15849244338E+03  0.83417826215E+03  0.84925442201E+03  0.00000000000E+00 0. -1.
         11    1    1    2    0    0  0.16859695471E+02  0.19427794804E+02  0.41391559629E+02  0.48733456176E+02  0.00000000000E+00 0.  1.
</event>
<event>
 7    1  0.2873461E-009  0.1327613E+03  0.7561462E-02  0.1223415E+00
          2   -1    0    0  501    0  0.00000000000E+00  0.00000000000E+00  0.25703044738E+02  0.25703044738E+02  0.00000000000E+00 0.  1.
         -2   -1    0    0    0  501 -0.00000000000E+00 -0.00000000000E+00 -0.82158997440E+03  0.82158997440E+03  0.00000000000E+00 0. -1.
         25    2    1    2    0    0 -0.25150109236E+02  0.89923780194E+02 -0.48428849402E+03  0.50883237853E+03  0.12512485669E+03 0.  0.
          5    1    3    3  502    0  0.29504696253E+02 -0.12386359312E+01 -0.24697220883E+03  0.24876656860E+03  0.41800000000E+01 0. -1.
         -5    1    3    3    0  502 -0.54654805490E+02  0.91162416125E+02 -0.23731628519E+03  0.26006580993E+03  0.41800000000E+01 0. -1.
        -11    1    1    2    0    0  0.87839138314E+01  0.18073164058E+02 -0.78618747830E+02  0.81146188522E+02  0.00000000000E+00 0. -1.
         11    1    1    2    0    0  0.16366195405E+02 -0.10799694425E+03 -0.23297968782E+03  0.25731445209E+03  0.00000000000E+00 0.  1.
</event>
<event>
 7    1  0.2873461E-009  0.1036808E+03  0.7561462E-02  0.1272741E+00
          1   -1    0    0  501    0  0.00000000000E+00  0.00000000000E+00  0.95826998045E+02  0.95826998045E+02  0.00000000000E+00 0. -1.
         -1   -1    0    0    0  501 -0.00000000000E+00 -0.00000000000E+00 -0.16794371319E+03  0.16794371319E+03  0.00000000000E+00 0.  1.
         25    2    1    2    0    0  0.54059764726E+02 -0.72825440772E+01 -0.29163622158E+01  0.13649741780E+03  0.12509015264E+03 0.  0.
          5    1    3    3  502    0  0.64300931486E+02 -0.55166840980E+02 -0.14371163002E+02  0.86034835153E+02  0.41800000000E+01 0. -1.
         -5    1    3    3    0  502 -0.10241166760E+02  0.47884296903E+02  0.11454800786E+02  0.50462582649E+02  0.41800000000E+01 0. -1.
        -11    1    1    2    0    0 -0.36082528965E+02  0.28210117230E+02 -0.84214453463E+02  0.95863620747E+02  0.00000000000E+00 0.  1.
         11    1    1    2    0    0 -0.17977235762E+02 -0.20927573153E+02  0.15014100532E+02  0.31409672690E+02  0.00000000000E+00 0. -1.
</event>
<event>
 7    1  0.2873461E-009  0.1124660E+03  0.7561462E-02  0.1256070E+00
         -1   -1    0    0    0  501 -0.00000000000E+00  0.00000000000E+00  0.28630589399E+03  0.28630589399E+03  0.00000000000E+00 0.  1.
          1   -1    0    0  501    0  0.00000000000E+00 -0.00000000000E+00 -0.10559938260E+03  0.10559938260E+03  0.00000000000E+00 0. -1.
         25    2    1    2    0    0  0.89208808178E+02 -0.43916178393E+02  0.19851651127E+03  0.25484202749E+03  0.12509520994E+03 0.  0.
          5    1    3    3  502    0  0.38081142086E+02 -0.45106555342E+02  0.19457852237E+03  0.20337907583E+03  0.41800000000E+01 0. -1.
         -5    1    3    3    0  502  0.51127666092E+02  0.11903769494E+01  0.39379888985E+01  0.51462951663E+02  0.41800000000E+01 0. -1.
        -11    1    1    2    0    0 -0.33960998030E+02  0.48271254900E+02  0.27845698096E+02  0.65259837107E+02  0.00000000000E+00 0.  1.
         11    1    1    2    0    0 -0.55247810148E+02 -0.43550765065E+01 -0.45655697972E+02  0.71803412000E+02  0.00000000000E+00 0. -1.
</event>
<event>
 7    1  0.2873461E-009  0.1803556E+03  0.7561462E-02  0.1167459E+00
          2   -1    0    0  501    0  0.00000000000E+00  0.00000000000E+00  0.29385016674E+03  0.29385016674E+03  0.00000000000E+00 0.  1.
         -2   -1    0    0    0  501 -0.00000000000E+00 -0.00000000000E+00 -0.14176092588E+03  0.14176092588E+03  0.00000000000E+00 0. -1.
         25    2    1    2    0    0 -0.15656217669E+03  0.18661682114E+02  0.36857414799E+01  0.20129691994E+03  0.12508753631E+03 0.  0.
          5    1    3    3  502    0  0.18896075455E+02 -0.67197865779E+01  0.12047250693E+02  0.23766065061E+02  0.41800000000E+01 0.  1.
         -5    1    3    3    0  502 -0.17545825214E+03  0.25381468692E+02 -0.83615092127E+01  0.17753085488E+03  0.41800000000E+01 0.  1.
        -11    1    1    2    0    0  0.70646212937E+02  0.12018918268E+02  0.15838388127E+02  0.73390710156E+02  0.00000000000E+00 0. -1.
         11    1    1    2    0    0  0.85915963752E+02 -0.30680600382E+02  0.13256511126E+03  0.16092346252E+03  0.00000000000E+00 0.  1.
</event>
<event>
 7    1  0.2873461E-009  0.1009797E+03  0.7561462E-02  0.1278249E+00
          2   -1    0    0  501    0  0.00000000000E+00  0.00000000000E+00  0.31819028639E+03  0.31819028639E+03  0.00000000000E+00 0.  1.
         -2   -1    0    0    0  501 -0.00000000000E+00 -0.00000000000E+00 -0.76134860285E+02  0.76134860285E+02  0.00000000000E+00 0. -1.
         25    2    1    2    0    0  0.38900109690E+02  0.61830624427E+02  0.23709980130E+03  0.27784668161E+03  0.12508484343E+03 0.  0.
          5    1    3    3  502    0 -0.32856089998E+02  0.21670078829E+02  0.16077635172E+03  0.16557663676E+03  0.41800000000E+01 0. -1.
         -5    1    3    3    0  502  0.71756199688E+02  0.40160545598E+02  0.76323449580E+02  0.11227004486E+03  0.41800000000E+01 0. -1.
        -11    1    1    2    0    0 -0.32789260922E+02 -0.21404114090E+02  0.44723027975E+02  0.59442585434E+02  0.00000000000E+00 0.  1.
         11    1    1    2    0    0 -0.61108487675E+01 -0.40426510337E+02 -0.39767403168E+02  0.57035879632E+02  0.00000000000E+00 0. -1.
</event>
<event>
 7    1  0.2873461E-009  0.9549206E+02  0.7561462E-02  0.1290072E+00
         -2   -1    0    0    0  501 -0.00000000000E+00  0.00000000000E+00  0.25937082127E+03  0.25937082127E+03  0.00000000000E+00 0. -1.
          2   -1    0    0  501    0  0.00000000000E+00 -0.00000000000E+00 -0.74804803467E+02  0.74804803467E+02  0.00000000000E+00 0.  1.
         25    2    1    2    0    0  0.42659370297E+02  0.10337700219E+02  0.18974404504E+03  0.23146692567E+03  0.12508974830E+03 0.  0.
          5    1    3    3  502    0 -0.35151385482E+02  0.75518530701E+01  0.13299374121E+02  0.38561588895E+02  0.41800000000E+01 0. -1.
         -5    1    3    3    0  502  0.77810755780E+02  0.27858471487E+01  0.17644467092E+03  0.19290533677E+03  0.41800000000E+01 0. -1.
        -11    1    1    2    0    0 -0.61413493722E+01  0.25153504381E+02  0.30889708357E+02  0.40306191052E+02  0.00000000000E+00 0. -1.
         11    1    1    2    0    0 -0.36518020925E+02 -0.35491204600E+02 -0.36067735594E+02  0.62402508019E+02  0.00000000000E+00 0.  1.
</event>
<event>
 7    1  0.2873461E-009  0.1748418E+03  0.7561462E-02  0.1172891E+00
          2   -1    0    0  501    0  0.00000000000E+00  0.00000000000E+00  0.35400227156E+03  0.35400227156E+03  0.00000000000E+00 0. -1.
         -2   -1    0    0    0  501 -0.00000000000E+00 -0.00000000000E+00 -0.11139894695E+03  0.11139894695E+03  0.00000000000E+00 0.  1.
         25    2    1    2    0    0 -0.14873991523E+03 -0.41318214413E+02  0.55987084842E+02  0.20642639826E+03  0.12508615832E+03 0.  0.
          5    1    3    3  502    0  0.24098273491E+01 -0.42600856970E+02 -0.54318810769E+01  0.43215946298E+02  0.41800000000E+01 0.  1.
         -5    1    3    3    0  502 -0.15114974258E+03  0.12826425570E+01  0.61418965919E+02  0.16321045196E+03  0.41800000000E+01 0.  1.
        -11    1    1    2    0    0  0.43558451855E+02  0.21459433502E+02  0.58699325261E+01  0.48911165618E+02  0.00000000000E+00 0. -1.
         11    1    1    2    0    0  0.10518146338E+03  0.19858780911E+02  0.18074630724E+03  0.21006365464E+03  0.00000000000E+00 0.  1.
</event>
<event>
 7    1  0.2873461E-009  0.9357853E+02  0.7561462E-02  0.1294410E+00
          1   -1    0    0  501    0  0.00000000000E+00  0.00000000000E+00  0.21846533636E+03  0.21846533636E+03  0.00000000000E+00 0. -1.
         -1   -1    0    0    0  501 -0.00000000000E+00 -0.00000000000E+00 -0.54734752623E+02  0.54734752623E+02  0.00000000000E+00 0.  1.
         25    2    1    2    0    0  0.11515187703E+02  0.39776350558E+01  0.80466798984E+02  0.14923311344E+03  0.12508874962E+03 0.  0.
          5    1    3    3  502    0 -0.45679104027E+02  0.18751132058E+01 -0.51153958718E+01  0.46192383238E+02  0.41800000000E+01 0.  1.
         -5    1    3    3    0  502  0.57194291731E+02  0.21025218500E+01  0.85582194856E+02  0.10304073020E+03  0.41800000000E+01 0.  1.
        -11    1    1    2    0    0  0.46573124216E+00  0.39124427609E+02  0.64532139843E+02  0.75467442080E+02  0.00000000000E+00 0. -1.
         11    1    1    2    0    0 -0.11980918946E+02 -0.43102062665E+02  0.18731644907E+02  0.48499533459E+02  0.00000000000E+00 0.  1.
</event>
<event>
 7    1  0.2873461E-009  0.1232390E+03  0.7561462E-02  0.1237847E+00
         -2   -1    0    0    0  501 -0.00000000000E+00  0.00000000000E+00  0.52776321643E+02  0.52776321643E+02  0.00000000000E+00 0.  1.
          2   -1    0    0  501    0  0.00000000000E+00 -0.00000000000E+00 -0.39988069536E+03  0.39988069536E+03  0.00000000000E+00 0. -1.
         25    2    1    2    0    0 -0.71399821764E+02  0.63742828321E+02 -0.19966582746E+03  0.25431526526E+03  0.12509487912E+03 0.  0.
          5    1    3    3  502    0 -0.41375708869E+02  0.95319146907E+02 -0.17632576729E+03  0.20470939808E+03  0.41800000000E+01 0. -1.
         -5    1    3    3    0  502 -0.30024112895E+02 -0.31576318586E+02 -0.23340060170E+02  0.49605867186E+02  0.41800000000E+01 0. -1.
        -11    1    1    2    0    0  0.45619678001E+02 -0.24570414288E+02 -0.95384902489E+01  0.52686270274E+02  0.00000000000E+00 0.  1.
         11    1    1    2    0    0  0.25780143763E+02 -0.39172414033E+02 -0.13790005601E+03  0.14565548147E+03  0.00000000000E+00 0. -1.
</event>
<event>
 7    1  0.2873461E-009  0.1234108E+03  0.7561462E-02  0.1237574E+00
         -1   -1    0    0    0  501 -0.00000000000E+00  0.00000000000E+00  0.15227556450E+03  0.15227556450E+03  0.00000000000E+00 0.  1.
          1   -1    0    0  501    0  0.00000000000E+00 -0.00000000000E+00 -0.10200776884E+03  0.10200776884E+03  0.00000000000E+00 0. -1.
         25    2    1    2    0    0 -0.58647363714E+01  0.58279557912E+02  0.28830785395E+02  0.14110381412E+03  0.12509264635E+03 0.  0.
          5    1    3    3  502    0 -0.26462271521E+02 -0.34040210628E+02  0.11867017880E+02  0.44914210079E+02  0.41800000000E+01 0.  1.
         -5    1    3    3    0  502  0.20597535149E+02  0.92319768540E+02  0.16963767515E+02  0.96189604042E+02  0.41800000000E+01 0.  1.
        -11    1    1    2    0    0 -0.42718275989E+02 -0.21103561660E+02  0.20831742554E+02  0.52001662627E+02  0.00000000000E+00 0.  1.
         11    1    1    2    0    0  0.48583012360E+02 -0.37175996252E+02  0.60526771311E+00  0.61177856585E+02  0.00000000000E+00 0. -1.
</event>
<event>
 7    1  0.2873461E-009  0.1138492E+03  0.7561462E-02  0.1253603E+00
         -3   -1    0    0    0  501 -0.00000000000E+00  0.00000000000E+00  0.57600889283E+02  0.57600889283E+02  0.00000000000E+00 0.  1.
          3   -1    0    0  501    0  0.00000000000E+00 -0.00000000000E+00 -0.34261222464E+03  0.34261222464E+03  0.00000000000E+00 0. -1.
         25    2    1    2    0    0 -0.34894129379E+02  0.59543545857E+02 -0.23457704219E+03  0.27466664664E+03  0.12510932792E+03 0.  0.
          5    1    3    3  502    0  0.23987584284E+02  0.46923952186E+02 -0.19605757240E+03  0.20305985714E+03  0.41800000000E+01 0. -1.
         -5    1    3    3    0  502 -0.58881713663E+02  0.12619593670E+02 -0.38519469791E+02  0.71606789492E+02  0.41800000000E+01 0. -1.
        -11    1    1    2    0    0 -0.31057659467E+02 -0.25858025751E+02 -0.23469853059E+02  0.46733817626E+02  0.00000000000E+00 0.  1.
         11    1    1    2    0    0  0.65951788846E+02 -0.33685520106E+02 -0.26964440112E+02  0.78812649666E+02  0.00000000000E+00 0. -1.
</event>
<event>
 7    1  0.2873461E-009  0.1628034E+03  0.7561462E-02  0.1185568E+00
          1   -1    0    0  501    0  0.00000000000E+00  0.00000000000E+00  0.84831454870E+03  0.84831454870E+03  0.00000000000E+00 0. -1.
         -1   -1    0    0    0  501 -0.00000000000E+00 -0.00000000000E+00 -0.44594880288E+02  0.44594880288E+02  0.00000000000E+00 0.  1.
         25    2    1    2    0    0  0.48283058931E+02 -0.12520699682E+03  0.62631779206E+03  0.65263345698E+03  0.12509359175E+03 0.  0.
          5    1    3    3  502    0  0.48453740576E+02 -0.14613403392E+03  0.59586396599E+03  0.61544639020E+03  0.41800000000E+01 0.  1.
         -5    1    3    3    0  502 -0.17068164531E+00  0.20927037097E+02  0.30453826063E+02  0.37187066781E+02  0.41800000000E+01 0.  1.
        -11    1    1    2    0    0 -0.39830442554E+02  0.19753625959E+02  0.15916027398E+02  0.47222768033E+02  0.00000000000E+00 0.  1.
         11    1    1    2    0    0 -0.84526163773E+01  0.10545337086E+03  0.16148584896E+03  0.19305320397E+03  0.00000000000E+00 0. -1.
</event>
<event>
 7    1  0.2873461E-009  0.2082889E+03  0.7561462E-02  0.1142928E+00
         -3   -1    0    0    0  501 -0.00000000000E+00  0.00000000000E+00  0.30942326894E+03  0.30942326894E+03  0.00000000000E+00 0.  1.
          3   -1    0    0  501    0  0.00000000000E+00 -0.00000000000E+00 -0.15619083625E+03  0.15619083625E+03  0.00000000000E+00 0. -1.
         25    2    1    2    0    0 -0.17565847456E+03 -0.42343997124E+02  0.13968918420E+02  0.22021294758E+03  0.12509875228E+03 0.  0.
          5    1    3    3  502    0  0.40405989628E+01 -0.34624091261E+02 -0.14640483871E+02  0.38039062864E+02  0.41800000000E+01 0. -1.
         -5    1    3    3    0  502 -0.17969907353E+03 -0.77199058632E+01  0.28609402291E+02  0.18217388471E+03  0.41800000000E+01 0. -1.
        -11    1    1    2    0    0  0.10524825272E+03  0.69461938763E+02  0.95414096605E+02  0.15813287283E+03  0.00000000000E+00 0. -1.
         11    1    1    2    0    0  0.70410221842E+02 -0.27117941638E+02  0.43849417664E+02  0.87268284778E+02  0.00000000000E+00 0.  1.
</event>
<event>
 7    1  0.2873461E-009  0.1934198E+03  0.7561462E-02  0.1155413E+00
         -2   -1    0    0    0  501 -0.00000000000E+00  0.00000000000E+00  0.33196456586E+02  0.33196456586E+02  0.00000000000E+00 0.  1.
          2   -1    0    0  501    0  0.00000000000E+00 -0.00000000000E+00 -0.14719558047E+04  0.14719558047E+04  0.00000000000E+00 0. -1.
         25    2    1    2    0    0  0.13451357824E+03 -0.10919249126E+03 -0.10925872362E+04  0.11132884014E+04  0.12508914025E+03 0.  0.
          5    1    3    3  502    0 -0.10609361328E+02  0.15750690655E+02 -0.59579179279E+02  0.62672113475E+02  0.41800000000E+01 0.  1.
         -5    1    3    3    0  502  0.14512293957E+03 -0.12494318192E+03 -0.10330080569E+04  0.10506162879E+04  0.41800000000E+01 0.  1.
        -11    1    1    2    0    0 -0.86513454073E+02  0.51040623546E+02 -0.13977399707E+03  0.17212348255E+03  0.00000000000E+00 0.  1.
         11    1    1    2    0    0 -0.48000124171E+02  0.58151867714E+02 -0.20639811481E+03  0.21974037734E+03  0.00000000000E+00 0. -1.
</event>
<event>
 7    1  0.2873461E-009  0.8502824E+02  0.7561462E-02  0.1315359E+00
          2   -1    0    0  501    0  0.00000000000E+00  0.00000000000E+00  0.40219366207E+03  0.40219366207E+03  0.00000000000E+00 0. -1.
         -2   -1    0    0    0  501 -0.00000000000E+00 -0.00000000000E+00 -0.30311412620E+02  0.30311412620E+02  0.00000000000E+00 0.  1.
         25    2    1    2    0    0 -0.61513154526E+01  0.18165268598E+02  0.18552023547E+03  0.22457360736E+03  0.12509089371E+03 0.  0.
          5    1    3    3  502    0 -0.17784773503E+02 -0.50398701270E+02  0.10646759480E+03  0.11920213254E+03  0.41800000000E+01 0. -1.
         -5    1    3    3    0  502  0.11633458051E+02  0.68563969868E+02  0.79052640666E+02  0.10537147482E+03  0.41800000000E+01 0. -1.
        -11    1    1    2    0    0 -0.14012820033E+02  0.60540289734E+01 -0.33431286069E+01  0.15626480760E+02  0.00000000000E+00 0.  1.
         11    1    1    2    0    0  0.20164135485E+02 -0.24219297571E+02  0.18970514259E+03  0.19230498657E+03  0.00000000000E+00 0. -1.
</event>
<event>
 7    1  0.2873461E-009  0.2368311E+03  0.7561462E-02  0.1121922E+00
         -1   -1    0    0    0  501 -0.00000000000E+00  0.00000000000E+00  0.18847013651E+03  0.18847013651E+03  0.00000000000E+00 0.  1.
          1   -1    0    0  501    0  0.00000000000E+00 -0.00000000000E+00 -0.32286658530E+03  0.32286658530E+03  0.00000000000E+00 0. -1.
         25    2    1    2    0    0 -0.89762739548E+01 -0.21880899222E+03 -0.98798428964E+02  0.27088107624E+03  0.12512984986E+03 0.  0.
          5    1    3    3  502    0 -0.28970120618E+02 -0.18602510841E+02 -0.54846465651E+02  0.64891667359E+02  0.41800000000E+01 0.  1.
         -5    1    3    3    0  502  0.19993846663E+02 -0.20020648138E+03 -0.43951963313E+02  0.20598940888E+03  0.41800000000E+01 0.  1.
        -11    1    1    2    0    0  0.49774211545E+02  0.93083173300E+02 -0.12888621517E+02  0.10633938993E+03  0.00000000000E+00 0.  1.
         11    1    1    2    0    0 -0.40797937590E+02  0.12572581892E+03 -0.22709398311E+02  0.13411625564E+03  0.00000000000E+00 0. -1.
</event>
<event>
 7    1  0.2873461E-009  0.1093871E+03  0.7561462E-02  0.1261709E+00
         -3   -1    0    0    0  501 -0.00000000000E+00  0.00000000000E+00  0.10477059150E+03  0.10477059150E+03  0.00000000000E+00 0.  1.
          3   -1    0    0  501    0  0.00000000000E+00 -0.00000000000E+00 -0.19210175166E+03  0.19210175166E+03  0.00000000000E+00 0. -1.
         25    2    1    2    0    0 -0.13073117258E+02  0.91072020601E+02 -0.15460447182E+02  0.15604681470E+03  0.12508622475E+03 0.  0.
          5    1    3    3  502    0 -0.35430558229E+02  0.44297418754E+02 -0.63497075715E+02  0.85246330062E+02  0.41800000000E+01 0. -1.
         -5    1    3    3    0  502  0.22357440971E+02  0.46774601847E+02  0.48036628534E+02  0.70800484642E+02  0.41800000000E+01 0. -1.
        -11    1    1    2    0    0  0.36028251780E+02 -0.39659554976E+02 -0.56105282835E+01  0.53873864302E+02  0.00000000000E+00 0.  1.
         11    1    1    2    0    0 -0.22955134521E+02 -0.51412465625E+02 -0.66260184694E+02  0.86951664148E+02  0.00000000000E+00 0. -1.
</event>
<event>
 7    1  0.2873461E-009  0.2033094E+03  0.7561462E-02  0.1146977E+00
          2   -1    0    0  501    0  0.00000000000E+00  0.00000000000E+00  0.91520375473E+02  0.91520375473E+02  0.00000000000E+00 0. -1.
         -2   -1    0    0    0  501 -0.00000000000E+00 -0.00000000000E+00 -0.51500641796E+03  0.51500641796E+03  0.00000000000E+00 0.  1.
         25    2    1    2    0    0 -0.18269997031E+03 -0.45426043625E+01 -0.27740477738E+03  0.35496632626E+03  0.12509103828E+03 0.  0.
          5    1    3    3  502    0 -0.80804068869E+02 -0.44480689854E+02 -0.56090305102E+02  0.10803436510E+03  0.41800000000E+01 0. -1.
         -5    1    3    3    0  502 -0.10189590144E+03  0.39938085491E+02 -0.22131447228E+03  0.24693196116E+03  0.41800000000E+01 0. -1.
        -11    1    1    2    0    0  0.12586229827E+03 -0.40525768442E+02 -0.96596717222E+02  0.16375158568E+03  0.00000000000E+00 0.  1.
         11    1    1    2    0    0  0.56837672036E+02  0.45068372804E+02 -0.49484547879E+02  0.87808881490E+02  0.00000000000E+00 0. -1.
</event>
<event>
 7    1  0.2873461E-009  0.1188863E+03  0.7561462E-02  0.1244946E+00
          2   -1    0    0  501    0  0.00000000000E+00  0.00000000000E+00  0.13650548519E+03  0.13650548519E+03  0.00000000000E+00 0. -1.
         -2   -1    0    0    0  501 -0.00000000000E+00 -0.00000000000E+00 -0.39435560237E+03  0.39435560237E+03  0.00000000000E+00 0.  1.
         25    2    1    2    0    0  0.94865140195E+02  0.50574328025E+02 -0.33242798914E+03  0.37109748525E+03  0.12509123916E+03 0.  0.
          5    1    3    3  502    0  0.83182233080E+02  0.56005685236E+02 -0.34073418829E+03  0.35520864312E+03  0.41800000000E+01 0.  1.
         -5    1    3    3    0  502  0.11682907115E+02 -0.54313572112E+01  0.83061991489E+01  0.15888842127E+02  0.41800000000E+01 0.  1.
        -11    1    1    2    0    0 -0.48705188021E+02  0.79228012477E+01 -0.63527213367E+01  0.49752619913E+02  0.00000000000E+00 0.  1.
         11    1    1    2    0    0 -0.46159952174E+02 -0.58497129273E+02  0.80930593297E+02  0.11001098240E+03  0.00000000000E+00 0. -1.
</event>
<event>
 7    1  0.3212393E-009  0.1150520E+03  0.7561462E-02  0.1251490E+00
         -2   -1    0    0    0  501 -0.00000000000E+00  0.00000000000E+00  0.25159406890E+02  0.25159406890E+02  0.00000000000E+00 0.  1.
          2   -1    0    0  501    0  0.00000000000E+00 -0.00000000000E+00 -0.80516770465E+03  0.80516770465E+03  0.00000000000E+00 0. -1.
         25    2    1    2    0    0  0.45181210564E+02 -0.33173492245E+01 -0.65991671918E+03  0.67319307232E+03  0.12508592951E+03 0.  0.
          5    1    3    3  502    0 -0.35838987705E+02  0.28380485171E+02 -0.22095721791E+03  0.22567554037E+03  0.41800000000E+01 0. -1.
         -5    1    3    3    0  502  0.81020198269E+02 -0.31697834396E+02 -0.43895950128E+03  0.44751753194E+03  0.41800000000E+01 0. -1.
        -11    1    1    2    0    0 -0.60454057445E+02 -0.24606445452E+02 -0.57806256676E+02  0.87187920782E+02  0.00000000000E+00 0.  1.
         11    1    1    2    0    0  0.15272846881E+02  0.27923794677E+02 -0.62285321895E+02  0.69946118438E+02  0.00000000000E+00 0. -1.
</event>
<event>
 7    1  0.2873461E-009  0.1272673E+03  0.7561462E-02  0.1231568E+00
         -1   -1    0    0    0  501 -0.00000000000E+00  0.00000000000E+00  0.18711669280E+02  0.18711669280E+02  0.00000000000E+00 0.  1.
          1   -1    0    0  501    0  0.00000000000E+00 -0.00000000000E+00 -0.11036784943E+04  0.11036784943E+04  0.00000000000E+00 0. -1.
         25    2    1    2    0    0  0.64453918399E+02 -0.61333327199E+02 -0.49606800322E+03  0.51927520477E+03  0.12508872789E+03 0.  0.
          5    1    3    3  502    0  0.24407742944E+02 -0.78678440253E+02 -0.15666137251E+03  0.17704884330E+03  0.41800000000E+01 0. -1.
         -5    1    3    3    0  502  0.40046175455E+02  0.17345113054E+02 -0.33940663071E+03  0.34222636147E+03  0.41800000000E+01 0. -1.
        -11    1    1    2    0    0 -0.48428797501E+02 -0.14618006229E+02 -0.18314841103E+03  0.19000624988E+03  0.00000000000E+00 0.  1.
         11    1    1    2    0    0 -0.16025120898E+02  0.75951333428E+02 -0.40575041074E+03  0.41310870890E+03  0.00000000000E+00 0. -1.
</event>
<event>
 7    1  0.2873461E-009  0.1504855E+03  0.7561462E-02  0.1199878E+00
         -1   -1    0    0    0  501 -0.00000000000E+00  0.00000000000E+00  0.60245843603E+02  0.60245843603E+02  0.00000000000E+00 0.  1.
          1   -1    0    0  501    0  0.00000000000E+00 -0.00000000000E+00 -0.53295360538E+03  0.53295360538E+03  0.00000000000E+00 0. -1.
         25    2    1    2    0    0 -0.12858633294E+03 -0.49109174618E+02 -0.31675982498E+03  0.36733019690E+03  0.12509408772E+03 0.  0.
          5    1    3    3  502    0 -0.27208378049E+01 -0.26882134336E+02 -0.18014439577E+01  0.27400177101E+02  0.41800000000E+01 0.  1.
         -5    1    3    3    0  502 -0.12586549514E+03 -0.22227040282E+02 -0.31495838102E+03  0.33993001980E+03  0.41800000000E+01 0.  1.
        -11    1    1    2    0    0  0.77955070331E+02  0.54075745693E+02 -0.47543074578E+02  0.10612032417E+03  0.00000000000E+00 0.  1.
         11    1    1    2    0    0  0.50631262612E+02 -0.49665710747E+01 -0.10840486222E+03  0.11974892791E+03  0.00000000000E+00 0. -1.
</event>
<event>
 7    1  0.2873461E-009  0.1217615E+03  0.7561462E-02  0.1240219E+00
         -4   -1    0    0    0  501 -0.00000000000E+00  0.00000000000E+00  0.63375674820E+02  0.63375674820E+02  0.00000000000E+00 0.  1.
          4   -1    0    0  501    0  0.00000000000E+00 -0.00000000000E+00 -0.35381426167E+03  0.35381426167E+03  0.00000000000E+00 0. -1.
         25    2    1    2    0    0 -0.68189455557E+02  0.19271247994E+02 -0.24898086840E+03  0.28749998866E+03  0.12507432911E+03 0.  0.
          5    1    3    3  502    0  0.25235131872E+02  0.36563477303E+01 -0.57891551402E+01  0.26479567152E+02  0.41800000000E+01 0. -1.
         -5    1    3    3    0  502 -0.93424587429E+02  0.15614900264E+02 -0.24319171326E+03  0.26102042151E+03  0.41800000000E+01 0. -1.
        -11    1    1    2    0    0  0.88776807181E+02 -0.36537836723E+02 -0.33191003189E+02  0.10157744680E+03  0.00000000000E+00 0. -1.
         11    1    1    2    0    0 -0.20587351623E+02  0.17266588729E+02 -0.82667152676E+01  0.28112501036E+02  0.00000000000E+00 0.  1.
</event>
<event>
 7    1  0.2873461E-009  0.1809150E+03  0.7561462E-02  0.1166920E+00
         -2   -1    0    0    0  501 -0.00000000000E+00  0.00000000000E+00  0.14346848260E+03  0.14346848260E+03  0.00000000000E+00 0.  1.
          2   -1    0    0  501    0  0.00000000000E+00 -0.00000000000E+00 -0.27347668879E+03  0.27347668879E+03  0.00000000000E+00 0. -1.
         25    2    1    2    0    0 -0.62275884779E+02 -0.15106330257E+03 -0.38586622514E+02  0.20936586329E+03  0.12508689006E+03 0.  0.
          5    1    3    3  502    0 -0.88311238132E+02 -0.97648200019E+02 -0.61713292439E+02  0.14546493946E+03  0.41800000000E+01 0. -1.
         -5    1    3    3    0  502  0.26035353353E+02 -0.53415102550E+02  0.23126669925E+02  0.63900923831E+02  0.41800000000E+01 0. -1.
        -11    1    1    2    0    0  0.29871116272E+02  0.12621209228E+03 -0.28862771517E+02  0.13287149959E+03  0.00000000000E+00 0.  1.
         11    1    1    2    0    0  0.32404768507E+02  0.24851210294E+02 -0.62558812158E+02  0.74707808519E+02  0.00000000000E+00 0. -1.
</event>
<event>
 7    1  0.2873461E-009  0.2010978E+03  0.7561462E-02  0.1148816E+00
         -2   -1    0    0    0  501 -0.00000000000E+00  0.00000000000E+00  0.15437157220E+03  0.15437157220E+03  0.00000000000E+00 0. -1.
          2   -1    0    0  501    0  0.00000000000E+00 -0.00000000000E+00 -0.30065037835E+03  0.30065037835E+03  0.00000000000E+00 0.  1.
         25    2    1    2    0    0 -0.82732476200E+02 -0.16503831836E+03 -0.91602350702E+02  0.24108171761E+03  0.12508834784E+03 0.  0.
          5    1    3    3  502    0 -0.88173981301E+02 -0.74133242353E+02 -0.50629271962E+01  0.11538411603E+03  0.41800000000E+01 0. -1.
         -5    1    3    3    0  502  0.54415051007E+01 -0.90905076007E+02 -0.86539423506E+02  0.12569760158E+03  0.41800000000E+01 0. -1.
        -11    1    1    2    0    0  0.49398833034E+00  0.70316422641E+02 -0.53729556297E+02  0.88495810846E+02  0.00000000000E+00 0.  1.
         11    1    1    2    0    0  0.82238487870E+02  0.94721895719E+02 -0.94689914715E+00  0.12544442209E+03  0.00000000000E+00 0. -1.
</event>
<event>
 7    1  0.2873461E-009  0.9350662E+02  0.7561462E-02  0.1294575E+00
          1   -1    0    0  501    0  0.00000000000E+00  0.00000000000E+00  0.36181589072E+02  0.36181589072E+02  0.00000000000E+00 0. -1.
         -1   -1    0    0    0  501 -0.00000000000E+00 -0.00000000000E+00 -0.42118713760E+03  0.42118713760E+03  0.00000000000E+00 0.  1.
         25    2    1    2    0    0 -0.35052857868E+02 -0.47893091752E+02 -0.19483668895E+03  0.23902267029E+03  0.12509216790E+03 0.  0.
          5    1    3    3  502    0  0.25421152651E+02  0.15100463592E+02 -0.53447694580E+01  0.30336413159E+02  0.41800000000E+01 0. -1.
         -5    1    3    3    0  502 -0.60474010519E+02 -0.62993555344E+02 -0.18949191949E+03  0.20868625713E+03  0.41800000000E+01 0. -1.
        -11    1    1    2    0    0  0.97894442737E+01 -0.50876961579E+01  0.67039204360E+01  0.12909702576E+02  0.00000000000E+00 0. -1.
         11    1    1    2    0    0  0.25263413594E+02  0.52980787910E+02 -0.19687278002E+03  0.20543635381E+03  0.00000000000E+00 0.  1.
</event>
<event>
 7    1  0.2873461E-009  0.1118768E+03  0.7561462E-02  0.1257133E+00
         -2   -1    0    0    0  501 -0.00000000000E+00  0.00000000000E+00  0.19892302082E+02  0.19892302082E+02  0.00000000000E+00 0.  1.
          2   -1    0    0  501    0  0.00000000000E+00 -0.00000000000E+00 -0.66308694005E+03  0.66308694005E+03  0.00000000000E+00 0. -1.
         25    2    1    2    0    0 -0.39521025625E+02  0.45101678460E+01 -0.40371316931E+03  0.42451929700E+03  0.12510018931E+03 0.  0.
          5    1    3    3  502    0 -0.39808132549E+02  0.59726084651E+02 -0.17491249628E+03  0.18911305180E+03  0.41800000000E+01 0. -1.
         -5    1    3    3    0  502  0.28710692332E+00 -0.55215916805E+02 -0.22880067303E+03  0.23540624520E+03  0.41800000000E+01 0. -1.
        -11    1    1    2    0    0 -0.14621778884E+02  0.29231575141E+02 -0.96696313685E+02  0.10207085031E+03  0.00000000000E+00 0. -1.
         11    1    1    2    0    0  0.54142804509E+02 -0.33741742987E+02 -0.14278515497E+03  0.15638909483E+03  0.00000000000E+00 0.  1.
</event>
<event>
 7    1  0.2873461E-009  0.1241124E+03  0.7561462E-02  0.1236463E+00
          1   -1    0    0  501    0  0.00000000000E+00  0.00000000000E+00  0.81831084743E+03  0.81831084743E+03  0.00000000000E+00 0. -1.
         -1   -1    0    0    0  501 -0.00000000000E+00 -0.00000000000E+00 -0.28862534180E+02  0.28862534180E+02  0.00000000000E+00 0.  1.
         25    2    1    2    0    0 -0.10217114240E+03 -0.28977029266E+02  0.47373332366E+03  0.50134766444E+03  0.12509039985E+03 0.  0.
          5    1    3    3  502    0 -0.59234333870E+02 -0.23196116443E+02  0.67714920427E+02  0.93002951434E+02  0.41800000000E+01 0.  1.
         -5    1    3    3    0  502 -0.42936808529E+02 -0.57809128232E+01  0.40601840323E+03  0.40834471301E+03  0.41800000000E+01 0.  1.
        -11    1    1    2    0    0  0.10436804474E+03  0.52841505125E+02  0.25503799374E+03  0.28058740470E+03  0.00000000000E+00 0. -1.
         11    1    1    2    0    0 -0.21969023389E+01 -0.23864475859E+02  0.60676995859E+02  0.65238312473E+02  0.00000000000E+00 0.  1.
</event>
<event>
 7    1  0.2873461E-009  0.1725767E+03  0.7561462E-02  0.1175187E+00
          2   -1    0    0  501    0  0.00000000000E+00  0.00000000000E+00  0.41641469111E+03  0.41641469111E+03  0.00000000000E+00 0. -1.
         -2   -1    0    0    0  501 -0.00000000000E+00 -0.00000000000E+00 -0.75834798244E+02  0.75834798244E+02  0.00000000000E+00 0.  1.
         25    2    1    2    0    0  0.13960653903E+03 -0.61489951928E+01  0.17540187177E+03  0.25678985795E+03  0.12508964243E+03 0.  0.
          5    1    3    3  502    0  0.11425942422E+03  0.43238733697E+02  0.15522192994E+03  0.19757561603E+03  0.41800000000E+01 0. -1.
         -5    1    3    3    0  502  0.25347114810E+02 -0.49387728890E+02  0.20179941827E+02  0.59214241921E+02  0.41800000000E+01 0. -1.
        -11    1    1    2    0    0 -0.11665159133E+03 -0.33556267914E+02  0.12818982390E+03  0.17653964945E+03  0.00000000000E+00 0.  1.
         11    1    1    2    0    0 -0.22954947694E+02  0.39705263106E+02  0.36988197194E+02  0.58919981956E+02  0.00000000000E+00 0. -1.
</event>
<event>
 7    1  0.2873461E-009  0.1372557E+03  0.7561462E-02  0.1217070E+00
         -1   -1    0    0    0  501 -0.00000000000E+00  0.00000000000E+00  0.93294796697E+02  0.93294796697E+02  0.00000000000E+00 0.  1.
          1   -1    0    0  501    0  0.00000000000E+00 -0.00000000000E+00 -0.34146365697E+03  0.34146365697E+03  0.00000000000E+00 0. -1.
         25    2    1    2    0    0 -0.32966369717E+02  0.10547123795E+03 -0.24572863460E+02  0.16870767962E+03  0.12508993555E+03 0.  0.
          5    1    3    3  502    0 -0.11952391416E+02 -0.23292952805E+02 -0.27421170583E+02  0.38142028093E+02  0.41800000000E+01 0. -1.
         -5    1    3    3    0  502 -0.21013978301E+02  0.12876419075E+03  0.28483071229E+01  0.13056565152E+03  0.41800000000E+01 0. -1.
        -11    1    1    2    0    0  0.24001533176E+01 -0.72368334464E+02 -0.53340145302E+02  0.89933907231E+02  0.00000000000E+00 0.  1.
         11    1    1    2    0    0  0.30566216399E+02 -0.33102903484E+02 -0.17025585152E+03  0.17611686682E+03  0.00000000000E+00 0. -1.
</event>
<event>
 7    1  0.2873461E-009  0.1545044E+03  0.7561462E-02  0.1195045E+00
          2   -1    0    0  501    0  0.00000000000E+00  0.00000000000E+00  0.65974976554E+03  0.65974976554E+03  0.00000000000E+00 0. -1.
         -2   -1    0    0    0  501 -0.00000000000E+00 -0.00000000000E+00 -0.52598503500E+02  0.52598503500E+02  0.00000000000E+00 0.  1.
         25    2    1    2    0    0  0.79261703040E+02  0.12581832695E+03  0.36575953021E+03  0.41417384313E+03  0.12508904599E+03 0.  0.
          5    1    3    3  502    0  0.95323031582E+01 -0.24037819283E+01  0.16805492500E+03  0.16839410081E+03  0.41800000000E+01 0.  1.
         -5    1    3    3    0  502  0.69729399882E+02  0.12822210888E+03  0.19770460521E+03  0.24577974232E+03  0.41800000000E+01 0.  1.
        -11    1    1    2    0    0  0.49023851536E+00 -0.18991015641E+02 -0.35287869289E+01  0.19322301780E+02  0.00000000000E+00 0.  1.
         11    1    1    2    0    0 -0.79751941555E+02 -0.10682731131E+03  0.24492051877E+03  0.27885212414E+03  0.00000000000E+00 0. -1.
</event>
<event>
 7    1  0.2873461E-009  0.8291462E+02  0.7561462E-02  0.1320978E+00
         -2   -1    0    0    0  501 -0.00000000000E+00  0.00000000000E+00  0.47013921577E+02  0.47013921577E+02  0.00000000000E+00 0.  1.
          2   -1    0    0  501    0  0.00000000000E+00 -0.00000000000E+00 -0.36105290579E+03  0.36105290579E+03  0.00000000000E+00 0. -1.
         25    2    1    2    0    0 -0.17103200218E+02 -0.63675484563E+02 -0.22597975919E+03  0.26658394917E+03  0.12511220404E+03 0.  0.
          5    1    3    3  502    0 -0.39430901382E+02 -0.14403972010E+02 -0.92803514249E+01  0.43195690942E+02  0.41800000000E+01 0. -1.
         -5    1    3    3    0  502  0.22327701163E+02 -0.49271512553E+02 -0.21669940777E+03  0.22338825823E+03  0.41800000000E+01 0. -1.
        -11    1    1    2    0    0  0.21355321609E+02  0.40112454713E+02  0.46980545342E+01  0.45685123405E+02  0.00000000000E+00 0.  1.
         11    1    1    2    0    0 -0.42521213909E+01  0.23563029850E+02 -0.92757279551E+02  0.95797754785E+02  0.00000000000E+00 0. -1.
</event>
<event>
 7    1  0.2873461E-009  0.1010081E+03  0.7561462E-02  0.1278190E+00
          2   -1    0    0  501    0  0.00000000000E+00  0.00000000000E+00  0.13001154292E+03  0.13001154292E+03  0.00000000000E+00 0. -1.
         -2   -1    0    0    0  501 -0.00000000000E+00 -0.00000000000E+00 -0.95288783460E+02  0.95288783460E+02  0.00000000000E+00 0.  1.
         25    2    1    2    0    0  0.26844676134E+02 -0.11295987441E+02  0.27267445035E+02  0.13129731713E+03  0.12508891221E+03 0.  0.
          5    1    3    3  502    0  0.29071924911E+02 -0.61950534435E+02 -0.85312817993E+01  0.69089078037E+02  0.41800000000E+01 0.  1.
         -5    1    3    3    0  502 -0.22272487771E+01  0.50654546994E+02  0.35798726834E+02  0.62208239094E+02  0.41800000000E+01 0.  1.
        -11    1    1    2    0    0 -0.12815514595E+02  0.44619813230E+02 -0.17992939480E+02  0.49788663550E+02  0.00000000000E+00 0.  1.
         11    1    1    2    0    0 -0.14029161539E+02 -0.33323825788E+02  0.25448253907E+02  0.44214345699E+02  0.00000000000E+00 0. -1.
</event>
<event>
 7    1  0.2873461E-009  0.1173365E+03  0.7561462E-02  0.1247557E+00
         -2   -1    0    0    0  501 -0.00000000000E+00  0.00000000000E+00  0.15669932271E+03  0.15669932271E+03  0.00000000000E+00 0.  1.
          2   -1    0    0  501    0  0.00000000000E+00 -0.00000000000E+00 -0.14739390610E+03  0.14739390610E+03  0.00000000000E+00 0. -1.
         25    2    1    2    0    0 -0.10440373300E+03  0.16430850416E+02  0.12481882916E+02  0.16423520675E+03  0.12508914191E+03 0.  0.
          5    1    3    3  502    0 -0.23035248231E+02  0.86637412386E+01 -0.53544491950E+02  0.59077644601E+02  0.41800000000E+01 0. -1.
         -5    1    3    3    0  502 -0.81368484768E+02  0.77671091772E+01  0.66026374866E+02  0.10515756215E+03  0.41800000000E+01 0. -1.
        -11    1    1    2    0    0  0.11283524639E+03 -0.25289951257E+02  0.16383261215E+02  0.11678949315E+03  0.00000000000E+00 0.  1.
         11    1    1    2    0    0 -0.84315133878E+01  0.88591008411E+01 -0.19559727515E+02  0.23068528912E+02  0.00000000000E+00 0. -1.
</event>
<event>
 7    1  0.2873461E-009  0.1588727E+03  0.7561462E-02  0.1189975E+00
          4   -1    0    0  501    0  0.00000000000E+00  0.00000000000E+00  0.36075917856E+02  0.36075917856E+02  0.00000000000E+00 0. -1.
         -4   -1    0    0    0  501 -0.00000000000E+00 -0.00000000000E+00 -0.13994100670E+04  0.13994100670E+04  0.00000000000E+00 0.  1.
         25    2    1    2    0    0  0.13498357760E+03 -0.54862375651E+02 -0.11277127152E+04  0.11439467272E+04  0.12509076765E+03 0.  0.
          5    1    3    3  502    0  0.69226366464E+02  0.19628637475E+02 -0.74663380641E+03  0.75010471702E+03  0.41800000000E+01 0.  1.
         -5    1    3    3    0  502  0.65757211133E+02 -0.74491013125E+02 -0.38107890878E+03  0.39384201017E+03  0.41800000000E+01 0.  1.
        -11    1    1    2    0    0 -0.94593718750E+02  0.44398610714E+02 -0.22560592409E+03  0.24863073270E+03  0.00000000000E+00 0.  1.
         11    1    1    2    0    0 -0.40389858846E+02  0.10463764936E+02 -0.10015509820E+02  0.42908524925E+02  0.00000000000E+00 0. -1.
</event>
<event>
 7    1  0.2873461E-009  0.1220324E+03  0.7561462E-02  0.1239781E+00
         -1   -1    0    0    0  501 -0.00000000000E+00  0.00000000000E+00  0.23046658029E+03  0.23046658029E+03  0.00000000000E+00 0.  1.
          1   -1    0    0  501    0  0.00000000000E+00 -0.00000000000E+00 -0.10663073889E+03  0.10663073889E+03  0.00000000000E+00 0. -1.
         25    2    1    2    0    0 -0.98722677548E+02 -0.37435700842E+02  0.22621089933E+02  0.16524995017E+03  0.12509289972E+03 0.  0.
          5    1    3    3  502    0 -0.88971496643E+01 -0.33338119594E+02 -0.41943617757E+02  0.54473194883E+02  0.41800000000E+01 0. -1.
         -5    1    3    3    0  502 -0.89825527884E+02 -0.40975812480E+01  0.64564707691E+02  0.11077675528E+03  0.41800000000E+01 0. -1.
        -11    1    1    2    0    0  0.40180165459E+02  0.44925050341E+02  0.94993199679E+02  0.11250072813E+03  0.00000000000E+00 0.  1.
         11    1    1    2    0    0  0.58542512089E+02 -0.74893494996E+01  0.62215517830E+01  0.59346640884E+02  0.00000000000E+00 0. -1.
</event>
<event>
 7    1  0.2873461E-009  0.3819026E+03  0.7561462E-02  0.1050233E+00
          1   -1    0    0  501    0  0.00000000000E+00  0.00000000000E+00  0.53517558576E+03  0.53517558576E+03  0.00000000000E+00 0. -1.
         -1   -1    0    0    0  501 -0.00000000000E+00 -0.00000000000E+00 -0.37975198138E+03  0.37975198138E+03  0.00000000000E+00 0.  1.
         25    2    1    2    0    0 -0.23663469024E+03  0.28570800976E+03 -0.15662840245E+03  0.42166852533E+03  0.12508735081E+03 0.  0.
          5    1    3    3  502    0 -0.24372813338E+03  0.29135911501E+03 -0.14570208348E+03  0.40686620212E+03  0.41800000000E+01 0. -1.
         -5    1    3    3    0  502  0.70934431342E+01 -0.56511052515E+01 -0.10926318970E+02  0.14802323206E+02  0.41800000000E+01 0. -1.
        -11    1    1    2    0    0  0.11981851627E+03 -0.18097226889E+03  0.13027945306E+03  0.25314062266E+03  0.00000000000E+00 0.  1.
         11    1    1    2    0    0  0.11681617397E+03 -0.10473574086E+03  0.18177255377E+03  0.24011841915E+03  0.00000000000E+00 0. -1.
</event>
<event>
 7    1  0.2873461E-009  0.1118923E+03  0.7561462E-02  0.1257105E+00
          2   -1    0    0  501    0  0.00000000000E+00  0.00000000000E+00  0.87504541734E+01  0.87504541734E+01  0.00000000000E+00 0. -1.
         -2   -1    0    0    0  501 -0.00000000000E+00 -0.00000000000E+00 -0.17284215080E+04  0.17284215080E+04  0.00000000000E+00 0.  1.
         25    2    1    2    0    0  0.13956087002E+02  0.39378002953E+02 -0.12619319608E+04  0.12688044468E+04  0.12508817249E+03 0.  0.
          5    1    3    3  502    0 -0.25715740495E+02  0.71887770692E+02 -0.59556844023E+03  0.60045681800E+03  0.41800000000E+01 0. -1.
         -5    1    3    3    0  502  0.39671827497E+02 -0.32509767739E+02 -0.66636352058E+03  0.66834762875E+03  0.41800000000E+01 0. -1.
        -11    1    1    2    0    0 -0.26979006578E+02 -0.63196557255E+02 -0.37632385066E+03  0.38254583022E+03  0.00000000000E+00 0.  1.
         11    1    1    2    0    0  0.13022919577E+02  0.23818554302E+02 -0.81415242405E+02  0.85821685250E+02  0.00000000000E+00 0. -1.
</event>
<event>
 7    1  0.2873461E-009  0.9404455E+02  0.7561462E-02  0.1293343E+00
         -2   -1    0    0    0  501 -0.00000000000E+00  0.00000000000E+00  0.40135080564E+02  0.40135080564E+02  0.00000000000E+00 0.  1.
          2   -1    0    0  501    0  0.00000000000E+00 -0.00000000000E+00 -0.33810637192E+03  0.33810637192E+03  0.00000000000E+00 0. -1.
         25    2    1    2    0    0 -0.56456346867E+01 -0.28982081653E+02 -0.16761434512E+03  0.21122422302E+03  0.12509704015E+03 0.  0.
          5    1    3    3  502    0  0.47332523192E+02 -0.32878103223E+02 -0.33218463376E+02  0.66650402342E+02  0.41800000000E+01 0.  1.
         -5    1    3    3    0  502 -0.52978157879E+02  0.38960215692E+01 -0.13439588174E+03  0.14457382068E+03  0.41800000000E+01 0.  1.
        -11    1    1    2    0    0 -0.22746180178E+02 -0.13106266955E+02  0.91697711572E+00  0.26267923275E+02  0.00000000000E+00 0.  1.
         11    1    1    2    0    0  0.28391814865E+02  0.42088348608E+02 -0.13127392336E+03  0.14074930619E+03  0.00000000000E+00 0. -1.
</event>
<event>
 7    1  0.2873461E-009  0.1089260E+03  0.7561462E-02  0.1262572E+00
         -1   -1    0    0    0  501 -0.00000000000E+00  0.00000000000E+00  0.51961579933E+02  0.51961579933E+02  0.00000000000E+00 0.  1.
          1   -1    0    0  501    0  0.00000000000E+00 -0.00000000000E+00 -0.36470376764E+03  0.36470376764E+03  0.00000000000E+00 0. -1.
         25    2    1    2    0    0 -0.29505533264E+02 -0.67623161475E+02 -0.10694530673E+03  0.18035549789E+03  0.12508932219E+03 0.  0.
          5    1    3    3  502    0  0.25268524252E+02 -0.48326285577E+02  0.42294951610E+01  0.54856988842E+02  0.41800000000E+01 0. -1.
         -5    1    3    3    0  502 -0.54774057515E+02 -0.19296875898E+02 -0.11117480190E+03  0.12549850905E+03  0.41800000000E+01 0. -1.
        -11    1    1    2    0    0  0.30933417731E+01 -0.16486939386E+02 -0.58079040354E+01  0.17751610714E+02  0.00000000000E+00 0.  1.
         11    1    1    2    0    0  0.26412191491E+02  0.84110100861E+02 -0.19998897694E+03  0.21855823897E+03  0.00000000000E+00 0. -1.
</event>
<event>
 7    1  0.2873461E-009  0.1325659E+03  0.7561462E-02  0.1223697E+00
          2   -1    0    0  501    0  0.00000000000E+00  0.00000000000E+00  0.15767515148E+03  0.15767515148E+03  0.00000000000E+00 0. -1.
         -2   -1    0    0    0  501 -0.00000000000E+00 -0.00000000000E+00 -0.12306754880E+03  0.12306754880E+03  0.00000000000E+00 0.  1.
         25    2    1    2    0    0 -0.76993866679E+02  0.39762949943E+02  0.14532946702E+02  0.15286546128E+03  0.12508994771E+03 0.  0.
          5    1    3    3  502    0 -0.18307054579E+02  0.77874363777E+02  0.19958206239E+02  0.82555237129E+02  0.41800000000E+01 0.  1.
         -5    1    3    3    0  502 -0.58686812100E+02 -0.38111413835E+02 -0.54252595372E+01  0.70310224150E+02  0.41800000000E+01 0.  1.
        -11    1    1    2    0    0 -0.77015699277E+01 -0.28453712544E+02 -0.17775332420E+02  0.34422236702E+02  0.00000000000E+00 0.  1.
         11    1    1    2    0    0  0.84695436607E+02 -0.11309237399E+02  0.37849988403E+02  0.93455002299E+02  0.00000000000E+00 0. -1.
</event>
<event>
 7    1  0.2873461E-009  0.1129695E+03  0.7561462E-02  0.1255168E+00
         -2   -1    0    0    0  501 -0.00000000000E+00  0.00000000000E+00  0.21217488979E+03  0.21217488979E+03  0.00000000000E+00 0.  1.
          2   -1    0    0  501    0  0.00000000000E+00 -0.00000000000E+00 -0.94358211216E+02  0.94358211216E+02  0.00000000000E+00 0. -1.
         25    2    1    2    0    0 -0.57704639214E+02  0.67198941142E+02  0.88287644533E+02  0.17688415231E+03  0.12509105517E+03 0.  0.
          5    1    3    3  502    0 -0.30555311873E+02 -0.13273900845E+02 -0.20092641427E+02  0.39128125010E+02  0.41800000000E+01 0.  1.
         -5    1    3    3    0  502 -0.27149327342E+02  0.80472841987E+02  0.10838028596E+03  0.13775602730E+03  0.41800000000E+01 0.  1.
        -11    1    1    2    0    0 -0.72902995848E+01 -0.33181253527E+02 -0.21574884528E+02  0.40244498954E+02  0.00000000000E+00 0. -1.
         11    1    1    2    0    0  0.64994938799E+02 -0.34017687615E+02  0.51103918566E+02  0.89404449739E+02  0.00000000000E+00 0.  1.
</event>
<event>
 7    1  0.2873461E-009  0.1701228E+03  0.7561462E-02  0.1177720E+00
         -1   -1    0    0    0  501 -0.00000000000E+00  0.00000000000E+00  0.22947037426E+03  0.22947037426E+03  0.00000000000E+00 0.  1.
          1   -1    0    0  501    0  0.00000000000E+00 -0.00000000000E+00 -0.15177421407E+03  0.15177421407E+03  0.00000000000E+00 0. -1.
         25    2    1    2    0    0  0.13247311723E+03  0.24878645172E+01 -0.34589005731E+02  0.18547410635E+03  0.12509567758E+03 0.  0.
          5    1    3    3  502    0  0.25369945891E+02 -0.54911974206E+02 -0.11613041158E+02  0.61735680045E+02  0.41800000000E+01 0.  1.
         -5    1    3    3    0  502  0.10710317134E+03  0.57399838723E+02 -0.22975964573E+02  0.12373842630E+03  0.41800000000E+01 0.  1.
        -11    1    1    2    0    0 -0.31210639674E+02  0.37820073241E+02  0.19996470974E+02  0.52955838396E+02  0.00000000000E+00 0.  1.
         11    1    1    2    0    0 -0.10126247756E+03 -0.40307937758E+02  0.92288694947E+02  0.14281464358E+03  0.00000000000E+00 0. -1.
</event>
<event>
 7    1  0.2873461E-009  0.1232535E+03  0.7561462E-02  0.1237824E+00
          1   -1    0    0  501    0  0.00000000000E+00  0.00000000000E+00  0.22002265060E+03  0.22002265060E+03  0.00000000000E+00 0. -1.
         -1   -1    0    0    0  501 -0.00000000000E+00 -0.00000000000E+00 -0.10586708092E+03  0.10586708092E+03  0.00000000000E+00 0.  1.
         25    2    1    2    0    0  0.10479000289E+03 -0.57235558048E+01  0.82558734963E+02  0.18296405397E+03  0.12508475738E+03 0.  0.
          5    1    3    3  502    0  0.81468033936E+02  0.38870105274E+02  0.51098193412E+01  0.90506951618E+02  0.41800000000E+01 0.  1.
         -5    1    3    3    0  502  0.23321968952E+02 -0.44593661079E+02  0.77448915621E+02  0.92457102351E+02  0.41800000000E+01 0.  1.
        -11    1    1    2    0    0 -0.31234984668E+02  0.72939914474E+01 -0.32270504264E+02  0.45499582678E+02  0.00000000000E+00 0.  1.
         11    1    1    2    0    0 -0.73555018220E+02 -0.15704356426E+01  0.63867338988E+02  0.97426094876E+02  0.00000000000E+00 0. -1.
</event>
<event>
 7    1  0.2873461E-009  0.1097107E+03  0.7561462E-02  0.1261107E+00
          1   -1    0    0  501    0  0.00000000000E+00  0.00000000000E+00  0.97876516455E+02  0.97876516455E+02  0.00000000000E+00 0. -1.
         -1   -1    0    0    0  501 -0.00000000000E+00 -0.00000000000E+00 -0.21616844255E+03  0.21616844255E+03  0.00000000000E+00 0.  1.
         25    2    1    2    0    0  0.37935992234E+02  0.78438309747E+02 -0.19285206805E+02  0.15364714384E+03  0.12507524801E+03 0.  0.
          5    1    3    3  502    0 -0.16257872199E+01  0.33655953158E+02 -0.68283437293E+02  0.76259206497E+02  0.41800000000E+01 0.  1.
         -5    1    3    3    0  502  0.39561779454E+02  0.44782356589E+02  0.48998230488E+02  0.77387937343E+02  0.41800000000E+01 0.  1.
        -11    1    1    2    0    0 -0.15322365269E+02  0.19643368139E+02 -0.13550528895E+02  0.28359365695E+02  0.00000000000E+00 0. -1.
         11    1    1    2    0    0 -0.22613626965E+02 -0.98081677886E+02 -0.85456190396E+02  0.13203844947E+03  0.00000000000E+00 0.  1.
</event>
<event>
 7    1  0.2873461E-009  0.1119723E+03  0.7561462E-02  0.1256960E+00
          2   -1    0    0  501    0  0.00000000000E+00  0.00000000000E+00  0.73990680157E+03  0.73990680157E+03  0.00000000000E+00 0. -1.
         -2   -1    0    0    0  501 -0.00000000000E+00 -0.00000000000E+00 -0.18442077757E+02  0.18442077757E+02  0.00000000000E+00 0.  1.
         25    2    1    2    0    0 -0.34989348507E+02 -0.11387096608E+02  0.33387496282E+03  0.35843271345E+03  0.12509036252E+03 0.  0.
          5    1    3    3  502    0  0.24304885844E+02  0.41634687933E+02  0.16049149167E+03  0.16762805855E+03  0.41800000000E+01 0. -1.
         -5    1    3    3    0  502 -0.59294234351E+02 -0.53021784540E+02  0.17338347115E+03  0.19080465490E+03  0.41800000000E+01 0. -1.
        -11    1    1    2    0    0 -0.24535478754E+02 -0.17104304650E+02  0.82057966333E+02  0.87338747381E+02  0.00000000000E+00 0.  1.
         11    1    1    2    0    0  0.59524827261E+02  0.28491401258E+02  0.30553179466E+03  0.31257741850E+03  0.00000000000E+00 0. -1.
</event>
<event>
 7    1  0.3904127E-009  0.2404698E+03  0.7561462E-02  0.1119480E+00
         -2   -1    0    0    0  501 -0.00000000000E+00  0.00000000000E+00  0.15908055016E+03  0.15908055016E+03  0.00000000000E+00 0.  1.
          2   -1    0    0  501    0  0.00000000000E+00 -0.00000000000E+00 -0.40884442891E+03  0.40884442891E+03  0.00000000000E+00 0. -1.
         25    2    1    2    0    0  0.20893745673E+03  0.92142779751E+02 -0.16219392514E+03  0.30675969001E+03  0.12509790315E+03 0.  0.
          5    1    3    3  502    0  0.68021147873E+02 -0.18840618938E+02 -0.98555972907E+01  0.71389429735E+02  0.41800000000E+01 0. -1.
         -5    1    3    3    0  502  0.14091630886E+03  0.11098339869E+03 -0.15233832785E+03  0.23537026027E+03  0.41800000000E+01 0. -1.
        -11    1    1    2    0    0 -0.12875869830E+03 -0.74347652122E+02 -0.11345938220E+02  0.14911440601E+03  0.00000000000E+00 0.  1.
         11    1    1    2    0    0 -0.80178758431E+02 -0.17795127629E+02 -0.76224015389E+02  0.11205088305E+03  0.00000000000E+00 0. -1.
</event>
<event>
 7    1  0.2873461E-009  0.1472172E+03  0.7561462E-02  0.1203935E+00
         -2   -1    0    0    0  501 -0.00000000000E+00  0.00000000000E+00  0.14953398836E+02  0.14953398836E+02  0.00000000000E+00 0.  1.
          2   -1    0    0  501    0  0.00000000000E+00 -0.00000000000E+00 -0.19004701238E+04  0.19004701238E+04  0.00000000000E+00 0. -1.
         25    2    1    2    0    0  0.87878149924E+01  0.99225843954E+02 -0.14542684139E+04  0.14630338541E+04  0.12509374440E+03 0.  0.
          5    1    3    3  502    0 -0.55155282243E+02  0.65337776503E+02 -0.89563712075E+03  0.89971909765E+03  0.41800000000E+01 0. -1.
         -5    1    3    3    0  502  0.63943097236E+02  0.33888067451E+02 -0.55863129313E+03  0.56331475647E+03  0.41800000000E+01 0. -1.
        -11    1    1    2    0    0 -0.23473010626E+02 -0.11347455778E+03 -0.37720744671E+03  0.39460475839E+03  0.00000000000E+00 0. -1.
         11    1    1    2    0    0  0.14685195634E+02  0.14248713823E+02 -0.54040864408E+02  0.57784910161E+02  0.00000000000E+00 0.  1.
</event>
<event>
 7    1  0.2873461E-009  0.1057327E+03  0.7561462E-02  0.1268683E+00
         -4   -1    0    0    0  501 -0.00000000000E+00  0.00000000000E+00  0.12341942338E+04  0.12341942338E+04  0.00000000000E+00 0.  1.
          4   -1    0    0  501    0  0.00000000000E+00 -0.00000000000E+00 -0.10616269806E+02  0.10616269806E+02  0.00000000000E+00 0. -1.
         25    2    1    2    0    0  0.12299296321E+00  0.26638152843E+02  0.86384321075E+03  0.87325981998E+03  0.12509202259E+03 0.  0.
          5    1    3    3  502    0  0.38674511995E+02  0.59718576543E+02  0.62422346848E+03  0.62827894861E+03  0.41800000000E+01 0. -1.
         -5    1    3    3    0  502 -0.38551519032E+02 -0.33080423700E+02  0.23961974227E+03  0.24498087137E+03  0.41800000000E+01 0. -1.
        -11    1    1    2    0    0 -0.33831010355E+02  0.13836665654E+02  0.20124497384E+03  0.20453735618E+03  0.00000000000E+00 0. -1.
         11    1    1    2    0    0  0.33708017392E+02 -0.40474818496E+02  0.15848977939E+03  0.16701332744E+03  0.00000000000E+00 0.  1.
</event>
<event>
 7    1  0.2873461E-009  0.7423110E+02  0.7561462E-02  0.1346269E+00
          1   -1    0    0  501    0  0.00000000000E+00  0.00000000000E+00  0.93653129645E+02  0.93653129645E+02  0.00000000000E+00 0. -1.
         -1   -1    0    0    0  501 -0.00000000000E+00 -0.00000000000E+00 -0.19985009661E+03  0.19985009661E+03  0.00000000000E+00 0.  1.
         25    2    1    2    0    0 -0.36864328018E+02 -0.24594907115E+02  0.17193276059E+02  0.13379101469E+03  0.12506213949E+03 0.  0.
          5    1    3    3  502    0 -0.45073346402E+02  0.18100282481E+02 -0.39132606053E+02  0.62514478628E+02  0.41800000000E+01 0.  1.
         -5    1    3    3    0  502  0.82090183832E+01 -0.42695189596E+02  0.56325882112E+02  0.71276536063E+02  0.41800000000E+01 0.  1.
        -11    1    1    2    0    0  0.93499645369E+01  0.26845224079E+02  0.45841260130E+01  0.28794133153E+02  0.00000000000E+00 0. -1.
         11    1    1    2    0    0  0.27514363482E+02 -0.22503169641E+01 -0.12797436903E+03  0.13091807841E+03  0.00000000000E+00 0.  1.
</event>
<event>
 7    1  0.2873461E-009  0.1084851E+03  0.7561462E-02  0.1263401E+00
         -3   -1    0    0    0  501 -0.00000000000E+00  0.00000000000E+00  0.14970879278E+03  0.14970879278E+03  0.00000000000E+00 0.  1.
          3   -1    0    0  501    0  0.00000000000E+00 -0.00000000000E+00 -0.13466044755E+03  0.13466044755E+03  0.00000000000E+00 0. -1.
         25    2    1    2    0    0 -0.35069604417E+02  0.82740566830E+02  0.11501742171E+02  0.15445028874E+03  0.12508686208E+03 0.  0.
          5    1    3    3  502    0 -0.41142124891E+02  0.44431946963E+02 -0.51997021616E+02  0.79925183818E+02  0.41800000000E+01 0. -1.
         -5    1    3    3    0  502  0.60725204735E+01  0.38308619867E+02  0.63498763787E+02  0.74525104921E+02  0.41800000000E+01 0. -1.
        -11    1    1    2    0    0  0.15050505504E+02  0.12730479136E+02  0.23166319795E+02  0.30418106250E+02  0.00000000000E+00 0.  1.
         11    1    1    2    0    0  0.20019098913E+02 -0.95471045967E+02 -0.19619716736E+02  0.99500845343E+02  0.00000000000E+00 0. -1.
</event>
<event>
 7    1  0.2873461E-009  0.1586123E+03  0.7561462E-02  0.1190272E+00
         -1   -1    0    0    0  501 -0.00000000000E+00  0.00000000000E+00  0.47751400928E+02  0.47751400928E+02  0.00000000000E+00 0.  1.
          1   -1    0    0  501    0  0.00000000000E+00 -0.00000000000E+00 -0.68816698756E+03  0.68816698756E+03  0.00000000000E+00 0. -1.
         25    2    1    2    0    0  0.23641427322E+02  0.14128433710E+03 -0.37234481164E+03  0.41809983313E+03  0.12508649292E+03 0.  0.
          5    1    3    3  502    0  0.43059835702E+02  0.10215132088E+03 -0.35321512408E+03  0.37022619854E+03  0.41800000000E+01 0.  1.
         -5    1    3    3    0  502 -0.19418408380E+02  0.39133016227E+02 -0.19129687568E+02  0.47873634596E+02  0.41800000000E+01 0.  1.
        -11    1    1    2    0    0  0.28025128827E+02 -0.42193845504E+02 -0.13416122869E+03  0.14340489437E+03  0.00000000000E+00 0. -1.
         11    1    1    2    0    0 -0.51666556149E+02 -0.99090491600E+02 -0.13390954630E+03  0.17441366099E+03  0.00000000000E+00 0.  1.
</event>
<event>
 7    1  0.2873461E-009  0.1111220E+03  0.7561462E-02  0.1258506E+00
          1   -1    0    0  501    0  0.00000000000E+00  0.00000000000E+00  0.42190143813E+03  0.42190143813E+03  0.00000000000E+00 0. -1.
         -1   -1    0    0    0  501 -0.00000000000E+00 -0.00000000000E+00 -0.35358492495E+02  0.35358492495E+02  0.00000000000E+00 0.  1.
         25    2    1    2    0    0 -0.32023676526E+02 -0.45523301475E+02  0.23781974430E+03  0.27441443145E+03  0.12508861889E+03 0.  0.
          5    1    3    3  502    0 -0.11686764420E+02 -0.83725957190E+02  0.19850002472E+03  0.21579237378E+03  0.41800000000E+01 0. -1.
         -5    1    3    3    0  502 -0.20336912106E+02  0.38202655716E+02  0.39319719582E+02  0.58622057672E+02  0.41800000000E+01 0. -1.
        -11    1    1    2    0    0  0.54716479149E+02  0.16238913560E+02  0.12857394333E+03  0.14067286273E+03  0.00000000000E+00 0. -1.
         11    1    1    2    0    0 -0.22692802623E+02  0.29284387915E+02  0.20149258004E+02  0.42172636443E+02  0.00000000000E+00 0.  1.
</event>
<event>
 7    1  0.2873461E-009  0.1086782E+03  0.7561462E-02  0.1263037E+00
         -3   -1    0    0    0  501 -0.00000000000E+00  0.00000000000E+00  0.95751578502E+03  0.95751578502E+03  0.00000000000E+00 0.  1.
          3   -1    0    0  501    0  0.00000000000E+00 -0.00000000000E+00 -0.17167845672E+02  0.17167845672E+02  0.00000000000E+00 0. -1.
         25    2    1    2    0    0 -0.48129937782E+02 -0.18061280619E+02  0.69450765360E+03  0.70755357735E+03  0.12509389730E+03 0.  0.
          5    1    3    3  502    0  0.24283541065E+02 -0.47848558019E+02  0.35853109843E+03  0.36254819792E+03  0.41800000000E+01 0.  1.
         -5    1    3    3    0  502 -0.72413478847E+02  0.29787277400E+02  0.33597655517E+03  0.34500537943E+03  0.41800000000E+01 0.  1.
        -11    1    1    2    0    0  0.24610682317E+02 -0.25612229645E+02  0.32653701001E+02  0.48248690973E+02  0.00000000000E+00 0. -1.
         11    1    1    2    0    0  0.23519255465E+02  0.43673510265E+02  0.21318658475E+03  0.21888136237E+03  0.00000000000E+00 0.  1.
</event>
<event>
 7    1  0.2873461E-009  0.9320817E+02  0.7561462E-02  0.1295263E+00
         -1   -1    0    0    0  501 -0.00000000000E+00  0.00000000000E+00  0.35883979506E+03  0.35883979506E+03  0.00000000000E+00 0.  1.
          1   -1    0    0  501    0  0.00000000000E+00 -0.00000000000E+00 -0.33561750576E+02  0.33561750576E+02  0.00000000000E+00 0. -1.
         25    2    1    2    0    0 -0.92012243219E+01 -0.17261048270E+02  0.19780046754E+03  0.23484814641E+03  0.12508405411E+03 0.  0.
          5    1    3    3  502    0  0.49512998080E+02 -0.37612669578E+02  0.11973360065E+03  0.13498095205E+03  0.41800000000E+01 0.  1.
         -5    1    3    3    0  502 -0.58714222402E+02  0.20351621308E+02  0.78066866897E+02  0.99867194359E+02  0.41800000000E+01 0.  1.
        -11    1    1    2    0    0 -0.14963709613E+02  0.30708597664E+02  0.12523224996E+03  0.12980773092E+03  0.00000000000E+00 0.  1.
         11    1    1    2    0    0  0.24164933935E+02 -0.13447549395E+02  0.22453269790E+01  0.27745668311E+02  0.00000000000E+00 0. -1.
</event>
<event>
 7    1  0.2873461E-009  0.5253227E+02  0.7561462E-02  0.1432143E+00
         -2   -1    0    0    0  501 -0.00000000000E+00  0.00000000000E+00  0.15567714512E+03  0.15567714512E+03  0.00000000000E+00 0. -1.
          2   -1    0    0  501    0  0.00000000000E+00 -0.00000000000E+00 -0.78149963295E+02  0.78149963295E+02  0.00000000000E+00 0.  1.
         25    2    1    2    0    0 -0.65554120276E+01  0.24844981000E+02  0.59154383190E+02  0.14073812916E+03  0.12509090071E+03 0.  0.
          5    1    3    3  502    0  0.12305643418E+02  0.29659708391E+02 -0.33132031387E+02  0.46328512448E+02  0.41800000000E+01 0. -1.
         -5    1    3    3    0  502 -0.18861055445E+02 -0.48147273909E+01  0.92286414577E+02  0.94409616713E+02  0.41800000000E+01 0. -1.
        -11    1    1    2    0    0  0.61236846927E+01  0.13291275418E+02 -0.28873423401E+02  0.32370234712E+02  0.00000000000E+00 0.  1.
         11    1    1    2    0    0  0.43172733491E+00 -0.38136256419E+02  0.47246222035E+02  0.60718744542E+02  0.00000000000E+00 0. -1.
</event>
<event>
 7    1  0.2873461E-009  0.1119278E+03  0.7561462E-02  0.1257041E+00
         -2   -1    0    0    0  501 -0.00000000000E+00  0.00000000000E+00  0.27683450202E+02  0.27683450202E+02  0.00000000000E+00 0.  1.
          2   -1    0    0  501    0  0.00000000000E+00 -0.00000000000E+00 -0.60544732789E+03  0.60544732789E+03  0.00000000000E+00 0. -1.
         25    2    1    2    0    0  0.53991533620E+02  0.30665150116E+02 -0.40457514170E+03  0.42799852592E+03  0.12508499420E+03 0.  0.
          5    1    3    3  502    0 -0.37874701131E+02  0.18200561859E+02 -0.80578250173E+02  0.90972964329E+02  0.41800000000E+01 0. -1.
         -5    1    3    3    0  502  0.91866234752E+02  0.12464588257E+02 -0.32399689153E+03  0.33702556159E+03  0.41800000000E+01 0. -1.
        -11    1    1    2    0    0 -0.34097528416E+02 -0.50368957265E+02 -0.16515917047E+03  0.17600347977E+03  0.00000000000E+00 0. -1.
         11    1    1    2    0    0 -0.19894005204E+02  0.19703807150E+02 -0.80295655176E+01  0.29128772402E+02  0.00000000000E+00 0.  1.
</event>
<event>
 7    1  0.2873461E-009  0.2588961E+03  0.7561462E-02  0.1107808E+00
         -2   -1    0    0    0  501 -0.00000000000E+00  0.00000000000E+00  0.10355966509E+03  0.10355966509E+03  0.00000000000E+00 0.  1.
          2   -1    0    0  501    0  0.00000000000E+00 -0.00000000000E+00 -0.82391993662E+03  0.82391993662E+03  0.00000000000E+00 0. -1.
         25    2    1    2    0    0 -0.17400129928E+03 -0.18637133338E+03 -0.22216505597E+03  0.36057684624E+03  0.12509046282E+03 0.  0.
          5    1    3    3  502    0 -0.11636530414E+03 -0.97930355915E+02 -0.20221934242E+03  0.25306397110E+03  0.41800000000E+01 0.  1.
         -5    1    3    3    0  502 -0.57635995140E+02 -0.88440977469E+02 -0.19945713548E+02  0.10751287514E+03  0.41800000000E+01 0.  1.
        -11    1    1    2    0    0  0.35278683935E+02  0.72111706018E+02 -0.88294677233E+02  0.11933412635E+03  0.00000000000E+00 0.  1.
         11    1    1    2    0    0  0.13872261535E+03  0.11425962737E+03 -0.40990053832E+03  0.44756862912E+03  0.00000000000E+00 0. -1.
</event>
<event>
 7    1  0.2873461E-009  0.5348812E+02  0.7561462E-02  0.1427387E+00
          1   -1    0    0  501    0  0.00000000000E+00  0.00000000000E+00  0.26237307679E+02  0.26237307679E+02  0.00000000000E+00 0. -1.
         -1   -1    0    0    0  501 -0.00000000000E+00 -0.00000000000E+00 -0.42825941192E+03  0.42825941192E+03  0.00000000000E+00 0.  1.
         25    2    1    2    0    0 -0.22415182056E+01  0.79379371023E+01 -0.28399529269E+03  0.31043369892E+03  0.12509084661E+03 0.  0.
          5    1    3    3  502    0 -0.76627926283E+01 -0.93144590303E+01 -0.29048921023E+03  0.29076954998E+03  0.41800000000E+01 0.  1.
         -5    1    3    3    0  502  0.54212744227E+01  0.17252396133E+02  0.64939175323E+01  0.19664148942E+02  0.41800000000E+01 0.  1.
        -11    1    1    2    0    0  0.35263684788E+02  0.11791735183E+02 -0.87101779906E+02  0.94706349029E+02  0.00000000000E+00 0.  1.
         11    1    1    2    0    0 -0.33022166583E+02 -0.19729672285E+02 -0.30925031643E+02  0.49356671650E+02  0.00000000000E+00 0. -1.
</event>
<event>
 7    1  0.2873461E-009  0.7400093E+02  0.7561462E-02  0.1346993E+00
          2   -1    0    0  501    0  0.00000000000E+00  0.00000000000E+00  0.26991974062E+02  0.26991974062E+02  0.00000000000E+00 0. -1.
         -2   -1    0    0    0  501 -0.00000000000E+00 -0.00000000000E+00 -0.69588951758E+03  0.69588951758E+03  0.00000000000E+00 0.  1.
         25    2    1    2    0    0  0.56856475908E+02 -0.39247580037E+01 -0.51905175793E+03  0.53694469803E+03  0.12508724457E+03 0.  0.
          5    1    3    3  502    0  0.55121709443E+02 -0.98257265556E+01 -0.52464416562E+03  0.52763995363E+03  0.41800000000E+01 0. -1.
         -5    1    3    3    0  502  0.17347664649E+01  0.59009685520E+01  0.55924076868E+01  0.93047443960E+01  0.41800000000E+01 0. -1.
        -11    1    1    2    0    0 -0.56371050641E+01 -0.24978761377E+02 -0.70244793862E+00  0.25616574840E+02  0.00000000000E+00 0. -1.
         11    1    1    2    0    0 -0.51219370844E+02  0.28903519381E+02 -0.14914333765E+03  0.16032021877E+03  0.00000000000E+00 0.  1.
</event>
<event>
 7    1  0.2873461E-009  0.1691203E+03  0.7561462E-02  0.1178768E+00
         -1   -1    0    0    0  501 -0.00000000000E+00  0.00000000000E+00  0.75989582388E+02  0.75989582388E+02  0.00000000000E+00 0.  1.
          1   -1    0    0  501    0  0.00000000000E+00 -0.00000000000E+00 -0.52424617590E+03  0.52424617590E+03  0.00000000000E+00 0. -1.
         25    2    1    2    0    0  0.48389844701E+01 -0.12870466239E+03 -0.74952191499E+02  0.19455935549E+03  0.12508879209E+03 0.  0.
          5    1    3    3  502    0 -0.40033284159E+02  0.29766540112E+01 -0.16459567652E+02  0.43588003819E+02  0.41800000000E+01 0.  1.
         -5    1    3    3    0  502  0.44872268629E+02 -0.13168131640E+03 -0.58492623847E+02  0.15097135167E+03  0.41800000000E+01 0.  1.
        -11    1    1    2    0    0 -0.44856297254E+02  0.35287495116E+02 -0.12744473316E+03  0.13964044803E+03  0.00000000000E+00 0.  1.
         11    1    1    2    0    0  0.40017312784E+02  0.93417167271E+02 -0.24585966885E+03  0.26603595477E+03  0.00000000000E+00 0. -1.
</event>
<event>
 7    1  0.2873461E-009  0.1899505E+03  0.7561462E-02  0.1158506E+00
          2   -1    0    0  501    0  0.00000000000E+00  0.00000000000E+00  0.16210044858E+03  0.16210044858E+03  0.00000000000E+00 0. -1.
         -2   -1    0    0    0  501 -0.00000000000E+00 -0.00000000000E+00 -0.25089224157E+03  0.25089224157E+03  0.00000000000E+00 0.  1.
         25    2    1    2    0    0  0.74235004958E+01 -0.16837350670E+03 -0.25415464476E+02  0.21140951322E+03  0.12507313992E+03 0.  0.
          5    1    3    3  502    0  0.61107537034E+02 -0.10981229570E+03 -0.36873763615E+02  0.13103441614E+03  0.41800000000E+01 0. -1.
         -5    1    3    3    0  502 -0.53684036538E+02 -0.58561210994E+02  0.11458299138E+02  0.80375097084E+02  0.41800000000E+01 0. -1.
        -11    1    1    2    0    0  0.19404520524E+02  0.69091867489E+02 -0.67687963941E+02  0.98650301735E+02  0.00000000000E+00 0. -1.
         11    1    1    2    0    0 -0.26828021020E+02  0.99281639208E+02  0.43116354293E+01  0.10293287519E+03  0.00000000000E+00 0.  1.
</event>
<event>
 7    1  0.2873461E-009  0.1290860E+03  0.7561462E-02  0.1228818E+00
          2   -1    0    0  501    0  0.00000000000E+00  0.00000000000E+00  0.35034470193E+03  0.35034470193E+03  0.00000000000E+00 0. -1.
         -2   -1    0    0    0  501 -0.00000000000E+00 -0.00000000000E+00 -0.73402566898E+02  0.73402566898E+02  0.00000000000E+00 0.  1.
         25    2    1    2    0    0 -0.27604916023E+02 -0.10455666051E+03  0.21083118902E+03  0.26793353625E+03  0.12507782752E+03 0.  0.
          5    1    3    3  502    0 -0.44895706968E+02 -0.88743426471E+02  0.62130533418E+02  0.11734008620E+03  0.41800000000E+01 0.  1.
         -5    1    3    3    0  502  0.17290790945E+02 -0.15813234039E+02  0.14870065560E+03  0.15059345005E+03  0.41800000000E+01 0.  1.
        -11    1    1    2    0    0 -0.26198205403E+02  0.58143825255E+02  0.85003063773E+01  0.64337435371E+02  0.00000000000E+00 0. -1.
         11    1    1    2    0    0  0.53803121426E+02  0.46412835255E+02  0.57610639634E+02  0.91476297207E+02  0.00000000000E+00 0.  1.
</event>
<event>
 7    1  0.2873461E-009  0.2184935E+03  0.7561462E-02  0.1135011E+00
         -1   -1    0    0    0  501 -0.00000000000E+00  0.00000000000E+00  0.46277356359E+03  0.46277356359E+03  0.00000000000E+00 0.  1.
          1   -1    0    0  501    0  0.00000000000E+00 -0.00000000000E+00 -0.13012268974E+03  0.13012268974E+03  0.00000000000E+00 0. -1.
         25    2    1    2    0    0 -0.18830433912E+03  0.25517313287E+02  0.29925364114E+03  0.37591681727E+03  0.12510417402E+03 0.  0.
          5    1    3    3  502    0  0.17265608460E+02 -0.19300020712E+01  0.11728862356E+02  0.21374394861E+02  0.41800000000E+01 0.  1.
         -5    1    3    3    0  502 -0.20556994758E+03  0.27447315358E+02  0.28752477879E+03  0.35454242241E+03  0.41800000000E+01 0.  1.
        -11    1    1    2    0    0 -0.25941609633E+01  0.16093097463E+02 -0.65309200019E+01  0.17560477588E+02  0.00000000000E+00 0. -1.
         11    1    1    2    0    0  0.19089850009E+03 -0.41610410750E+02  0.39928152710E+02  0.19941895847E+03  0.00000000000E+00 0.  1.
</event>
<event>
 7    1  0.2873461E-009  0.2138775E+03  0.7561462E-02  0.1138532E+00
          1   -1    0    0  501    0  0.00000000000E+00  0.00000000000E+00  0.45120467210E+03  0.45120467210E+03  0.00000000000E+00 0. -1.
         -1   -1    0    0    0  501 -0.00000000000E+00 -0.00000000000E+00 -0.10815690547E+03  0.10815690547E+03  0.00000000000E+00 0.  1.
         25    2    1    2    0    0  0.83564287536E+02  0.17106848917E+03  0.21178185667E+03  0.31104138485E+03  0.12509104738E+03 0.  0.
          5    1    3    3  502    0  0.10903852222E+03  0.13978917092E+03  0.20299239342E+03  0.26954368073E+03  0.41800000000E+01 0. -1.
         -5    1    3    3    0  502 -0.25474234687E+02  0.31279318245E+02  0.87894632546E+01  0.41497704118E+02  0.41800000000E+01 0. -1.
        -11    1    1    2    0    0 -0.10133525290E+03 -0.15839265900E+03  0.12430737207E+03  0.22540938458E+03  0.00000000000E+00 0.  1.
         11    1    1    2    0    0  0.17770965362E+02 -0.12675830171E+02  0.69585378835E+01  0.22910808146E+02  0.00000000000E+00 0. -1.
</event>
<event>
 7    1  0.2873461E-009  0.9853225E+02  0.7561462E-02  0.1283413E+00
         -1   -1    0    0    0  501 -0.00000000000E+00  0.00000000000E+00  0.76731148373E+02  0.76731148373E+02  0.00000000000E+00 0.  1.
          1   -1    0    0  501    0  0.00000000000E+00 -0.00000000000E+00 -0.20263968184E+03  0.20263968184E+03  0.00000000000E+00 0. -1.
         25    2    1    2    0    0 -0.33157996071E+02 -0.24879126214E+02 -0.11684476907E+03  0.17612230145E+03  0.12509173187E+03 0.  0.
          5    1    3    3  502    0  0.16228973362E+02  0.22148151193E+02  0.12021558854E+02  0.30264012539E+02  0.41800000000E+01 0.  1.
         -5    1    3    3    0  502 -0.49386969433E+02 -0.47027277407E+02 -0.12886632793E+03  0.14585828891E+03  0.41800000000E+01 0.  1.
        -11    1    1    2    0    0  0.36327272968E+02  0.57596902468E+02  0.31827715903E+01  0.68170403917E+02  0.00000000000E+00 0.  1.
         11    1    1    2    0    0 -0.31692768975E+01 -0.32717776254E+02 -0.12246535980E+02  0.35078124844E+02  0.00000000000E+00 0. -1.
</event>
<event>
 7    1  0.2873461E-009  0.1177543E+03  0.7561462E-02  0.1246848E+00
         -2   -1    0    0    0  501 -0.00000000000E+00  0.00000000000E+00  0.26838350269E+02  0.26838350269E+02  0.00000000000E+00 0.  1.
          2   -1    0    0  501    0  0.00000000000E+00 -0.00000000000E+00 -0.85966233143E+03  0.85966233143E+03  0.00000000000E+00 0. -1.
         25    2    1    2    0    0  0.83743970374E+02  0.55480696596E+02 -0.35429237170E+03  0.38892310527E+03  0.12508771681E+03 0.  0.
          5    1    3    3  502    0  0.71633791677E+02  0.26003975790E+02 -0.34787411757E+03  0.35614811658E+03  0.41800000000E+01 0. -1.
         -5    1    3    3    0  502  0.12110178697E+02  0.29476720806E+02 -0.64182541317E+01  0.32774988690E+02  0.41800000000E+01 0. -1.
        -11    1    1    2    0    0  0.10409646096E+02 -0.26597208051E+02 -0.47396970282E+02  0.55337555059E+02  0.00000000000E+00 0.  1.
         11    1    1    2    0    0 -0.94153616470E+02 -0.28883488545E+02 -0.43113463918E+03  0.44224002138E+03  0.00000000000E+00 0. -1.
</event>
<event>
 7    1  0.2873461E-009  0.1846755E+03  0.7561462E-02  0.1163353E+00
          2   -1    0    0  501    0  0.00000000000E+00  0.00000000000E+00  0.10066215185E+03  0.10066215185E+03  0.00000000000E+00 0. -1.
         -2   -1    0    0    0  501 -0.00000000000E+00 -0.00000000000E+00 -0.39010814258E+03  0.39010814258E+03  0.00000000000E+00 0.  1.
         25    2    1    2    0    0  0.28570645780E+02  0.16274917725E+03 -0.16397398223E+03  0.26426941361E+03  0.12508908676E+03 0.  0.
          5    1    3    3  502    0  0.66053645815E+02  0.57248037989E+02 -0.10806761036E+03  0.13905575424E+03  0.41800000000E+01 0. -1.
         -5    1    3    3    0  502 -0.37483000035E+02  0.10550113926E+03 -0.55906371867E+02  0.12521365937E+03  0.41800000000E+01 0. -1.
        -11    1    1    2    0    0  0.59224764835E+01 -0.79079409888E+02 -0.10210884362E+02  0.79955556126E+02  0.00000000000E+00 0. -1.
         11    1    1    2    0    0 -0.34493122264E+02 -0.83669767360E+02 -0.11526112413E+03  0.14654532469E+03  0.00000000000E+00 0.  1.
</event>
<event>
 7    1  0.2873461E-009  0.9617575E+02  0.7561462E-02  0.1288550E+00
          2   -1    0    0  501    0  0.00000000000E+00  0.00000000000E+00  0.29359508879E+03  0.29359508879E+03  0.00000000000E+00 0. -1.
         -2   -1    0    0    0  501 -0.00000000000E+00 -0.00000000000E+00 -0.48868773979E+02  0.48868773979E+02  0.00000000000E+00 0.  1.
         25    2    1    2    0    0  0.13862395263E+02  0.13600160907E+02  0.20359383991E+03  0.23974253672E+03  0.12509557101E+03 0.  0.
          5    1    3    3  502    0 -0.81523459801E+01  0.62281590959E+02  0.62045092063E+02  0.88388478698E+02  0.41800000000E+01 0. -1.
         -5    1    3    3    0  502  0.22014741243E+02 -0.48681430053E+02  0.14154874785E+03  0.15135405803E+03  0.41800000000E+01 0. -1.
        -11    1    1    2    0    0 -0.28309270972E+02  0.22990726769E+02  0.50490629732E+02  0.62283962873E+02  0.00000000000E+00 0. -1.
         11    1    1    2    0    0  0.14446875710E+02 -0.36590887676E+02 -0.93581548298E+01  0.40437363175E+02  0.00000000000E+00 0.  1.
</event>
<event>
 7    1  0.2873461E-009  0.1201472E+03  0.7561462E-02  0.1242854E+00
          2   -1    0    0  501    0  0.00000000000E+00  0.00000000000E+00  0.15437546176E+02  0.15437546176E+02  0.00000000000E+00 0. -1.
         -2   -1    0    0    0  501 -0.00000000000E+00 -0.00000000000E+00 -0.10196962707E+04  0.10196962707E+04  0.00000000000E+00 0.  1.
         25    2    1    2    0    0 -0.14369870855E+02 -0.63435706584E+02 -0.55531076099E+03  0.57292932487E+03  0.12508951981E+03 0.  0.
          5    1    3    3  502    0 -0.12611700873E+02 -0.10094898367E+03 -0.43818445517E+03  0.44985869055E+03  0.41800000000E+01 0. -1.
         -5    1    3    3    0  502 -0.17581699823E+01  0.37513277084E+02 -0.11712630581E+03  0.12307063432E+03  0.41800000000E+01 0. -1.
        -11    1    1    2    0    0 -0.26219541616E+02  0.52450433900E+02 -0.34708532400E+03  0.35200388424E+03  0.00000000000E+00 0. -1.
         11    1    1    2    0    0  0.40589412471E+02  0.10985272684E+02 -0.10186263955E+03  0.11020060778E+03  0.00000000000E+00 0.  1.
</event>
<event>
 7    1  0.2873461E-009  0.9805500E+02  0.7561462E-02  0.1284440E+00
         -2   -1    0    0    0  501 -0.00000000000E+00  0.00000000000E+00  0.23688017886E+02  0.23688017886E+02  0.00000000000E+00 0.  1.
          2   -1    0    0  501    0  0.00000000000E+00 -0.00000000000E+00 -0.64411390623E+03  0.64411390623E+03  0.00000000000E+00 0. -1.
         25    2    1    2    0    0 -0.17463509173E+02 -0.52304703423E+02 -0.41118536393E+03  0.43331558416E+03  0.12509290874E+03 0.  0.
          5    1    3    3  502    0  0.79140559972E+01  0.29847492416E+02 -0.23678572995E+03  0.23882725848E+03  0.41800000000E+01 0.  1.
         -5    1    3    3    0  502 -0.25377565170E+02 -0.82152195839E+02 -0.17439963398E+03  0.19448832568E+03  0.41800000000E+01 0.  1.
        -11    1    1    2    0    0 -0.43470789954E+01  0.56489862173E+02 -0.20392680750E+03  0.21165099679E+03  0.00000000000E+00 0. -1.
         11    1    1    2    0    0  0.21810588168E+02 -0.41851587506E+01 -0.53137169170E+01  0.22835343165E+02  0.00000000000E+00 0.  1.
</event>
<event>
 7    1  0.2873461E-009  0.1814872E+03  0.7561462E-02  0.1166371E+00
         -1   -1    0    0    0  501 -0.00000000000E+00  0.00000000000E+00  0.70545437896E+02  0.70545437896E+02  0.00000000000E+00 0.  1.
          1   -1    0    0  501    0  0.00000000000E+00 -0.00000000000E+00 -0.67538606607E+03  0.67538606607E+03  0.00000000000E+00 0. -1.
         25    2    1    2    0    0 -0.90094143423E+02  0.14463546789E+03 -0.15463048482E+03  0.26190713357E+03  0.12509351113E+03 0.  0.
          5    1    3    3  502    0  0.16711972537E+02  0.21447846660E+02 -0.76041305857E+02  0.80864409655E+02  0.41800000000E+01 0. -1.
         -5    1    3    3    0  502 -0.10680611596E+03  0.12318762123E+03 -0.78589178967E+02  0.18104272391E+03  0.41800000000E+01 0. -1.
        -11    1    1    2    0    0  0.39767468562E+02 -0.40767935206E+02 -0.97550956793E+02  0.11295868832E+03  0.00000000000E+00 0.  1.
         11    1    1    2    0    0  0.50326674861E+02 -0.10386753269E+03 -0.35265918656E+03  0.37106568207E+03  0.00000000000E+00 0. -1.
</event>
<event>
 7    1  0.2873461E-009  0.1725285E+03  0.7561462E-02  0.1175236E+00
         -2   -1    0    0    0  501 -0.00000000000E+00  0.00000000000E+00  0.22800922496E+03  0.22800922496E+03  0.00000000000E+00 0.  1.
          2   -1    0    0  501    0  0.00000000000E+00 -0.00000000000E+00 -0.22774459674E+03  0.22774459674E+03  0.00000000000E+00 0. -1.
         25    2    1    2    0    0 -0.19085154465E+02 -0.12958891632E+03  0.14885372252E+03  0.23444166654E+03  0.12509170215E+03 0.  0.
          5    1    3    3  502    0  0.24764686542E+02  0.15435185456E+02  0.21742777636E+02  0.36629979919E+02  0.41800000000E+01 0.  1.
         -5    1    3    3    0  502 -0.43849841006E+02 -0.14502410178E+03  0.12711094489E+03  0.19781168662E+03  0.41800000000E+01 0.  1.
        -11    1    1    2    0    0 -0.35231863853E+02  0.90430864205E+02 -0.88346171778E+02  0.13124051013E+03  0.00000000000E+00 0. -1.
         11    1    1    2    0    0  0.54317018318E+02  0.39158052118E+02 -0.60242922519E+02  0.90071645029E+02  0.00000000000E+00 0.  1.
</event>
<event>
 7    1  0.2873461E-009  0.1167418E+03  0.7561462E-02  0.1248571E+00
          1   -1    0    0  501    0  0.00000000000E+00  0.00000000000E+00  0.76469946477E+03  0.76469946477E+03  0.00000000000E+00 0. -1.
         -1   -1    0    0    0  501 -0.00000000000E+00 -0.00000000000E+00 -0.30737384853E+02  0.30737384853E+02  0.00000000000E+00 0.  1.
         25    2    1    2    0    0 -0.60535655752E+02  0.35292873850E+02  0.61154905384E+03  0.62813239717E+03  0.12509160868E+03 0.  0.
          5    1    3    3  502    0 -0.56679705832E+02  0.68744366371E+02  0.55547893831E+03  0.56259461450E+03  0.41800000000E+01 0. -1.
         -5    1    3    3    0  502 -0.38559499194E+01 -0.33451492521E+02  0.56070115525E+02  0.65537782665E+02  0.41800000000E+01 0. -1.
        -11    1    1    2    0    0 -0.62533521915E+01 -0.42702397170E+02  0.28097693643E+02  0.51498344883E+02  0.00000000000E+00 0.  1.
         11    1    1    2    0    0  0.66789007943E+02  0.74095233194E+01  0.94315332432E+02  0.11580610757E+03  0.00000000000E+00 0. -1.
</event>
<event>
 7    1  0.2873461E-009  0.4590918E+02  0.7561462E-02  0.1468744E+00
          3   -1    0    0  501    0  0.00000000000E+00  0.00000000000E+00  0.21085176049E+03  0.21085176049E+03  0.00000000000E+00 0. -1.
         -3   -1    0    0    0  501 -0.00000000000E+00 -0.00000000000E+00 -0.10655640391E+03  0.10655640391E+03  0.00000000000E+00 0.  1.
         25    2    1    2    0    0 -0.33330653602E+02 -0.29153045903E+01 -0.47828686340E+02  0.13803749798E+03  0.12508931265E+03 0.  0.
          5    1    3    3  502    0 -0.30679002502E+02 -0.70571033972E+01  0.39380653172E+02  0.50589644664E+02  0.41800000000E+01 0. -1.
         -5    1    3    3    0  502 -0.26516510998E+01  0.41417988069E+01 -0.87209339513E+02  0.87447853313E+02  0.41800000000E+01 0. -1.
        -11    1    1    2    0    0 -0.84387616304E+01 -0.66651873751E+01 -0.81330553698E+01  0.13482730074E+02  0.00000000000E+00 0.  1.
         11    1    1    2    0    0  0.41769415233E+02  0.95804919655E+01  0.16025709829E+03  0.16588793636E+03  0.00000000000E+00 0. -1.
</event>
<event>
 7    1  0.2873461E-009  0.1056199E+03  0.7561462E-02  0.1268903E+00
          1   -1    0    0  501    0  0.00000000000E+00  0.00000000000E+00  0.80718716852E+02  0.80718716852E+02  0.00000000000E+00 0. -1.
         -1   -1    0    0    0  501 -0.00000000000E+00 -0.00000000000E+00 -0.20372342964E+03  0.20372342964E+03  0.00000000000E+00 0.  1.
         25    2    1    2    0    0  0.45176989358E+02 -0.28142370035E+02 -0.11328215015E+03  0.17695378483E+03  0.12508734175E+03 0.  0.
          5    1    3    3  502    0  0.77293431346E+02  0.12620469242E+02 -0.91514337141E+02  0.12052342957E+03  0.41800000000E+01 0. -1.
         -5    1    3    3    0  502 -0.32116441988E+02 -0.40762839277E+02 -0.21767813010E+02  0.56430355263E+02  0.41800000000E+01 0. -1.
        -11    1    1    2    0    0 -0.14642575676E+02 -0.19363006114E+02 -0.37408092711E+02  0.44594802707E+02  0.00000000000E+00 0.  1.
         11    1    1    2    0    0 -0.30534413682E+02  0.47505376149E+02  0.27685530075E+02  0.62893558950E+02  0.00000000000E+00 0. -1.
</event>
<event>
 7    1  0.2873461E-009  0.1805110E+03  0.7561462E-02  0.1167309E+00
         -2   -1    0    0    0  501 -0.00000000000E+00  0.00000000000E+00  0.11166535806E+03  0.11166535806E+03  0.00000000000E+00 0.  1.
          2   -1    0    0  501    0  0.00000000000E+00 -0.00000000000E+00 -0.32042985732E+03  0.32042985732E+03  0.00000000000E+00 0. -1.
         25    2    1    2    0    0 -0.12742823212E+03 -0.83640952326E+02 -0.14090621632E+03  0.24235519543E+03  0.12509082982E+03 0.  0.
          5    1    3    3  502    0  0.78747699082E+01  0.21335710039E+02 -0.31574881285E+02  0.39136556467E+02  0.41800000000E+01 0. -1.
         -5    1    3    3    0  502 -0.13530300203E+03 -0.10497666236E+03 -0.10933133503E+03  0.20321863896E+03  0.41800000000E+01 0. -1.
        -11    1    1    2    0    0  0.26885887743E+02  0.56319351344E+02  0.49944111234E+01  0.62607223529E+02  0.00000000000E+00 0.  1.
         11    1    1    2    0    0  0.10054234438E+03  0.27321600983E+02 -0.72852694065E+02  0.12713279642E+03  0.00000000000E+00 0. -1.
</event>
<event>
 7    1  0.2873461E-009  0.1441029E+03  0.7561462E-02  0.1207912E+00
         -2   -1    0    0    0  501 -0.00000000000E+00  0.00000000000E+00  0.17707144935E+02  0.17707144935E+02  0.00000000000E+00 0.  1.
          2   -1    0    0  501    0  0.00000000000E+00 -0.00000000000E+00 -0.13022192097E+04  0.13022192097E+04  0.00000000000E+00 0. -1.
         25    2    1    2    0    0 -0.97224702152E+02 -0.16932210617E+00 -0.84667322635E+03  0.86136873366E+03  0.12509145348E+03 0.  0.
          5    1    3    3  502    0  0.27840772541E+01  0.44678415034E+02 -0.16908053949E+03  0.17495603188E+03  0.41800000000E+01 0. -1.
         -5    1    3    3    0  502 -0.10000877941E+03 -0.44847737140E+02 -0.67759268686E+03  0.68641270178E+03  0.41800000000E+01 0. -1.
        -11    1    1    2    0    0  0.19209615722E+02 -0.41053633479E+02 -0.10811792757E+03  0.11723436535E+03  0.00000000000E+00 0.  1.
         11    1    1    2    0    0  0.78015086430E+02  0.41222955585E+02 -0.32972091084E+03  0.34132325562E+03  0.00000000000E+00 0. -1.
</event>
<event>
 7    1  0.2873461E-009  0.1452920E+03  0.7561462E-02  0.1206380E+00
         -1   -1    0    0    0  501 -0.00000000000E+00  0.00000000000E+00  0.18949558228E+02  0.18949558228E+02  0.00000000000E+00 0.  1.
          1   -1    0    0  501    0  0.00000000000E+00 -0.00000000000E+00 -0.12760966806E+04  0.12760966806E+04  0.00000000000E+00 0. -1.
         25    2    1    2    0    0 -0.39175584400E+02 -0.93200109486E+02 -0.86221082138E+03  0.87708511932E+03  0.12509923745E+03 0.  0.
          5    1    3    3  502    0 -0.86518914275E+01 -0.11579769816E+03 -0.52431453321E+03  0.53703553352E+03  0.41800000000E+01 0.  1.
         -5    1    3    3    0  502 -0.30523692973E+02  0.22597588678E+02 -0.33789628816E+03  0.34004958580E+03  0.41800000000E+01 0.  1.
        -11    1    1    2    0    0  0.69170659996E+02  0.61804821729E+02 -0.24969275956E+03  0.26636608337E+03  0.00000000000E+00 0.  1.
         11    1    1    2    0    0 -0.29995075596E+02  0.31395287756E+02 -0.14524354141E+03  0.15159503611E+03  0.00000000000E+00 0. -1.
</event>
<event>
 7    1  0.2873461E-009  0.1210482E+03  0.7561462E-02  0.1241378E+00
         -3   -1    0    0    0  501 -0.00000000000E+00  0.00000000000E+00  0.43733747876E+02  0.43733747876E+02  0.00000000000E+00 0.  1.
          3   -1    0    0  501    0  0.00000000000E+00 -0.00000000000E+00 -0.77138346215E+03  0.77138346215E+03  0.00000000000E+00 0. -1.
         25    2    1    2    0    0  0.68285835275E+02  0.89751072712E+02 -0.58804802778E+03  0.61169134569E+03  0.12509040356E+03 0.  0.
          5    1    3    3  502    0  0.18369990870E+02  0.72106026897E+02 -0.52029202544E+03  0.52560251123E+03  0.41800000000E+01 0.  1.
         -5    1    3    3    0  502  0.49915844405E+02  0.17645045815E+02 -0.67756002339E+02  0.86088834453E+02  0.41800000000E+01 0.  1.
        -11    1    1    2    0    0 -0.34381132746E+02 -0.29389862706E+02  0.25594287842E+01  0.45303167598E+02  0.00000000000E+00 0.  1.
         11    1    1    2    0    0 -0.33904702529E+02 -0.60361210007E+02 -0.14216111528E+03  0.15812269674E+03  0.00000000000E+00 0. -1.
</event>
<event>
 7    1  0.2873461E-009  0.1569909E+03  0.7561462E-02  0.1192136E+00
         -2   -1    0    0    0  501 -0.00000000000E+00  0.00000000000E+00  0.21879409014E+04  0.21879409014E+04  0.00000000000E+00 0.  1.
          2   -1    0    0  501    0  0.00000000000E+00 -0.00000000000E+00 -0.14300566016E+02  0.14300566016E+02  0.00000000000E+00 0. -1.
         25    2    1    2    0    0 -0.11959668092E+03  0.61934276626E+01  0.15964549875E+04  0.16058199814E+04  0.12509021112E+03 0.  0.
          5    1    3    3  502    0 -0.57456963583E+02 -0.57236319856E+02  0.61301701342E+03  0.61837256578E+03  0.41800000000E+01 0. -1.
         -5    1    3    3    0  502 -0.62139717333E+02  0.63429747518E+02  0.98343797407E+03  0.98744741560E+03  0.41800000000E+01 0. -1.
        -11    1    1    2    0    0  0.44071543942E+02  0.36410462371E+02  0.31849768424E+03  0.32358738792E+03  0.00000000000E+00 0.  1.
         11    1    1    2    0    0  0.75525136974E+02 -0.42603890034E+02  0.25868766365E+03  0.27283409810E+03  0.00000000000E+00 0. -1.
</event>
<event>
 7    1  0.2873461E-009  0.1347946E+03  0.7561462E-02  0.1220510E+00
         -3   -1    0    0    0  501 -0.00000000000E+00  0.00000000000E+00  0.29984977740E+02  0.29984977740E+02  0.00000000000E+00 0.  1.
          3   -1    0    0  501    0  0.00000000000E+00 -0.00000000000E+00 -0.75988581333E+03  0.75988581333E+03  0.00000000000E+00 0. -1.
         25    2    1    2    0    0  0.65384251689E+02  0.67021494828E+02 -0.26620797169E+03  0.30867802514E+03  0.12509379630E+03 0.  0.
          5    1    3    3  502    0  0.19955036196E+02 -0.28611724397E+02 -0.13774873157E+03  0.14215843166E+03  0.41800000000E+01 0. -1.
         -5    1    3    3    0  502  0.45429215492E+02  0.95633219225E+02 -0.12845924012E+03  0.16651959348E+03  0.41800000000E+01 0. -1.
        -11    1    1    2    0    0  0.15096839024E+02  0.91780038669E+01 -0.57753810854E+02  0.60395802600E+02  0.00000000000E+00 0.  1.
         11    1    1    2    0    0 -0.80481090713E+02 -0.76199498695E+02 -0.40593905304E+03  0.42079696333E+03  0.00000000000E+00 0. -1.
</event>
<event>
 7    1  0.2873461E-009  0.1015898E+03  0.7561462E-02  0.1276988E+00
         -1   -1    0    0    0  501 -0.00000000000E+00  0.00000000000E+00  0.29215187616E+02  0.29215187616E+02  0.00000000000E+00 0.  1.
          1   -1    0    0  501    0  0.00000000000E+00 -0.00000000000E+00 -0.48322635008E+03  0.48322635008E+03  0.00000000000E+00 0. -1.
         25    2    1    2    0    0  0.82885153590E+01  0.43164037277E+02 -0.30350166534E+03  0.33119876628E+03  0.12509008083E+03 0.  0.
          5    1    3    3  502    0  0.34358927720E+02 -0.19314743257E+02 -0.30823783676E+02  0.50211286194E+02  0.41800000000E+01 0. -1.
         -5    1    3    3    0  502 -0.26070412361E+02  0.62478780535E+02 -0.27267788166E+03  0.28098748009E+03  0.41800000000E+01 0. -1.
        -11    1    1    2    0    0 -0.36886188583E+02  0.74020417376E+01 -0.89060891512E+02  0.96681040163E+02  0.00000000000E+00 0. -1.
         11    1    1    2    0    0  0.28597673224E+02 -0.50566079015E+02 -0.61448605616E+02  0.84561731255E+02  0.00000000000E+00 0.  1.
</event>
<event>
 7    1  0.2873461E-009  0.1852226E+03  0.7561462E-02  0.1162842E+00
         -2   -1    0    0    0  501 -0.00000000000E+00  0.00000000000E+00  0.70283684594E+02  0.70283684594E+02  0.00000000000E+00 0.  1.
          2   -1    0    0  501    0  0.00000000000E+00 -0.00000000000E+00 -0.69695365043E+03  0.69695365043E+03  0.00000000000E+00 0. -1.
         25    2    1    2    0    0  0.86004722513E+02 -0.13960715993E+03 -0.49363173876E+03  0.53498303942E+03  0.12509031761E+03 0.  0.
          5    1    3    3  502    0  0.35715815256E+02  0.18285535844E+02 -0.10455568344E+03  0.11206847737E+03  0.41800000000E+01 0.  1.
         -5    1    3    3    0  502  0.50288907257E+02 -0.15789269578E+03 -0.38907605532E+03  0.42291456205E+03  0.41800000000E+01 0.  1.
        -11    1    1    2    0    0 -0.36552214470E+02  0.69839389690E+02 -0.59204004125E+01  0.79048440060E+02  0.00000000000E+00 0.  1.
         11    1    1    2    0    0 -0.49452508043E+02  0.69767770242E+02 -0.12711782666E+03  0.15320585554E+03  0.00000000000E+00 0. -1.
</event>
<event>
 7    1  0.2873461E-009  0.1764072E+03  0.7561462E-02  0.1171326E+00
         -1   -1    0    0    0  501 -0.00000000000E+00  0.00000000000E+00  0.23977855298E+03  0.23977855298E+03  0.00000000000E+00 0.  1.
          1   -1    0    0  501    0  0.00000000000E+00 -0.00000000000E+00 -0.24696839300E+03  0.24696839300E+03  0.00000000000E+00 0. -1.
         25    2    1    2    0    0  0.83976229404E+02  0.15054386313E+03  0.12913979541E+03  0.24907820107E+03  0.12508957455E+03 0.  0.
          5    1    3    3  502    0  0.87402843099E+02  0.14960500317E+03  0.14894730746E+03  0.22852502435E+03  0.41800000000E+01 0. -1.
         -5    1    3    3    0  502 -0.34266136946E+01  0.93885995632E+00 -0.19807512054E+02  0.20553176718E+02  0.41800000000E+01 0. -1.
        -11    1    1    2    0    0 -0.19199853830E+02 -0.57656190045E+02 -0.10305502547E+03  0.11963782392E+03  0.00000000000E+00 0. -1.
         11    1    1    2    0    0 -0.64776375575E+02 -0.92887673081E+02 -0.33274609955E+02  0.11803092099E+03  0.00000000000E+00 0.  1.
</event>
<event>
 7    1  0.2873461E-009  0.1155950E+03  0.7561462E-02  0.1250546E+00
          2   -1    0    0  501    0  0.00000000000E+00  0.00000000000E+00  0.85877003295E+03  0.85877003295E+03  0.00000000000E+00 0. -1.
         -2   -1    0    0    0  501 -0.00000000000E+00 -0.00000000000E+00 -0.22248302697E+02  0.22248302697E+02  0.00000000000E+00 0.  1.
         25    2    1    2    0    0 -0.45160440302E+02 -0.15790478189E+02  0.68606984254E+03  0.69901945605E+03  0.12509023354E+03 0.  0.
          5    1    3    3  502    0  0.19153328946E+02 -0.53825408594E+02  0.35540697241E+03  0.35999390697E+03  0.41800000000E+01 0.  1.
         -5    1    3    3    0  502 -0.64313769249E+02  0.38034930404E+02  0.33066287013E+03  0.33902554908E+03  0.41800000000E+01 0.  1.
        -11    1    1    2    0    0 -0.41699427528E+01  0.42682484393E+02  0.42919935660E+02  0.60673748636E+02  0.00000000000E+00 0. -1.
         11    1    1    2    0    0  0.49330383055E+02 -0.26892006204E+02  0.10753195205E+03  0.12132513096E+03  0.00000000000E+00 0.  1.
</event>
<event>
 7    1  0.2873461E-009  0.1052945E+03  0.7561462E-02  0.1269540E+00
          2   -1    0    0  501    0  0.00000000000E+00  0.00000000000E+00  0.45503421623E+03  0.45503421623E+03  0.00000000000E+00 0. -1.
         -2   -1    0    0    0  501 -0.00000000000E+00 -0.00000000000E+00 -0.28103552113E+02  0.28103552113E+02  0.00000000000E+00 0.  1.
         25    2    1    2    0    0  0.55448878472E+00 -0.36468550569E+01  0.17329722596E+03  0.21375314547E+03  0.12507946140E+03 0.  0.
          5    1    3    3  502    0  0.36696474317E+02  0.48835065090E+02  0.87701898189E+02  0.10696069444E+03  0.41800000000E+01 0.  1.
         -5    1    3    3    0  502 -0.36141985533E+02 -0.52481920147E+02  0.85595327774E+02  0.10679245103E+03  0.41800000000E+01 0.  1.
        -11    1    1    2    0    0  0.19646400100E+02  0.39631210181E+02  0.85543303157E+02  0.96303014346E+02  0.00000000000E+00 0. -1.
         11    1    1    2    0    0 -0.20200888884E+02 -0.35984355124E+02  0.16809013500E+03  0.17308160853E+03  0.00000000000E+00 0.  1.
</event>
<event>
 7    1  0.2873461E-009  0.8390625E+02  0.7561462E-02  0.1318318E+00
         -2   -1    0    0    0  501 -0.00000000000E+00  0.00000000000E+00  0.41880250866E+02  0.41880250866E+02  0.00000000000E+00 0.  1.
          2   -1    0    0  501    0  0.00000000000E+00 -0.00000000000E+00 -0.30303843694E+03  0.30303843694E+03  0.00000000000E+00 0. -1.
         25    2    1    2    0    0 -0.85067781832E+00 -0.66568965704E+01 -0.18244556905E+03  0.22131154803E+03  0.12508947878E+03 0.  0.
          5    1    3    3  502    0 -0.16590160912E+02  0.50627053774E+02 -0.13492288426E+03  0.14512060195E+03  0.41800000000E+01 0.  1.
         -5    1    3    3    0  502  0.15739483094E+02 -0.57283950344E+02 -0.47522684785E+02  0.76190946078E+02  0.41800000000E+01 0.  1.
        -11    1    1    2    0    0  0.27503394551E+02  0.71882798622E+00 -0.89961592213E+02  0.94074659176E+02  0.00000000000E+00 0. -1.
         11    1    1    2    0    0 -0.26652716733E+02  0.59380685842E+01  0.11248975186E+02  0.29532480602E+02  0.00000000000E+00 0.  1.
</event>
<event>
 7    1  0.2873461E-009  0.1334221E+03  0.7561462E-02  0.1222465E+00
         -2   -1    0    0    0  501 -0.00000000000E+00  0.00000000000E+00  0.91547137059E+02  0.91547137059E+02  0.00000000000E+00 0. -1.
          2   -1    0    0  501    0  0.00000000000E+00 -0.00000000000E+00 -0.28123862773E+03  0.28123862773E+03  0.00000000000E+00 0.  1.
         25    2    1    2    0    0  0.70458285453E+01  0.97321999608E+02 -0.44509320843E+02  0.16477058468E+03  0.12508817141E+03 0.  0.
          5    1    3    3  502    0 -0.38756257894E+02  0.73411775810E+02 -0.68446557493E+02  0.10767423084E+03  0.41800000000E+01 0. -1.
         -5    1    3    3    0  502  0.45802086440E+02  0.23910223798E+02  0.23937236650E+02  0.57096353848E+02  0.41800000000E+01 0. -1.
        -11    1    1    2    0    0 -0.22306134009E+02  0.93093788921E+01  0.34903090377E+01  0.24421515247E+02  0.00000000000E+00 0. -1.
         11    1    1    2    0    0  0.15260305464E+02 -0.10663137850E+03 -0.14867247887E+03  0.18359366486E+03  0.00000000000E+00 0.  1.
</event>
<event>
 7    1  0.2873461E-009  0.3537747E+03  0.7561462E-02  0.1061076E+00
         -2   -1    0    0    0  501 -0.00000000000E+00  0.00000000000E+00  0.19291015611E+03  0.19291015611E+03  0.00000000000E+00 0.  1.
          2   -1    0    0  501    0  0.00000000000E+00 -0.00000000000E+00 -0.65829799733E+03  0.65829799733E+03  0.00000000000E+00 0. -1.
         25    2    1    2    0    0  0.26881547357E+03 -0.20264222794E+03 -0.28606967129E+03  0.45913985622E+03  0.12509164386E+03 0.  0.
          5    1    3    3  502    0  0.14289952919E+02  0.17102320930E+02 -0.21603569528E+02  0.31318983891E+02  0.41800000000E+01 0. -1.
         -5    1    3    3    0  502  0.25452552065E+03 -0.21974454887E+03 -0.26446610176E+03  0.42782087233E+03  0.41800000000E+01 0. -1.
        -11    1    1    2    0    0 -0.10740945335E+03  0.13762792468E+03 -0.93736847452E+02  0.19815355887E+03  0.00000000000E+00 0.  1.
         11    1    1    2    0    0 -0.16140602022E+03  0.65014303257E+02 -0.85581322472E+02  0.19391473835E+03  0.00000000000E+00 0. -1.
</event>
<event>
 7    1  0.2873461E-009  0.1279381E+03  0.7561462E-02  0.1230548E+00
         -2   -1    0    0    0  501 -0.00000000000E+00  0.00000000000E+00  0.30647871707E+03  0.30647871707E+03  0.00000000000E+00 0.  1.
          2   -1    0    0  501    0  0.00000000000E+00 -0.00000000000E+00 -0.73385775570E+02  0.73385775570E+02  0.00000000000E+00 0. -1.
         25    2    1    2    0    0  0.76668942571E+02  0.69615763695E+02  0.11871039087E+03  0.20115493126E+03  0.12508664260E+03 0.  0.
          5    1    3    3  502    0  0.10086644963E+03  0.50509790045E+02  0.12602920546E+03  0.16919253110E+03  0.41800000000E+01 0. -1.
         -5    1    3    3    0  502 -0.24197507057E+02  0.19105973650E+02 -0.73188145863E+01  0.31962400158E+02  0.41800000000E+01 0. -1.
        -11    1    1    2    0    0 -0.46414827878E+02 -0.13853166819E+02  0.10359224379E+03  0.11435733230E+03  0.00000000000E+00 0.  1.
         11    1    1    2    0    0 -0.30254114693E+02 -0.55762596877E+02  0.10790306843E+02  0.64352229084E+02  0.00000000000E+00 0. -1.
</event>
<event>
 6    1  0.2873461E-009  0.1028286E+03  0.7561462E-02  0.1274458E+00
         -1   -1    0    0    0  501 -0.00000000000E+00  0.00000000000E+00  0.11584936344E+03  0.11584936344E+03  0.00000000000E+00 0.  1.
          1   -1    0    0  501    0  0.00000000000E+00 -0.00000000000E+00 -0.15330868838E+03  0.15330868838E+03  0.00000000000E+00 0. -1.
          5    1    1    2  502    0  0.19528340465E+02 -0.31068114866E+02  0.32121105317E+02  0.48947131166E+02  0.41800000000E+01 0. -1.
         -5    1    1    2    0  502 -0.50295002747E+02  0.76452201706E+02  0.19033697626E+01  0.91627625002E+02  0.41800000000E+01 0. -1.
        -11    1    1    2    0    0  0.44663705080E+02 -0.21700304640E+02  0.24479477149E+01  0.49716619163E+02  0.00000000000E+00 0.  1.
         11    1    1    2    0    0 -0.13897042799E+02 -0.23683782200E+02 -0.73931747737E+02  0.78866676495E+02  0.00000000000E+00 0. -1.
</event>
<event>
 7    1  0.2873461E-009  0.1244977E+03  0.7561462E-02  0.1235856E+00
          2   -1    0    0  501    0  0.00000000000E+00  0.00000000000E+00  0.47857413941E+03  0.47857413941E+03  0.00000000000E+00 0.  1.
         -2   -1    0    0    0  501 -0.00000000000E+00 -0.00000000000E+00 -0.34656852934E+02  0.34656852934E+02  0.00000000000E+00 0. -1.
         25    2    1    2    0    0 -0.50021092821E+02 -0.47302190193E+02  0.25653076841E+03  0.29358531057E+03  0.12507874525E+03 0.  0.
          5    1    3    3  502    0  0.34779932592E+02  0.49548175357E+01  0.31147468809E+02  0.47136303855E+02  0.41800000000E+01 0.  1.
         -5    1    3    3    0  502 -0.84801025413E+02 -0.52257007729E+02  0.22538329961E+03  0.24644900671E+03  0.41800000000E+01 0.  1.
        -11    1    1    2    0    0  0.76438872830E+02  0.28879799180E+02  0.12324815476E+03  0.14787512208E+03  0.00000000000E+00 0. -1.
         11    1    1    2    0    0 -0.26417780010E+02  0.18422391013E+02  0.64138363304E+02  0.71770559693E+02  0.00000000000E+00 0.  1.
</event>
<event>
 7    1  0.2873461E-009  0.1124081E+03  0.7561462E-02  0.1256174E+00
          2   -1    0    0  501    0  0.00000000000E+00  0.00000000000E+00  0.32295218202E+03  0.32295218202E+03  0.00000000000E+00 0. -1.
         -2   -1    0    0    0  501 -0.00000000000E+00 -0.00000000000E+00 -0.63691589304E+02  0.63691589304E+02  0.00000000000E+00 0.  1.
         25    2    1    2    0    0 -0.76153019508E+02 -0.22440972390E+02  0.76502487160E+02  0.16672946354E+03  0.12507279420E+03 0.  0.
          5    1    3    3  502    0 -0.10172795666E+03 -0.81856944118E+01  0.21650468319E+02  0.10441167530E+03  0.41800000000E+01 0.  1.
         -5    1    3    3    0  502  0.25574937156E+02 -0.14255277978E+02  0.54852018841E+02  0.62317788244E+02  0.41800000000E+01 0.  1.
        -11    1    1    2    0    0  0.60869103627E+02  0.37620411636E+02  0.18490365157E+03  0.19826674837E+03  0.00000000000E+00 0. -1.
         11    1    1    2    0    0  0.15283915881E+02 -0.15179439246E+02 -0.21455460132E+01  0.21647559405E+02  0.00000000000E+00 0.  1.
</event>
<event>
 7    1  0.2873461E-009  0.8756767E+02  0.7561462E-02  0.1308851E+00
         -1   -1    0    0    0  501 -0.00000000000E+00  0.00000000000E+00  0.19178179850E+03  0.19178179850E+03  0.00000000000E+00 0.  1.
          1   -1    0    0  501    0  0.00000000000E+00 -0.00000000000E+00 -0.11015467077E+03  0.11015467077E+03  0.00000000000E+00 0. -1.
         25    2    1    2    0    0  0.64439350146E+02 -0.21148574605E+01  0.11629178722E+03  0.18256359855E+03  0.12509510491E+03 0.  0.
          5    1    3    3  502    0  0.16222421965E+01  0.21304658079E+02  0.11325013312E+03  0.11532382744E+03  0.41800000000E+01 0. -1.
         -5    1    3    3    0  502  0.62817107950E+02 -0.23419515539E+02  0.30416541088E+01  0.67239771110E+02  0.41800000000E+01 0. -1.
        -11    1    1    2    0    0 -0.57690846879E+02 -0.21550277839E+02  0.15493207273E+02  0.63503446837E+02  0.00000000000E+00 0.  1.
         11    1    1    2    0    0 -0.67485032667E+01  0.23665135299E+02 -0.50157866775E+02  0.55869423878E+02  0.00000000000E+00 0. -1.
</event>
<event>
 7    1  0.2873461E-009  0.2008722E+03  0.7561462E-02  0.1149005E+00
          1   -1    0    0  501    0  0.00000000000E+00  0.00000000000E+00  0.46263341893E+03  0.46263341893E+03  0.00000000000E+00 0. -1.
         -1   -1    0    0    0  501 -0.00000000000E+00 -0.00000000000E+00 -0.99466862430E+02  0.99466862430E+02  0.00000000000E+00 0.  1.
         25    2    1    2    0    0  0.15661504063E+03  0.92211706406E+02  0.14551276418E+03  0.26429593787E+03  0.12508840268E+03 0.  0.
          5    1    3    3  502    0 -0.15101041796E+02  0.27080503674E+02  0.45255340240E+02  0.55017391458E+02  0.41800000000E+01 0. -1.
         -5    1    3    3    0  502  0.17171608242E+03  0.65131202732E+02  0.10025742394E+03  0.20927854641E+03  0.41800000000E+01 0. -1.
        -11    1    1    2    0    0 -0.13287488450E+03 -0.57685469697E+02  0.21014894054E+03  0.25523699879E+03  0.00000000000E+00 0.  1.
         11    1    1    2    0    0 -0.23740156130E+02 -0.34526236709E+02  0.75048517784E+01  0.42567344697E+02  0.00000000000E+00 0. -1.
</event>
<event>
 7    1  0.2873461E-009  0.8040010E+02  0.7561462E-02  0.1327920E+00
          1   -1    0    0  501    0  0.00000000000E+00  0.00000000000E+00  0.86599754603E+02  0.86599754603E+02  0.00000000000E+00 0. -1.
         -1   -1    0    0    0  501 -0.00000000000E+00 -0.00000000000E+00 -0.17245677450E+03  0.17245677450E+03  0.00000000000E+00 0.  1.
         25    2    1    2    0    0  0.41124111424E+02 -0.40337424827E+02 -0.31167283856E+02  0.14120246940E+03  0.12509371447E+03 0.  0.
          5    1    3    3  502    0  0.22081762138E+02 -0.11978196670E+02  0.48300509594E+02  0.54603049747E+02  0.41800000000E+01 0.  1.
         -5    1    3    3    0  502  0.19042349286E+02 -0.28359228156E+02 -0.79467793450E+02  0.86599419650E+02  0.41800000000E+01 0.  1.
        -11    1    1    2    0    0  0.25602489015E+02  0.14024846437E+02 -0.28016919110E+01  0.29326323311E+02  0.00000000000E+00 0. -1.
         11    1    1    2    0    0 -0.66726600440E+02  0.26312578390E+02 -0.51888044134E+02  0.88527736399E+02  0.00000000000E+00 0.  1.
</event>
<event>
 7    1  0.2873461E-009  0.2472289E+03  0.7561462E-02  0.1115069E+00
         -1   -1    0    0    0  501 -0.00000000000E+00  0.00000000000E+00  0.35211494459E+03  0.35211494459E+03  0.00000000000E+00 0.  1.
          1   -1    0    0  501    0  0.00000000000E+00 -0.00000000000E+00 -0.40469292427E+03  0.40469292427E+03  0.00000000000E+00 0. -1.
         25    2    1    2    0    0 -0.11413104375E+03 -0.19223507670E+03  0.25773344272E+03  0.36339136681E+03  0.12508612278E+03 0.  0.
          5    1    3    3  502    0 -0.73542805450E+02 -0.17565309653E+02  0.61720590873E+02  0.97693336899E+02  0.41800000000E+01 0. -1.
         -5    1    3    3    0  502 -0.40588238304E+02 -0.17466976705E+03  0.19601285185E+03  0.26569802991E+03  0.41800000000E+01 0. -1.
        -11    1    1    2    0    0  0.23786841231E+02  0.12368516737E+03 -0.13509139565E+03  0.18469845592E+03  0.00000000000E+00 0.  1.
         11    1    1    2    0    0  0.90344202523E+02  0.68549909336E+02 -0.17522002676E+03  0.20871804612E+03  0.00000000000E+00 0. -1.
</event>
<event>
 7    1  0.2873461E-009  0.1638934E+03  0.7561462E-02  0.1184370E+00
          1   -1    0    0  501    0  0.00000000000E+00  0.00000000000E+00  0.36538065848E+03  0.36538065848E+03  0.00000000000E+00 0. -1.
         -1   -1    0    0    0  501 -0.00000000000E+00 -0.00000000000E+00 -0.86804258480E+02  0.86804258480E+02  0.00000000000E+00 0.  1.
         25    2    1    2    0    0 -0.44733006618E+02 -0.13333170334E+03  0.13179572292E+03  0.22977214621E+03  0.12508693616E+03 0.  0.
          5    1    3    3  502    0  0.16600912331E+02 -0.74573547728E+02  0.12222019942E+03  0.14419450010E+03  0.41800000000E+01 0.  1.
         -5    1    3    3    0  502 -0.61333918949E+02 -0.58758155613E+02  0.95755235018E+01  0.85577646118E+02  0.41800000000E+01 0.  1.
        -11    1    1    2    0    0  0.70606722175E+02  0.78365975854E+02  0.10384127575E+03  0.14801873509E+03  0.00000000000E+00 0.  1.
         11    1    1    2    0    0 -0.25873715558E+02  0.54965727487E+02  0.42939401319E+02  0.74394035652E+02  0.00000000000E+00 0. -1.
</event>
<event>
 7    1  0.2873461E-009  0.1243551E+03  0.7561462E-02  0.1236081E+00
          2   -1    0    0  501    0  0.00000000000E+00  0.00000000000E+00  0.17780542463E+03  0.17780542463E+03  0.00000000000E+00 0. -1.
         -2   -1    0    0    0  501 -0.00000000000E+00 -0.00000000000E+00 -0.14212563386E+03  0.14212563386E+03  0.00000000000E+00 0.  1.
         25    2    1    2    0    0 -0.41501343554E+01  0.10574801974E+03  0.63333922018E+02  0.17566486056E+03  0.12508832985E+03 0.  0.
          5    1    3    3  502    0  0.22451961894E+02  0.88740483700E+02 -0.13378401459E+02  0.92603553203E+02  0.41800000000E+01 0. -1.
         -5    1    3    3    0  502 -0.26602096250E+02  0.17007536037E+02  0.76712323477E+02  0.83061307359E+02  0.41800000000E+01 0. -1.
        -11    1    1    2    0    0 -0.28196524623E+02 -0.76827505595E+02  0.15248787716E+02  0.83246832634E+02  0.00000000000E+00 0. -1.
         11    1    1    2    0    0  0.32346658978E+02 -0.28920514143E+02 -0.42902918962E+02  0.61019365293E+02  0.00000000000E+00 0.  1.
</event>
<event>
 7    1  0.2873461E-009  0.1199634E+03  0.7561462E-02  0.1243157E+00
         -2   -1    0    0    0  501 -0.00000000000E+00  0.00000000000E+00  0.10639705456E+03  0.10639705456E+03  0.00000000000E+00 0.  1.
          2   -1    0    0  501    0  0.00000000000E+00 -0.00000000000E+00 -0.19916926751E+03  0.19916926751E+03  0.00000000000E+00 0. -1.
         25    2    1    2    0    0  0.95912093913E+02 -0.54528993133E+01 -0.44075568553E+02  0.16376929303E+03  0.12509541050E+03 0.  0.
          5    1    3    3  502    0  0.81372946543E+02 -0.48705469174E+02  0.69589815529E+01  0.95182345951E+02  0.41800000000E+01 0.  1.
         -5    1    3    3    0  502  0.14539147370E+02  0.43252569860E+02 -0.51034550106E+02  0.68586947084E+02  0.41800000000E+01 0.  1.
        -11    1    1    2    0    0 -0.82926338405E+02 -0.41446700131E+01 -0.74370620604E+02  0.11146723779E+03  0.00000000000E+00 0. -1.
         11    1    1    2    0    0 -0.12985755508E+02  0.95975693264E+01  0.25673976200E+02  0.30329791246E+02  0.00000000000E+00 0.  1.
</event>
<event>
 7    1  0.2873461E-009  0.1418118E+03  0.7561462E-02  0.1210912E+00
         -1   -1    0    0    0  501 -0.00000000000E+00  0.00000000000E+00  0.69902197163E+02  0.69902197163E+02  0.00000000000E+00 0.  1.
          1   -1    0    0  501    0  0.00000000000E+00 -0.00000000000E+00 -0.41239196871E+03  0.41239196871E+03  0.00000000000E+00 0. -1.
         25    2    1    2    0    0  0.13053601596E+03 -0.70525408955E+00 -0.18106430431E+03  0.25587593641E+03  0.12509222075E+03 0.  0.
          5    1    3    3  502    0  0.73123592481E+02 -0.39903998112E+02 -0.16427615506E+03  0.18423766272E+03  0.41800000000E+01 0. -1.
         -5    1    3    3    0  502  0.57412423477E+02  0.39198744022E+02 -0.16788149252E+02  0.71638273693E+02  0.41800000000E+01 0. -1.
        -11    1    1    2    0    0 -0.14055832125E+02  0.10056885604E+01  0.11316723444E+02  0.18073352089E+02  0.00000000000E+00 0.  1.
         11    1    1    2    0    0 -0.11648018383E+03 -0.30043447080E+00 -0.17274219068E+03  0.20834487737E+03  0.00000000000E+00 0. -1.
</event>
<event>
 7    1  0.2873461E-009  0.8018806E+02  0.7561462E-02  0.1328519E+00
          2   -1    0    0  501    0  0.00000000000E+00  0.00000000000E+00  0.28785231725E+03  0.28785231725E+03  0.00000000000E+00 0. -1.
         -2   -1    0    0    0  501 -0.00000000000E+00 -0.00000000000E+00 -0.42898049679E+02  0.42898049679E+02  0.00000000000E+00 0.  1.
         25    2    1    2    0    0  0.18206113254E+02  0.21837704618E+02  0.11563930807E+03  0.17270690394E+03  0.12508747817E+03 0.  0.
          5    1    3    3  502    0  0.33910162425E+02 -0.29820229328E+02  0.37102763965E+00  0.45351463641E+02  0.41800000000E+01 0.  1.
         -5    1    3    3    0  502 -0.15704049171E+02  0.51657933946E+02  0.11526828043E+03  0.12735544030E+03  0.41800000000E+01 0.  1.
        -11    1    1    2    0    0  0.97771038649E+01  0.12950176749E+02 -0.46134180983E+01  0.16869572145E+02  0.00000000000E+00 0.  1.
         11    1    1    2    0    0 -0.27983217119E+02 -0.34787881367E+02  0.13392837760E+03  0.14117389085E+03  0.00000000000E+00 0. -1.
</event>
<event>
 7    1  0.2873461E-009  0.8883425E+02  0.7561462E-02  0.1305700E+00
          1   -1    0    0  501    0  0.00000000000E+00  0.00000000000E+00  0.69066685601E+02  0.69066685601E+02  0.00000000000E+00 0. -1.
         -1   -1    0    0    0  501 -0.00000000000E+00 -0.00000000000E+00 -0.32753812997E+03  0.32753812997E+03  0.00000000000E+00 0.  1.
         25    2    1    2    0    0  0.53937817618E+02 -0.48270722277E+00 -0.25664228953E+03  0.29055511562E+03  0.12508992470E+03 0.  0.
          5    1    3    3  502    0  0.87212534956E+02  0.16008477852E+01 -0.23471107019E+03  0.25043032531E+03  0.41800000000E+01 0. -1.
         -5    1    3    3    0  502 -0.33274717338E+02 -0.20835550079E+01 -0.21931219339E+02  0.40124790306E+02  0.41800000000E+01 0. -1.
        -11    1    1    2    0    0 -0.15120644893E+02  0.81438737609E+01  0.42972899704E+02  0.46277712679E+02  0.00000000000E+00 0. -1.
         11    1    1    2    0    0 -0.38817172725E+02 -0.76611665381E+01 -0.44802054543E+02  0.59771987271E+02  0.00000000000E+00 0.  1.
</event>
<event>
 7    1  0.2873461E-009  0.1187372E+03  0.7561462E-02  0.1245195E+00
          1   -1    0    0  501    0  0.00000000000E+00  0.00000000000E+00  0.24692517226E+03  0.24692517226E+03  0.00000000000E+00 0. -1.
         -1   -1    0    0    0  501 -0.00000000000E+00 -0.00000000000E+00 -0.86581660548E+02  0.86581660548E+02  0.00000000000E+00 0.  1.
         25    2    1    2    0    0 -0.63744896766E+02 -0.73090778143E+02  0.81991202388E+02  0.17825339324E+03  0.12508413656E+03 0.  0.
          5    1    3    3  502    0 -0.48475772122E+02 -0.19908282425E+01  0.92619658122E+02  0.10464099269E+03  0.41800000000E+01 0.  1.
         -5    1    3    3    0  502 -0.15269124644E+02 -0.71099949901E+02 -0.10628455734E+02  0.73612400549E+02  0.41800000000E+01 0.  1.
        -11    1    1    2    0    0  0.84815640551E+01  0.58045853016E+02  0.57746922168E+00  0.58665078640E+02  0.00000000000E+00 0.  1.
         11    1    1    2    0    0  0.55263332711E+02  0.15044925127E+02  0.77774840099E+02  0.96588360929E+02  0.00000000000E+00 0. -1.
</event>
<event>
 7    1  0.2873461E-009  0.1092014E+03  0.7561462E-02  0.1262056E+00
         -1   -1    0    0    0  501 -0.00000000000E+00  0.00000000000E+00  0.54200610043E+02  0.54200610043E+02  0.00000000000E+00 0.  1.
          1   -1    0    0  501    0  0.00000000000E+00 -0.00000000000E+00 -0.26190445863E+03  0.26190445863E+03  0.00000000000E+00 0. -1.
         25    2    1    2    0    0  0.11803989722E+01 -0.91780932023E+01 -0.61155538101E+02  0.13953738475E+03  0.12508017895E+03 0.  0.
          5    1    3    3  502    0  0.55491156204E+02  0.19193195305E+02 -0.10217353368E+02  0.59745408800E+02  0.41800000000E+01 0. -1.
         -5    1    3    3    0  502 -0.54310757231E+02 -0.28371288508E+02 -0.50938184733E+02  0.79791975953E+02  0.41800000000E+01 0. -1.
        -11    1    1    2    0    0 -0.10491817852E+02  0.52638380786E+02 -0.87693080174E+02  0.10281514326E+03  0.00000000000E+00 0.  1.
         11    1    1    2    0    0  0.93114188800E+01 -0.43460287583E+02 -0.58855230314E+02  0.73752540659E+02  0.00000000000E+00 0. -1.
</event>
<event>
 7    1  0.2873461E-009  0.1016488E+03  0.7561462E-02  0.1276867E+00
          1   -1    0    0  501    0  0.00000000000E+00  0.00000000000E+00  0.85795486442E+03  0.85795486442E+03  0.00000000000E+00 0. -1.
         -1   -1    0    0    0  501 -0.00000000000E+00 -0.00000000000E+00 -0.15461650803E+02  0.15461650803E+02  0.00000000000E+00 0.  1.
         25    2    1    2    0    0  0.29257842256E+02  0.14119104497E+02  0.39963174677E+03  0.42000411824E+03  0.12507020378E+03 0.  0.
          5    1    3    3  502    0  0.54745011184E+02 -0.24261693587E+02  0.33607553839E+03  0.34139403324E+03  0.41800000000E+01 0.  1.
         -5    1    3    3    0  502 -0.25487168927E+02  0.38380798085E+02  0.63556208375E+02  0.78610085005E+02  0.41800000000E+01 0.  1.
        -11    1    1    2    0    0 -0.57301818257E+02  0.12159347168E+02  0.25178604278E+03  0.25851026950E+03  0.00000000000E+00 0.  1.
         11    1    1    2    0    0  0.28043976001E+02 -0.26278451665E+02  0.19107542408E+03  0.19490212749E+03  0.00000000000E+00 0. -1.
</event>
<event>
 7    1  0.2873461E-009  0.1287023E+03  0.7561462E-02  0.1229394E+00
         -1   -1    0    0    0  501 -0.00000000000E+00  0.00000000000E+00  0.10814141233E+02  0.10814141233E+02  0.00000000000E+00 0.  1.
          1   -1    0    0  501    0  0.00000000000E+00 -0.00000000000E+00 -0.25079864490E+04  0.25079864490E+04  0.00000000000E+00 0. -1.
         25    2    1    2    0    0  0.85768802322E+02 -0.30000247998E+02 -0.19679244198E+04  0.19739883309E+04  0.12508839463E+03 0.  0.
          5    1    3    3  502    0  0.16521914710E+02 -0.58941765931E+02 -0.13676877974E+04  0.13690633620E+04  0.41800000000E+01 0.  1.
         -5    1    3    3    0  502  0.69246887612E+02  0.28941517932E+02 -0.60023662235E+03  0.60492496899E+03  0.41800000000E+01 0.  1.
        -11    1    1    2    0    0 -0.10050411974E+03  0.18509002607E+02 -0.49821183839E+03  0.50858499503E+03  0.00000000000E+00 0. -1.
         11    1    1    2    0    0  0.14735317419E+02  0.11491245391E+02 -0.31036049645E+02  0.36227264286E+02  0.00000000000E+00 0.  1.
</event>
<event>
 7    1  0.2873461E-009  0.8734346E+02  0.7561462E-02  0.1309415E+00
         -2   -1    0    0    0  501 -0.00000000000E+00  0.00000000000E+00  0.56928146620E+02  0.56928146620E+02  0.00000000000E+00 0.  1.
          2   -1    0    0  501    0  0.00000000000E+00 -0.00000000000E+00 -0.24658362614E+03  0.24658362614E+03  0.00000000000E+00 0. -1.
         25    2    1    2    0    0 -0.26589427526E+02 -0.44004809823E+01 -0.60149452959E+02  0.14139463542E+03  0.12509246318E+03 0.  0.
          5    1    3    3  502    0  0.28852284481E+02 -0.47175429282E+01 -0.77673466318E+02  0.83098431398E+02  0.41800000000E+01 0.  1.
         -5    1    3    3    0  502 -0.55441712007E+02  0.31706194591E+00  0.17524013359E+02  0.58296204017E+02  0.41800000000E+01 0.  1.
        -11    1    1    2    0    0  0.46804829359E+02  0.31003525856E+02 -0.47409435847E+02  0.73481734289E+02  0.00000000000E+00 0.  1.
         11    1    1    2    0    0 -0.20215401833E+02 -0.26603044874E+02 -0.82096590714E+02  0.88635403055E+02  0.00000000000E+00 0. -1.
</event>
<event>
 7    1  0.2873461E-009  0.1097223E+03  0.7561462E-02  0.1261085E+00
         -1   -1    0    0    0  501 -0.00000000000E+00  0.00000000000E+00  0.39837572639E+02  0.39837572639E+02  0.00000000000E+00 0.  1.
          1   -1    0    0  501    0  0.00000000000E+00 -0.00000000000E+00 -0.31540715951E+03  0.31540715951E+03  0.00000000000E+00 0. -1.
         25    2    1    2    0    0  0.50598810068E+01  0.81673208973E+01 -0.14177417497E+03  0.18932008273E+03  0.12509943849E+03 0.  0.
          5    1    3    3  502    0  0.16525274437E+01 -0.57543606548E+02 -0.50296633764E+02  0.76558613294E+02  0.41800000000E+01 0. -1.
         -5    1    3    3    0  502  0.34073535632E+01  0.65710927445E+02 -0.91477541201E+02  0.11276146943E+03  0.41800000000E+01 0. -1.
        -11    1    1    2    0    0  0.41451481732E+02 -0.22447846707E+02 -0.47891495044E+02  0.67199155182E+02  0.00000000000E+00 0.  1.
         11    1    1    2    0    0 -0.46511362739E+02  0.14280525810E+02 -0.85903916862E+02  0.98725494243E+02  0.00000000000E+00 0. -1.
</event>
<event>
 7    1  0.2873461E-009  0.1342156E+03  0.7561462E-02  0.1221331E+00
         -1   -1    0    0    0  501 -0.00000000000E+00  0.00000000000E+00  0.25671289201E+03  0.25671289201E+03  0.00000000000E+00 0.  1.
          1   -1    0    0  501    0  0.00000000000E+00 -0.00000000000E+00 -0.10797040664E+03  0.10797040664E+03  0.00000000000E+00 0. -1.
         25    2    1    2    0    0 -0.65547381315E+02 -0.84704681423E+02  0.69126970338E+01  0.16482155891E+03  0.12508804359E+03 0.  0.
          5    1    3    3  502    0 -0.89360921891E+02 -0.60065135254E+02  0.41954339440E+02  0.11563232174E+03  0.41800000000E+01 0.  1.
         -5    1    3    3    0  502  0.23813540576E+02 -0.24639546169E+02 -0.35041642407E+02  0.49189237164E+02  0.41800000000E+01 0.  1.
        -11    1    1    2    0    0  0.15508921244E+02  0.73185364814E+02  0.12527365917E+03  0.14591132219E+03  0.00000000000E+00 0.  1.
         11    1    1    2    0    0  0.50038460071E+02  0.11519316609E+02  0.16556129167E+02  0.53950417555E+02  0.00000000000E+00 0. -1.
</event>
<event>
 7    1  0.2873461E-009  0.1217298E+03  0.7561462E-02  0.1240270E+00
          1   -1    0    0  501    0  0.00000000000E+00  0.00000000000E+00  0.14515371694E+04  0.14515371694E+04  0.00000000000E+00 0. -1.
         -1   -1    0    0    0  501 -0.00000000000E+00 -0.00000000000E+00 -0.13373552028E+02  0.13373552028E+02  0.00000000000E+00 0.  1.
         25    2    1    2    0    0 -0.96341279931E+01 -0.78275682845E+02  0.10111833261E+04  0.10219389204E+04  0.12509012417E+03 0.  0.
          5    1    3    3  502    0 -0.27492429690E+02  0.15348659776E+02  0.83076700257E+02  0.88941697605E+02  0.41800000000E+01 0.  1.
         -5    1    3    3    0  502  0.17858301697E+02 -0.93624342621E+02  0.92810662584E+03  0.93299722283E+03  0.41800000000E+01 0.  1.
        -11    1    1    2    0    0 -0.37060854660E+02  0.21740023663E+02  0.19504635287E+03  0.19972284633E+03  0.00000000000E+00 0.  1.
         11    1    1    2    0    0  0.46694982653E+02  0.56535659182E+02  0.23193393838E+03  0.24324895464E+03  0.00000000000E+00 0. -1.
</event>
<event>
 7    1  0.2873461E-009  0.1340531E+03  0.7561462E-02  0.1221563E+00
         -3   -1    0    0    0  501 -0.00000000000E+00  0.00000000000E+00  0.34920038872E+03  0.34920038872E+03  0.00000000000E+00 0.  1.
          3   -1    0    0  501    0  0.00000000000E+00 -0.00000000000E+00 -0.66027582983E+02  0.66027582983E+02  0.00000000000E+00 0. -1.
         25    2    1    2    0    0  0.94634123998E+02  0.47114094754E+02  0.13752750023E+03  0.21386237337E+03  0.12509175063E+03 0.  0.
          5    1    3    3  502    0  0.58447289312E+02  0.71520251950E+02  0.29141421455E+02  0.96942905421E+02  0.41800000000E+01 0.  1.
         -5    1    3    3    0  502  0.36186834687E+02 -0.24406157197E+02  0.10838607877E+03  0.11691946795E+03  0.41800000000E+01 0.  1.
        -11    1    1    2    0    0 -0.34026672098E+02 -0.60792578370E+02  0.44517932277E+02  0.82676467590E+02  0.00000000000E+00 0.  1.
         11    1    1    2    0    0 -0.60607451900E+02  0.13678483617E+02  0.10112737323E+03  0.11868913074E+03  0.00000000000E+00 0. -1.
</event>
<event>
 7    1  0.2873461E-009  0.1062339E+03  0.7561462E-02  0.1267707E+00
         -1   -1    0    0    0  501 -0.00000000000E+00  0.00000000000E+00  0.24862975784E+02  0.24862975784E+02  0.00000000000E+00 0.  1.
          1   -1    0    0  501    0  0.00000000000E+00 -0.00000000000E+00 -0.46948497401E+03  0.46948497401E+03  0.00000000000E+00 0. -1.
         25    2    1    2    0    0  0.11346987394E+02 -0.26681607844E+02 -0.24732519430E+03  0.27867178702E+03  0.12509017077E+03 0.  0.
          5    1    3    3  502    0 -0.13837428472E+02  0.46069454924E+02 -0.67278240501E+02  0.82811250133E+02  0.41800000000E+01 0. -1.
         -5    1    3    3    0  502  0.25184415866E+02 -0.72751062769E+02 -0.18004695380E+03  0.19586053689E+03  0.41800000000E+01 0. -1.
        -11    1    1    2    0    0  0.35593279602E+02  0.74973400332E+01 -0.85568794706E+02  0.92979085217E+02  0.00000000000E+00 0.  1.
         11    1    1    2    0    0 -0.46940266996E+02  0.19184267811E+02 -0.11172800922E+03  0.12269707755E+03  0.00000000000E+00 0. -1.
</event>
<event>
 7    1  0.2873461E-009  0.1677283E+03  0.7561462E-02  0.1180238E+00
         -2   -1    0    0    0  501 -0.00000000000E+00  0.00000000000E+00  0.39718306591E+02  0.39718306591E+02  0.00000000000E+00 0.  1.
          2   -1    0    0  501    0  0.00000000000E+00 -0.00000000000E+00 -0.92725641087E+03  0.92725641087E+03  0.00000000000E+00 0. -1.
         25    2    1    2    0    0  0.91564906023E+02 -0.12706773287E+03 -0.39876712205E+03  0.44630999568E+03  0.12508818434E+03 0.  0.
          5    1    3    3  502    0  0.14366111686E+02 -0.46841417345E+01  0.57287360788E+01  0.16691829313E+02  0.41800000000E+01 0. -1.
         -5    1    3    3    0  502  0.77198794338E+02 -0.12238359114E+03 -0.40449585813E+03  0.42961816636E+03  0.41800000000E+01 0. -1.
        -11    1    1    2    0    0 -0.88399264446E+02  0.57662501968E+02 -0.23612134594E+03  0.25863620028E+03  0.00000000000E+00 0.  1.
         11    1    1    2    0    0 -0.31656415778E+01  0.69405230903E+02 -0.25264963629E+03  0.26202852150E+03  0.00000000000E+00 0. -1.
</event>
<event>
 7    1  0.2873461E-009  0.1301561E+03  0.7561462E-02  0.1227224E+00
          1   -1    0    0  501    0  0.00000000000E+00  0.00000000000E+00  0.30779672740E+03  0.30779672740E+03  0.00000000000E+00 0. -1.
         -1   -1    0    0    0  501 -0.00000000000E+00 -0.00000000000E+00 -0.98087019473E+02  0.98087019473E+02  0.00000000000E+00 0.  1.
         25    2    1    2    0    0 -0.24896474873E+02 -0.75092364412E+02  0.23845198899E+03  0.28064778455E+03  0.12508049513E+03 0.  0.
          5    1    3    3  502    0 -0.73890492472E+01 -0.10647397448E+03  0.14238809913E+03  0.17799760803E+03  0.41800000000E+01 0. -1.
         -5    1    3    3    0  502 -0.17507425626E+02  0.31381610071E+02  0.96063889862E+02  0.10265017651E+03  0.41800000000E+01 0. -1.
        -11    1    1    2    0    0  0.30295531987E+02 -0.10119029116E+02 -0.23572524784E+02  0.39697329045E+02  0.00000000000E+00 0.  1.
         11    1    1    2    0    0 -0.53990571140E+01  0.85211393527E+02 -0.51697562795E+01  0.85538633287E+02  0.00000000000E+00 0. -1.
</event>
<event>
 7    1  0.2873461E-009  0.1924444E+03  0.7561462E-02  0.1156275E+00
         -2   -1    0    0    0  501 -0.00000000000E+00  0.00000000000E+00  0.41754339550E+02  0.41754339550E+02  0.00000000000E+00 0.  1.
          2   -1    0    0  501    0  0.00000000000E+00 -0.00000000000E+00 -0.99489419963E+03  0.99489419963E+03  0.00000000000E+00 0. -1.
         25    2    1    2    0    0 -0.60705365429E+02  0.15470337993E+03 -0.38764185271E+03  0.43992347305E+03  0.12509268170E+03 0.  0.
          5    1    3    3  502    0 -0.84468216775E+02  0.14646556077E+03 -0.37519341031E+03  0.41155146419E+03  0.41800000000E+01 0. -1.
         -5    1    3    3    0  502  0.23762851346E+02  0.82378191615E+01 -0.12448442402E+02  0.28372008862E+02  0.41800000000E+01 0. -1.
        -11    1    1    2    0    0  0.79176600059E+02 -0.77174302221E+02 -0.31367458170E+03  0.33259066452E+03  0.00000000000E+00 0. -1.
         11    1    1    2    0    0 -0.18471234629E+02 -0.77529077708E+02 -0.25182342567E+03  0.26413440161E+03  0.00000000000E+00 0.  1.
</event>
<event>
 7    1  0.2873461E-009  0.9371192E+02  0.7561462E-02  0.1294104E+00
         -1   -1    0    0    0  501 -0.00000000000E+00  0.00000000000E+00  0.24398941240E+02  0.24398941240E+02  0.00000000000E+00 0.  1.
          1   -1    0    0  501    0  0.00000000000E+00 -0.00000000000E+00 -0.58538864398E+03  0.58538864398E+03  0.00000000000E+00 0. -1.
         25    2    1    2    0    0 -0.39469897800E+02  0.32633213140E+02 -0.31511557475E+03  0.34288419982E+03  0.12509576174E+03 0.  0.
          5    1    3    3  502    0  0.30030814397E+02 -0.13388326418E+02 -0.18745035975E+03  0.19035810166E+03  0.41800000000E+01 0.  1.
         -5    1    3    3    0  502 -0.69500712197E+02  0.46021539558E+02 -0.12766521499E+03  0.15252609815E+03  0.41800000000E+01 0.  1.
        -11    1    1    2    0    0 -0.90910707557E+01 -0.17891182057E+02 -0.49197970587E+01  0.20662680513E+02  0.00000000000E+00 0.  1.
         11    1    1    2    0    0  0.48560968555E+02 -0.14742031083E+02 -0.24095433094E+03  0.24624070489E+03  0.00000000000E+00 0. -1.
</event>
<event>
 7    1  0.2873461E-009  0.1243236E+03  0.7561462E-02  0.1236130E+00
          2   -1    0    0  501    0  0.00000000000E+00  0.00000000000E+00  0.10271001495E+04  0.10271001495E+04  0.00000000000E+00 0. -1.
         -2   -1    0    0    0  501 -0.00000000000E+00 -0.00000000000E+00 -0.23119544623E+02  0.23119544623E+02  0.00000000000E+00 0.  1.
         25    2    1    2    0    0  0.22566184523E+02 -0.94286688359E+02  0.68690447150E+03  0.70489976325E+03  0.12508681379E+03 0.  0.
          5    1    3    3  502    0 -0.36895104019E+02 -0.18086765716E+02  0.77071876077E+02  0.87440987395E+02  0.41800000000E+01 0. -1.
         -5    1    3    3    0  502  0.59461288542E+02 -0.76199922644E+02  0.60983259542E+03  0.61745877586E+03  0.41800000000E+01 0. -1.
        -11    1    1    2    0    0  0.14029783378E+02  0.55617952194E+02  0.26393785588E+03  0.27009883968E+03  0.00000000000E+00 0. -1.
         11    1    1    2    0    0 -0.36595967901E+02  0.38668736166E+02  0.53138277464E+02  0.75221091159E+02  0.00000000000E+00 0.  1.
</event>
<event>
 7    1  0.2873461E-009  0.9182502E+02  0.7561462E-02  0.1298491E+00
          2   -1    0    0  501    0  0.00000000000E+00  0.00000000000E+00  0.24426913541E+03  0.24426913541E+03  0.00000000000E+00 0. -1.
         -2   -1    0    0    0  501 -0.00000000000E+00 -0.00000000000E+00 -0.61927096296E+02  0.61927096296E+02  0.00000000000E+00 0.  1.
         25    2    1    2    0    0  0.13325610267E+02 -0.55097560953E+02  0.82074948606E+02  0.15999069648E+03  0.12508961851E+03 0.  0.
          5    1    3    3  502    0 -0.25175697379E+01 -0.69139363651E+02 -0.57539253440E+01  0.69549765063E+02  0.41800000000E+01 0.  1.
         -5    1    3    3    0  502  0.15843180005E+02  0.14041802698E+02  0.87828873950E+02  0.90440931414E+02  0.41800000000E+01 0.  1.
        -11    1    1    2    0    0 -0.51784590870E+01 -0.18245208193E+02 -0.30824546515E+01  0.19214723188E+02  0.00000000000E+00 0.  1.
         11    1    1    2    0    0 -0.81471511804E+01  0.73342769146E+02  0.10334954516E+03  0.12699081204E+03  0.00000000000E+00 0. -1.
</event>
<event>
 7    1  0.2873461E-009  0.1535504E+03  0.7561462E-02  0.1196177E+00
          2   -1    0    0  501    0  0.00000000000E+00  0.00000000000E+00  0.28290499705E+03  0.28290499705E+03  0.00000000000E+00 0. -1.
         -2   -1    0    0    0  501 -0.00000000000E+00 -0.00000000000E+00 -0.97221156474E+02  0.97221156474E+02  0.00000000000E+00 0.  1.
         25    2    1    2    0    0  0.63372269200E+02  0.10680198773E+03  0.90610517906E+02  0.19818873692E+03  0.12508317392E+03 0.  0.
          5    1    3    3  502    0  0.92315117766E+02  0.37589466695E+02  0.39404582978E+02  0.10726249360E+03  0.41800000000E+01 0. -1.
         -5    1    3    3    0  502 -0.28942848566E+02  0.69212521034E+02  0.51205934928E+02  0.90926243312E+02  0.41800000000E+01 0. -1.
        -11    1    1    2    0    0 -0.70350352363E+02 -0.91802792017E+02  0.36816054530E+02  0.12137687824E+03  0.00000000000E+00 0.  1.
         11    1    1    2    0    0  0.69780831626E+01 -0.14999195712E+02  0.58257268144E+02  0.60560538375E+02  0.00000000000E+00 0. -1.
</event>
<event>
 7    1  0.2873461E-009  0.1131668E+03  0.7561462E-02  0.1254815E+00
         -2   -1    0    0    0  501 -0.00000000000E+00  0.00000000000E+00  0.21622930281E+03  0.21622930281E+03  0.00000000000E+00 0.  1.
          2   -1    0    0  501    0  0.00000000000E+00 -0.00000000000E+00 -0.63116242001E+02  0.63116242001E+02  0.00000000000E+00 0. -1.
         25    2    1    2    0    0  0.91404131539E+01 -0.39570634897E+02  0.10458008998E+03  0.16803054204E+03  0.12509150866E+03 0.  0.
          5    1    3    3  502    0 -0.43713035973E+02  0.22669119414E+02  0.45318697146E+02  0.67052033526E+02  0.41800000000E+01 0. -1.
         -5    1    3    3    0  502  0.52853449127E+02 -0.62239754311E+02  0.59261392831E+02  0.10097850851E+03  0.41800000000E+01 0. -1.
        -11    1    1    2    0    0  0.37507376387E+02  0.67303322386E+01  0.36997268963E+02  0.53112132006E+02  0.00000000000E+00 0.  1.
         11    1    1    2    0    0 -0.46647789541E+02  0.32840302659E+02  0.11535701870E+02  0.58202870766E+02  0.00000000000E+00 0. -1.
</event>
<event>
 7    1  0.2873461E-009  0.1354953E+03  0.7561462E-02  0.1219522E+00
          2   -1    0    0  501    0  0.00000000000E+00  0.00000000000E+00  0.50624464497E+03  0.50624464497E+03  0.00000000000E+00 0. -1.
         -2   -1    0    0    0  501 -0.00000000000E+00 -0.00000000000E+00 -0.45654707861E+02  0.45654707861E+02  0.00000000000E+00 0.  1.
         25    2    1    2    0    0  0.47361943518E+02  0.84265959900E+02  0.32862543858E+03  0.36467194407E+03  0.12508813781E+03 0.  0.
          5    1    3    3  502    0 -0.32338046233E+02  0.69453387163E+02  0.15085808326E+03  0.16924879883E+03  0.41800000000E+01 0. -1.
         -5    1    3    3    0  502  0.79699989751E+02  0.14812572738E+02  0.17776735532E+03  0.19542314524E+03  0.41800000000E+01 0. -1.
        -11    1    1    2    0    0 -0.54170365261E+02 -0.37622367433E+02  0.12253287604E+03  0.13915522525E+03  0.00000000000E+00 0. -1.
         11    1    1    2    0    0  0.68084217429E+01 -0.46643592468E+02  0.94316224963E+01  0.48072183514E+02  0.00000000000E+00 0.  1.
</event>
<event>
 7    1  0.2873461E-009  0.3427603E+03  0.7561462E-02  0.1065626E+00
          1   -1    0    0  501    0  0.00000000000E+00  0.00000000000E+00  0.73213313240E+02  0.73213313240E+02  0.00000000000E+00 0. -1.
         -1   -1    0    0    0  501 -0.00000000000E+00 -0.00000000000E+00 -0.16800389669E+04  0.16800389669E+04  0.00000000000E+00 0.  1.
         25    2    1    2    0    0  0.13528249168E+02  0.32423070443E+03 -0.63019511842E+03  0.71979312785E+03  0.12509075264E+03 0.  0.
          5    1    3    3  502    0  0.10472986639E+02 -0.89053190318E+01 -0.21085684993E+02  0.25516008070E+02  0.41800000000E+01 0. -1.
         -5    1    3    3    0  502  0.30552625291E+01  0.33313602347E+03 -0.60910943343E+03  0.69427711978E+03  0.41800000000E+01 0. -1.
        -11    1    1    2    0    0  0.40781105999E+02 -0.15276306886E+03 -0.45956161362E+03  0.48600054581E+03  0.00000000000E+00 0.  1.
         11    1    1    2    0    0 -0.54309355167E+02 -0.17146763557E+03 -0.51706892166E+03  0.54745860652E+03  0.00000000000E+00 0. -1.
</event>
<event>
 7    1  0.2873461E-009  0.3515690E+03  0.7561462E-02  0.1061973E+00
         -1   -1    0    0    0  501 -0.00000000000E+00  0.00000000000E+00  0.34656974334E+03  0.34656974334E+03  0.00000000000E+00 0.  1.
          1   -1    0    0  501    0  0.00000000000E+00 -0.00000000000E+00 -0.38647695659E+03  0.38647695659E+03  0.00000000000E+00 0. -1.
         25    2    1    2    0    0  0.14122369505E+03 -0.30973723543E+03 -0.99568401550E+02  0.37608831815E+03  0.12508904591E+03 0.  0.
          5    1    3    3  502    0  0.96154738688E+02 -0.70835192663E+02 -0.31242392606E+02  0.12351889648E+03  0.41800000000E+01 0.  1.
         -5    1    3    3    0  502  0.45068956365E+02 -0.23890204276E+03 -0.68326008944E+02  0.25256942167E+03  0.41800000000E+01 0.  1.
        -11    1    1    2    0    0 -0.45397872618E+02  0.91918697825E+02  0.60407379167E+02  0.11899187076E+03  0.00000000000E+00 0.  1.
         11    1    1    2    0    0 -0.95825822435E+02  0.21781853760E+03 -0.74619087019E+00  0.23796651102E+03  0.00000000000E+00 0. -1.
</event>
<event>
 7    1  0.2873461E-009  0.9968292E+02  0.7561462E-02  0.1280964E+00
          1   -1    0    0  501    0  0.00000000000E+00  0.00000000000E+00  0.35077906305E+02  0.35077906305E+02  0.00000000000E+00 0. -1.
         -1   -1    0    0    0  501 -0.00000000000E+00 -0.00000000000E+00 -0.42115487231E+03  0.42115487231E+03  0.00000000000E+00 0.  1.
         25    2    1    2    0    0 -0.73216944922E+01  0.22480221763E+02 -0.31167187983E+03  0.33667113641E+03  0.12509646610E+03 0.  0.
          5    1    3    3  502    0 -0.50537035252E+02 -0.28243160474E+02 -0.17848061314E+03  0.18768183107E+03  0.41800000000E+01 0.  1.
         -5    1    3    3    0  502  0.43215340760E+02  0.50723382237E+02 -0.13319126669E+03  0.14898930534E+03  0.41800000000E+01 0.  1.
        -11    1    1    2    0    0  0.38589357409E+02 -0.55182059836E+01 -0.21693606626E+01  0.39042223658E+02  0.00000000000E+00 0. -1.
         11    1    1    2    0    0 -0.31267662917E+02 -0.16962015780E+02 -0.72235725512E+02  0.80519418552E+02  0.00000000000E+00 0.  1.
</event>
<event>
 7    1  0.2873461E-009  0.9637747E+02  0.7561462E-02  0.1288103E+00
          1   -1    0    0  501    0  0.00000000000E+00  0.00000000000E+00  0.28845184756E+03  0.28845184756E+03  0.00000000000E+00 0. -1.
         -1   -1    0    0    0  501 -0.00000000000E+00 -0.00000000000E+00 -0.63684725836E+02  0.63684725836E+02  0.00000000000E+00 0.  1.
         25    2    1    2    0    0 -0.12165211394E+02 -0.58476282592E+02  0.20875929868E+03  0.25059097861E+03  0.12509166950E+03 0.  0.
          5    1    3    3  502    0  0.45653971421E+02 -0.58960045869E+02  0.15250726013E+03  0.16981315882E+03  0.41800000000E+01 0. -1.
         -5    1    3    3    0  502 -0.57819182815E+02  0.48376327732E+00  0.56252038554E+02  0.80777819789E+02  0.41800000000E+01 0. -1.
        -11    1    1    2    0    0  0.60034652974E+01  0.43344863899E+02 -0.29779649715E+02  0.52930580567E+02  0.00000000000E+00 0.  1.
         11    1    1    2    0    0  0.61617460963E+01  0.15131418693E+02  0.45787472758E+02  0.48615014226E+02  0.00000000000E+00 0. -1.
</event>
<event>
 7    1  0.2873461E-009  0.5655137E+02  0.7561462E-02  0.1412902E+00
         -2   -1    0    0    0  501 -0.00000000000E+00  0.00000000000E+00  0.59157676501E+02  0.59157676501E+02  0.00000000000E+00 0. -1.
          2   -1    0    0  501    0  0.00000000000E+00 -0.00000000000E+00 -0.21301528947E+03  0.21301528947E+03  0.00000000000E+00 0.  1.
         25    2    1    2    0    0  0.18001161548E+02  0.17294555405E+02 -0.11639926904E+03  0.17269525359E+03  0.12510682362E+03 0.  0.
          5    1    3    3  502    0 -0.19174442885E+02  0.16476414736E+02  0.19205360540E+02  0.32022644738E+02  0.41800000000E+01 0.  1.
         -5    1    3    3    0  502  0.37175604433E+02  0.81814066879E+00 -0.13560462958E+03  0.14067260885E+03  0.41800000000E+01 0.  1.
        -11    1    1    2    0    0 -0.16339569582E+00 -0.28821232245E+02 -0.61185452919E+02  0.67633939521E+02  0.00000000000E+00 0.  1.
         11    1    1    2    0    0 -0.17837765853E+02  0.11526676839E+02  0.23727108981E+02  0.31843772863E+02  0.00000000000E+00 0. -1.
</event>
<event>
 7    1  0.2873461E-009  0.1062284E+03  0.7561462E-02  0.1267718E+00
         -2   -1    0    0    0  501 -0.00000000000E+00  0.00000000000E+00  0.41368380605E+02  0.41368380605E+02  0.00000000000E+00 0.  1.
          2   -1    0    0  501    0  0.00000000000E+00 -0.00000000000E+00 -0.36163875515E+03  0.36163875515E+03  0.00000000000E+00 0. -1.
         25    2    1    2    0    0 -0.13366378818E+02  0.44498203919E+02 -0.24701782343E+03  0.28075542915E+03  0.12508819157E+03 0.  0.
          5    1    3    3  502    0  0.47820555071E+02  0.37273911874E+02 -0.67086536788E+02  0.90521963147E+02  0.41800000000E+01 0. -1.
         -5    1    3    3    0  502 -0.61186933889E+02  0.72242920451E+01 -0.17993128664E+03  0.19023346600E+03  0.41800000000E+01 0. -1.
        -11    1    1    2    0    0 -0.10550757233E+02  0.19188804595E+02  0.51438440707E+00  0.21904184332E+02  0.00000000000E+00 0.  1.
         11    1    1    2    0    0  0.23917136050E+02 -0.63687008514E+02 -0.73766935519E+02  0.10034752227E+03  0.00000000000E+00 0. -1.
</event>
<event>
 7    1  0.2873461E-009  0.1964158E+03  0.7561462E-02  0.1152799E+00
         -1   -1    0    0    0  501 -0.00000000000E+00  0.00000000000E+00  0.24017090810E+03  0.24017090810E+03  0.00000000000E+00 0.  1.
          1   -1    0    0  501    0  0.00000000000E+00 -0.00000000000E+00 -0.19793603666E+03  0.19793603666E+03  0.00000000000E+00 0. -1.
         25    2    1    2    0    0 -0.25474264212E+01  0.18409389699E+03  0.62377411751E+02  0.23116056209E+03  0.12508881515E+03 0.  0.
          5    1    3    3  502    0  0.26093089389E+01  0.18132443807E+03  0.13649004538E+02  0.18190417273E+03  0.41800000000E+01 0. -1.
         -5    1    3    3    0  502 -0.51567353601E+01  0.27694589226E+01  0.48728407213E+02  0.49256389351E+02  0.41800000000E+01 0. -1.
        -11    1    1    2    0    0 -0.42734968039E+02 -0.99696435295E+02 -0.23991090505E+02  0.11109108482E+03  0.00000000000E+00 0. -1.
         11    1    1    2    0    0  0.45282394461E+02 -0.84397461695E+02  0.38485501947E+01  0.95855297857E+02  0.00000000000E+00 0.  1.
</event>
<event>
 7    1  0.2873461E-009  0.1257958E+03  0.7561462E-02  0.1233831E+00
         -2   -1    0    0    0  501 -0.00000000000E+00  0.00000000000E+00  0.27789662986E+03  0.27789662986E+03  0.00000000000E+00 0. -1.
          2   -1    0    0  501    0  0.00000000000E+00 -0.00000000000E+00 -0.94330527174E+02  0.94330527174E+02  0.00000000000E+00 0.  1.
         25    2    1    2    0    0  0.50636856754E+02  0.10394096015E+03  0.64809220593E+02  0.18225265919E+03  0.12509189521E+03 0.  0.
          5    1    3    3  502    0  0.84876219408E+01  0.69263750642E+02  0.96377788789E+02  0.11906157000E+03  0.41800000000E+01 0.  1.
         -5    1    3    3    0  502  0.42149234813E+02  0.34677209506E+02 -0.31568568196E+02  0.63191089186E+02  0.41800000000E+01 0.  1.
        -11    1    1    2    0    0 -0.60741627859E+02 -0.76374737999E+02  0.39182630406E+02  0.10515666638E+03  0.00000000000E+00 0.  1.
         11    1    1    2    0    0  0.10104771105E+02 -0.27566222149E+02  0.79574251683E+02  0.84817831460E+02  0.00000000000E+00 0. -1.
</event>
<event>
 7    1  0.2873461E-009  0.1245496E+03  0.7561462E-02  0.1235775E+00
         -2   -1    0    0    0  501 -0.00000000000E+00  0.00000000000E+00  0.17580002096E+02  0.17580002096E+02  0.00000000000E+00 0.  1.
          2   -1    0    0  501    0  0.00000000000E+00 -0.00000000000E+00 -0.10760593308E+04  0.10760593308E+04  0.00000000000E+00 0. -1.
         25    2    1    2    0    0 -0.16611300781E+02  0.76140009787E+02 -0.45921593269E+03  0.48228429902E+03  0.12508251611E+03 0.  0.
          5    1    3    3  502    0  0.41866707111E+02  0.15252940979E+02 -0.28672812059E+03  0.29019986373E+03  0.41800000000E+01 0. -1.
         -5    1    3    3    0  502 -0.58478007891E+02  0.60887068808E+02 -0.17248781211E+03  0.19208443529E+03  0.41800000000E+01 0. -1.
        -11    1    1    2    0    0 -0.34897473712E+02 -0.52752559835E+02 -0.35833590041E+03  0.36387536845E+03  0.00000000000E+00 0. -1.
         11    1    1    2    0    0  0.51508774493E+02 -0.23387449952E+02 -0.24092749558E+03  0.24747966541E+03  0.00000000000E+00 0.  1.
</event>
<event>
 7    1  0.2873461E-009  0.1009870E+03  0.7561462E-02  0.1278234E+00
         -1   -1    0    0    0  501 -0.00000000000E+00  0.00000000000E+00  0.29114344689E+02  0.29114344689E+02  0.00000000000E+00 0.  1.
          1   -1    0    0  501    0  0.00000000000E+00 -0.00000000000E+00 -0.66637313962E+03  0.66637313962E+03  0.00000000000E+00 0. -1.
         25    2    1    2    0    0  0.77320601785E+02  0.40332365887E+02 -0.35839456285E+03  0.38948601159E+03  0.12509002897E+03 0.  0.
          5    1    3    3  502    0  0.43061256722E+02  0.55907509458E+02 -0.34021701301E+03  0.34748382665E+03  0.41800000000E+01 0.  1.
         -5    1    3    3    0  502  0.34259345063E+02 -0.15575143571E+02 -0.18177549839E+02  0.42002184938E+02  0.41800000000E+01 0.  1.
        -11    1    1    2    0    0 -0.45425505702E+02 -0.48147826565E+01 -0.24038609668E+03  0.24468783005E+03  0.00000000000E+00 0. -1.
         11    1    1    2    0    0 -0.31895096083E+02 -0.35517583230E+02 -0.38478135405E+02  0.61313642666E+02  0.00000000000E+00 0.  1.
</event>
<event>
 7    1  0.2873461E-009  0.8758702E+02  0.7561462E-02  0.1308803E+00
          1   -1    0    0  501    0  0.00000000000E+00  0.00000000000E+00  0.22473486649E+03  0.22473486649E+03  0.00000000000E+00 0. -1.
         -1   -1    0    0    0  501 -0.00000000000E+00 -0.00000000000E+00 -0.75537684932E+02  0.75537684932E+02  0.00000000000E+00 0.  1.
         25    2    1    2    0    0 -0.73240120837E+01 -0.22930196398E+02  0.16043030717E+03  0.20485334776E+03  0.12509026968E+03 0.  0.
          5    1    3    3  502    0 -0.57075731846E+02 -0.22679805877E+02  0.13596999944E+03  0.14925590745E+03  0.41800000000E+01 0. -1.
         -5    1    3    3    0  502  0.49751719763E+02 -0.25039052069E+00  0.24460307726E+02  0.55597440308E+02  0.41800000000E+01 0. -1.
        -11    1    1    2    0    0  0.16070198862E+02  0.40767986771E+02  0.27607661651E+02  0.51792499637E+02  0.00000000000E+00 0. -1.
         11    1    1    2    0    0 -0.87461867782E+01 -0.17837790373E+02 -0.38840787265E+02  0.43626704023E+02  0.00000000000E+00 0.  1.
</event>
<event>
 7    1  0.2873461E-009  0.8860286E+02  0.7561462E-02  0.1306271E+00
         -2   -1    0    0    0  501 -0.00000000000E+00  0.00000000000E+00  0.12653045112E+03  0.12653045112E+03  0.00000000000E+00 0.  1.
          2   -1    0    0  501    0  0.00000000000E+00 -0.00000000000E+00 -0.10870639437E+03  0.10870639437E+03  0.00000000000E+00 0. -1.
         25    2    1    2    0    0  0.11201493475E+02 -0.45911832299E+02  0.10789210399E+02  0.13415688543E+03  0.12509313748E+03 0.  0.
          5    1    3    3  502    0  0.10399637448E+00  0.14721320230E+02 -0.47080437892E+02  0.49505233225E+02  0.41800000000E+01 0. -1.
         -5    1    3    3    0  502  0.11097497101E+02 -0.60633152529E+02  0.57869648291E+02  0.84651652204E+02  0.41800000000E+01 0. -1.
        -11    1    1    2    0    0 -0.48771145364E+02  0.13770682615E+02 -0.24459511743E+01  0.50736958886E+02  0.00000000000E+00 0. -1.
         11    1    1    2    0    0  0.37569651889E+02  0.32141149684E+02  0.94807975209E+01  0.50343001179E+02  0.00000000000E+00 0.  1.
</event>
<event>
 7    1  0.2873461E-009  0.1420159E+03  0.7561462E-02  0.1210642E+00
          1   -1    0    0  501    0  0.00000000000E+00  0.00000000000E+00  0.72227956193E+02  0.72227956193E+02  0.00000000000E+00 0. -1.
         -1   -1    0    0    0  501 -0.00000000000E+00 -0.00000000000E+00 -0.30253603446E+03  0.30253603446E+03  0.00000000000E+00 0.  1.
         25    2    1    2    0    0 -0.59697269955E+02  0.76703218047E+02 -0.92856512304E+02  0.18361769660E+03  0.12508388756E+03 0.  0.
          5    1    3    3  502    0  0.27407228050E+02 -0.10692422665E+02 -0.38722842042E+02  0.48809988195E+02  0.41800000000E+01 0. -1.
         -5    1    3    3    0  502 -0.87104498005E+02  0.87395640712E+02 -0.54133670262E+02  0.13480770840E+03  0.41800000000E+01 0. -1.
        -11    1    1    2    0    0 -0.14683093657E+02 -0.49541179861E+02 -0.70764288623E+02  0.87621380301E+02  0.00000000000E+00 0. -1.
         11    1    1    2    0    0  0.74380363612E+02 -0.27162038186E+02 -0.66687277342E+02  0.10352491376E+03  0.00000000000E+00 0.  1.
</event>
<event>
 7    1  0.2873461E-009  0.7689560E+02  0.7561462E-02  0.1338099E+00
         -1   -1    0    0    0  501 -0.00000000000E+00  0.00000000000E+00  0.38240440776E+02  0.38240440776E+02  0.00000000000E+00 0.  1.
          1   -1    0    0  501    0  0.00000000000E+00 -0.00000000000E+00 -0.34636958854E+03  0.34636958854E+03  0.00000000000E+00 0. -1.
         25    2    1    2    0    0 -0.10470179808E+01  0.34319599707E+02 -0.18501275806E+03  0.22595589934E+03  0.12508963439E+03 0.  0.
          5    1    3    3  502    0 -0.61736520989E+01  0.45443494225E+02 -0.59589457227E+01  0.46434971538E+02  0.41800000000E+01 0.  1.
         -5    1    3    3    0  502  0.51266341181E+01 -0.11123894518E+02 -0.17905381234E+03  0.17952092780E+03  0.41800000000E+01 0.  1.
        -11    1    1    2    0    0  0.98949494585E+01  0.29114459918E+02 -0.18198274239E+02  0.35731484525E+02  0.00000000000E+00 0.  1.
         11    1    1    2    0    0 -0.88479314777E+01 -0.63434059625E+02 -0.10491811547E+03  0.12292264545E+03  0.00000000000E+00 0. -1.
</event>
<event>
 7    1  0.2873461E-009  0.9902169E+02  0.7561462E-02  0.1282367E+00
          2   -1    0    0  501    0  0.00000000000E+00  0.00000000000E+00  0.28870331015E+03  0.28870331015E+03  0.00000000000E+00 0. -1.
         -2   -1    0    0    0  501 -0.00000000000E+00 -0.00000000000E+00 -0.43023853678E+02  0.43023853678E+02  0.00000000000E+00 0.  1.
         25    2    1    2    0    0 -0.14265623686E+02 -0.14641530550E+02  0.11387504302E+03  0.17038783816E+03  0.12508640028E+03 0.  0.
          5    1    3    3  502    0 -0.29135247179E+02  0.51109651406E+02  0.58167561142E+02  0.82837169581E+02  0.41800000000E+01 0. -1.
         -5    1    3    3    0  502  0.14869623493E+02 -0.65751181955E+02  0.55707481874E+02  0.87550668576E+02  0.41800000000E+01 0. -1.
        -11    1    1    2    0    0  0.38907233416E+02 -0.60143120833E+01  0.18385629455E+02  0.43450847315E+02  0.00000000000E+00 0.  1.
         11    1    1    2    0    0 -0.24641609730E+02  0.20655842633E+02  0.11341878400E+03  0.11788847836E+03  0.00000000000E+00 0. -1.
</event>
<event>
 7    1  0.2873461E-009  0.9277572E+02  0.7561462E-02  0.1296266E+00
         -1   -1    0    0    0  501 -0.00000000000E+00  0.00000000000E+00  0.51758691326E+03  0.51758691326E+03  0.00000000000E+00 0. -1.
          1   -1    0    0  501    0  0.00000000000E+00 -0.00000000000E+00 -0.26854864363E+02  0.26854864363E+02  0.00000000000E+00 0.  1.
         25    2    1    2    0    0 -0.40363339640E+02  0.15523164304E+02  0.34336520687E+03  0.36798155924E+03  0.12506236378E+03 0.  0.
          5    1    3    3  502    0  0.17532549962E+02 -0.38891103587E+02  0.19472092594E+03  0.19938309770E+03  0.41800000000E+01 0. -1.
         -5    1    3    3    0  502 -0.57895889602E+02  0.54414267891E+02  0.14864428093E+03  0.16859846155E+03  0.41800000000E+01 0. -1.
        -11    1    1    2    0    0  0.32010962524E+00 -0.22478396401E+02  0.13055698421E+03  0.13247832616E+03  0.00000000000E+00 0. -1.
         11    1    1    2    0    0  0.40043230015E+02  0.69552320974E+01  0.16809857807E+02  0.43981892217E+02  0.00000000000E+00 0.  1.
</event>
<event>
 7    1  0.2873461E-009  0.1621511E+03  0.7561462E-02  0.1186289E+00
         -2   -1    0    0    0  501 -0.00000000000E+00  0.00000000000E+00  0.27718400887E+03  0.27718400887E+03  0.00000000000E+00 0.  1.
          2   -1    0    0  501    0  0.00000000000E+00 -0.00000000000E+00 -0.11991776482E+03  0.11991776482E+03  0.00000000000E+00 0. -1.
         25    2    1    2    0    0 -0.13234625558E+03 -0.39458799651E+02  0.13434101559E+03  0.22971123010E+03  0.12508881855E+03 0.  0.
          5    1    3    3  502    0 -0.38493418948E+01  0.35982427052E+02  0.35423253763E+02  0.50811728929E+02  0.41800000000E+01 0.  1.
         -5    1    3    3    0  502 -0.12849691369E+03 -0.75441226702E+02  0.98917761823E+02  0.17889950117E+03  0.41800000000E+01 0.  1.
        -11    1    1    2    0    0  0.67526247930E+02  0.12839285186E+02 -0.34393496272E+02  0.76860614032E+02  0.00000000000E+00 0. -1.
         11    1    1    2    0    0  0.64820007652E+02  0.26619514465E+02  0.57318724733E+02  0.90529929567E+02  0.00000000000E+00 0.  1.
</event>
<event>
 7    1  0.2873461E-009  0.1053079E+03  0.7561462E-02  0.1269514E+00
         -1   -1    0    0    0  501 -0.00000000000E+00  0.00000000000E+00  0.17857577055E+02  0.17857577055E+02  0.00000000000E+00 0.  1.
          1   -1    0    0  501    0  0.00000000000E+00 -0.00000000000E+00 -0.77340997172E+03  0.77340997172E+03  0.00000000000E+00 0. -1.
         25    2    1    2    0    0  0.12991424294E+02  0.31117930918E+02 -0.53084975086E+03  0.54643737847E+03  0.12512093297E+03 0.  0.
          5    1    3    3  502    0 -0.44784513975E+02 -0.90613617928E+01 -0.33811726854E+03  0.34121623739E+03  0.41800000000E+01 0.  1.
         -5    1    3    3    0  502  0.57775938269E+02  0.40179292710E+02 -0.19273248232E+03  0.20522114108E+03  0.41800000000E+01 0.  1.
        -11    1    1    2    0    0 -0.39449344769E+02  0.14060097441E+02 -0.13051091072E+03  0.13706580522E+03  0.00000000000E+00 0.  1.
         11    1    1    2    0    0  0.26457920475E+02 -0.45178028359E+02 -0.94191733082E+02  0.10776436509E+03  0.00000000000E+00 0. -1.
</event>
<event>
 7    1  0.2873461E-009  0.1051282E+03  0.7561462E-02  0.1269867E+00
          1   -1    0    0  501    0  0.00000000000E+00  0.00000000000E+00  0.27606545055E+04  0.27606545055E+04  0.00000000000E+00 0. -1.
         -1   -1    0    0    0  501 -0.00000000000E+00 -0.00000000000E+00 -0.72640540747E+01  0.72640540747E+01  0.00000000000E+00 0.  1.
         25    2    1    2    0    0  0.40975504906E+02 -0.10769527265E+02  0.22650188117E+04  0.22688659388E+04  0.12508979152E+03 0.  0.
          5    1    3    3  502    0  0.18159913890E+02  0.44730482180E+02  0.40711823913E+03  0.40999186765E+03  0.41800000000E+01 0.  1.
         -5    1    3    3    0  502  0.22815591017E+02 -0.55500009445E+02  0.18579005726E+04  0.18588740711E+04  0.41800000000E+01 0.  1.
        -11    1    1    2    0    0 -0.51120866596E+02 -0.30244308294E+02  0.24945970136E+03  0.25643362453E+03  0.00000000000E+00 0.  1.
         11    1    1    2    0    0  0.10145361690E+02  0.41013835559E+02  0.23891193837E+03  0.24261899630E+03  0.00000000000E+00 0. -1.
</event>
<event>
 7    1  0.2873461E-009  0.1572883E+03  0.7561462E-02  0.1191793E+00
         -1   -1    0    0    0  501 -0.00000000000E+00  0.00000000000E+00  0.26104839877E+03  0.26104839877E+03  0.00000000000E+00 0.  1.
          1   -1    0    0  501    0  0.00000000000E+00 -0.00000000000E+00 -0.10869559451E+03  0.10869559451E+03  0.00000000000E+00 0. -1.
         25    2    1    2    0    0  0.64800474213E+02  0.10951427405E+03  0.63214130271E+02  0.18931298742E+03  0.12510357014E+03 0.  0.
          5    1    3    3  502    0  0.90704373681E+02  0.70673416000E+02  0.79315573091E+02  0.13975137806E+03  0.41800000000E+01 0. -1.
         -5    1    3    3    0  502 -0.25903899468E+02  0.38840858047E+02 -0.16101442820E+02  0.49561609360E+02  0.41800000000E+01 0. -1.
        -11    1    1    2    0    0 -0.84635523692E+02 -0.76283493799E+02  0.83636641220E+02  0.14134154043E+03  0.00000000000E+00 0.  1.
         11    1    1    2    0    0  0.19835049479E+02 -0.33230780247E+02  0.55020327664E+01  0.39089465438E+02  0.00000000000E+00 0. -1.
</event>
<event>
 7    1  0.2873461E-009  0.1197970E+03  0.7561462E-02  0.1243432E+00
          3   -1    0    0  501    0  0.00000000000E+00  0.00000000000E+00  0.76852677519E+03  0.76852677519E+03  0.00000000000E+00 0. -1.
         -3   -1    0    0    0  501 -0.00000000000E+00 -0.00000000000E+00 -0.21869006882E+02  0.21869006882E+02  0.00000000000E+00 0.  1.
         25    2    1    2    0    0 -0.63190226753E+02  0.29549585484E+02  0.39144641195E+03  0.41682758115E+03  0.12509498879E+03 0.  0.
          5    1    3    3  502    0  0.17092736586E+02  0.54483106754E+02  0.12699736260E+03  0.13930675889E+03  0.41800000000E+01 0. -1.
         -5    1    3    3    0  502 -0.80282963339E+02 -0.24933521271E+02  0.26444904935E+03  0.27752082226E+03  0.41800000000E+01 0. -1.
        -11    1    1    2    0    0  0.47473006958E+02 -0.52227075673E+02  0.32532413839E+03  0.33289209790E+03  0.00000000000E+00 0. -1.
         11    1    1    2    0    0  0.15717219795E+02  0.22677490190E+02  0.29887217969E+02  0.40676103025E+02  0.00000000000E+00 0.  1.
</event>
<event>
 7    1  0.2873461E-009  0.1039221E+03  0.7561462E-02  0.1272258E+00
          1   -1    0    0  501    0  0.00000000000E+00  0.00000000000E+00  0.15578855643E+03  0.15578855643E+03  0.00000000000E+00 0. -1.
         -1   -1    0    0    0  501 -0.00000000000E+00 -0.00000000000E+00 -0.93355393020E+02  0.93355393020E+02  0.00000000000E+00 0.  1.
         25    2    1    2    0    0  0.34800200631E+02 -0.55722542166E+01 -0.51452288793E+01  0.13005598417E+03  0.12508389847E+03 0.  0.
          5    1    3    3  502    0 -0.37828359804E+02  0.26078549787E+02 -0.18307584668E+02  0.49635830011E+02  0.41800000000E+01 0.  1.
         -5    1    3    3    0  502  0.72628560435E+02 -0.31650804004E+02  0.13162355789E+02  0.80420154158E+02  0.41800000000E+01 0.  1.
        -11    1    1    2    0    0  0.10134240469E+02  0.29691824457E+02 -0.35414123475E+01  0.31572913563E+02  0.00000000000E+00 0.  1.
         11    1    1    2    0    0 -0.44934441100E+02 -0.24119570240E+02  0.71119804636E+02  0.87515051717E+02  0.00000000000E+00 0. -1.
</event>
<event>
 7    1  0.2873461E-009  0.2007874E+03  0.7561462E-02  0.1149076E+00
         -2   -1    0    0    0  501 -0.00000000000E+00  0.00000000000E+00  0.10801617560E+03  0.10801617560E+03  0.00000000000E+00 0.  1.
          2   -1    0    0  501    0  0.00000000000E+00 -0.00000000000E+00 -0.41355109009E+03  0.41355109009E+03  0.00000000000E+00 0. -1.
         25    2    1    2    0    0 -0.47515931771E+02  0.17450342818E+03 -0.16524046687E+03  0.27504739499E+03  0.12504977960E+03 0.  0.
          5    1    3    3  502    0 -0.61871562557E+02  0.40024692251E+02 -0.19837463347E+02  0.76426851270E+02  0.41800000000E+01 0.  1.
         -5    1    3    3    0  502  0.14355630786E+02  0.13447873593E+03 -0.14540300352E+03  0.19862054372E+03  0.41800000000E+01 0.  1.
        -11    1    1    2    0    0  0.63910059756E+02 -0.12637716757E+03 -0.65378409988E+02  0.15598083445E+03  0.00000000000E+00 0.  1.
         11    1    1    2    0    0 -0.16394127985E+02 -0.48126260608E+02 -0.74916037624E+02  0.90539036254E+02  0.00000000000E+00 0. -1.
</event>
<event>
 7    1  0.2873461E-009  0.2999364E+03  0.7561462E-02  0.1085272E+00
          1   -1    0    0  501    0  0.00000000000E+00  0.00000000000E+00  0.22618182776E+04  0.22618182776E+04  0.00000000000E+00 0. -1.
         -1   -1    0    0    0  501 -0.00000000000E+00 -0.00000000000E+00 -0.44520724320E+02  0.44520724320E+02  0.00000000000E+00 0.  1.
         25    2    1    2    0    0  0.20260971320E+02 -0.27912741776E+03  0.75832343030E+03  0.81793809612E+03  0.12508269996E+03 0.  0.
          5    1    3    3  502    0 -0.95195634386E+01 -0.27588336612E+03  0.67383863412E+03  0.72820205371E+03  0.41800000000E+01 0.  1.
         -5    1    3    3    0  502  0.29780534759E+02 -0.32440516407E+01  0.84484796181E+02  0.89736042409E+02  0.41800000000E+01 0.  1.
        -11    1    1    2    0    0  0.31701705118E+02  0.16675509247E+03  0.90208275642E+03  0.91791369878E+03  0.00000000000E+00 0.  1.
         11    1    1    2    0    0 -0.51962676438E+02  0.11237232529E+03  0.55689136659E+03  0.57048720706E+03  0.00000000000E+00 0. -1.
</event>
<event>
 7    1  0.2873461E-009  0.1580418E+03  0.7561462E-02  0.1190925E+00
          2   -1    0    0  501    0  0.00000000000E+00  0.00000000000E+00  0.40972793214E+04  0.40972793214E+04  0.00000000000E+00 0.  1.
         -2   -1    0    0    0  501 -0.00000000000E+00 -0.00000000000E+00 -0.12167819551E+02  0.12167819551E+02  0.00000000000E+00 0. -1.
         25    2    1    2    0    0 -0.11656144844E+03  0.84188481075E+02  0.33269070647E+04  0.33323614764E+04  0.12509244990E+03 0.  0.
          5    1    3    3  502    0 -0.11593038120E+03  0.78638733759E+02  0.18030714408E+04  0.18085098829E+04  0.41800000000E+01 0. -1.
         -5    1    3    3    0  502 -0.63106723917E+00  0.55497473161E+01  0.15238356239E+04  0.15238515935E+04  0.41800000000E+01 0. -1.
        -11    1    1    2    0    0  0.83179208515E+02 -0.10160246213E+03  0.62606316981E+03  0.63968502689E+03  0.00000000000E+00 0.  1.
         11    1    1    2    0    0  0.33382239927E+02  0.17413981055E+02  0.13214126733E+03  0.13740063759E+03  0.00000000000E+00 0. -1.
</event>
<event>
 7    1  0.2873461E-009  0.9322441E+02  0.7561462E-02  0.1295226E+00
          2   -1    0    0  501    0  0.00000000000E+00  0.00000000000E+00  0.12756066624E+04  0.12756066624E+04  0.00000000000E+00 0. -1.
         -2   -1    0    0    0  501 -0.00000000000E+00 -0.00000000000E+00 -0.10479992218E+02  0.10479992218E+02  0.00000000000E+00 0.  1.
         25    2    1    2    0    0  0.13239925698E+02  0.25719768321E+02  0.85778717297E+03  0.86734436517E+03  0.12510240430E+03 0.  0.
          5    1    3    3  502    0  0.49902927436E+02  0.28487924576E+02  0.76899182576E+03  0.77114704467E+03  0.41800000000E+01 0.  1.
         -5    1    3    3    0  502 -0.36663001738E+02 -0.27681562549E+01  0.88795347211E+02  0.96197320502E+02  0.41800000000E+01 0.  1.
        -11    1    1    2    0    0 -0.92146368885E+01 -0.58289526647E+02  0.32093153317E+03  0.32631216256E+03  0.00000000000E+00 0. -1.
         11    1    1    2    0    0 -0.40252888092E+01  0.32569758326E+02  0.86407964035E+02  0.92430126886E+02  0.00000000000E+00 0.  1.
</event>
<event>
 7    1  0.2873461E-009  0.2242075E+03  0.7561462E-02  0.1130785E+00
          1   -1    0    0  501    0  0.00000000000E+00  0.00000000000E+00  0.18863188908E+03  0.18863188908E+03  0.00000000000E+00 0. -1.
         -1   -1    0    0    0  501 -0.00000000000E+00 -0.00000000000E+00 -0.30311512227E+03  0.30311512227E+03  0.00000000000E+00 0.  1.
         25    2    1    2    0    0 -0.19432346378E+03 -0.69127694853E+02 -0.64551002030E+01  0.24130777247E+03  0.12509007140E+03 0.  0.
          5    1    3    3  502    0 -0.13341222000E+03  0.13031312499E+02  0.19970043861E+02  0.13559096800E+03  0.41800000000E+01 0. -1.
         -5    1    3    3    0  502 -0.60911243781E+02 -0.82159007352E+02 -0.26425144064E+02  0.10571680447E+03  0.41800000000E+01 0. -1.
        -11    1    1    2    0    0  0.16511844905E+03  0.76260387493E+02 -0.12019630569E+03  0.21800665315E+03  0.00000000000E+00 0.  1.
         11    1    1    2    0    0  0.29205014732E+02 -0.71326926399E+01  0.12168172712E+02  0.32432585727E+02  0.00000000000E+00 0. -1.
</event>
<event>
 7    1  0.2873461E-009  0.1102597E+03  0.7561462E-02  0.1260090E+00
         -1   -1    0    0    0  501 -0.00000000000E+00  0.00000000000E+00  0.38868463699E+02  0.38868463699E+02  0.00000000000E+00 0.  1.
          1   -1    0    0  501    0  0.00000000000E+00 -0.00000000000E+00 -0.39094167145E+03  0.39094167145E+03  0.00000000000E+00 0. -1.
         25    2    1    2    0    0  0.55528327531E+02  0.97363081971E+01 -0.16771424935E+03  0.21669395960E+03  0.12510000735E+03 0.  0.
          5    1    3    3  502    0 -0.36940774433E+02  0.20104925492E+02 -0.36889501773E+02  0.56099345681E+02  0.41800000000E+01 0. -1.
         -5    1    3    3    0  502  0.92469101964E+02 -0.10368617295E+02 -0.13082474758E+03  0.16059461392E+03  0.41800000000E+01 0. -1.
        -11    1    1    2    0    0 -0.20531178222E+02 -0.35940992309E+02 -0.15505186423E+03  0.16048166502E+03  0.00000000000E+00 0. -1.
         11    1    1    2    0    0 -0.34997149309E+02  0.26204684112E+02 -0.29307094172E+02  0.52634510523E+02  0.00000000000E+00 0.  1.
</event>
<event>
 7    1  0.2873461E-009  0.1204342E+03  0.7561462E-02  0.1242382E+00
         -2   -1    0    0    0  501 -0.00000000000E+00  0.00000000000E+00  0.11730100924E+03  0.11730100924E+03  0.00000000000E+00 0.  1.
          2   -1    0    0  501    0  0.00000000000E+00 -0.00000000000E+00 -0.20514370960E+03  0.20514370960E+03  0.00000000000E+00 0. -1.
         25    2    1    2    0    0 -0.60017022000E+02  0.33513822957E+02  0.42677948848E+02  0.14897562354E+03  0.12508840807E+03 0.  0.
          5    1    3    3  502    0  0.97609903703E+01  0.64156729207E+02  0.93746962909E+01  0.65701751621E+02  0.41800000000E+01 0.  1.
         -5    1    3    3    0  502 -0.69778012370E+02 -0.30642906251E+02  0.33303252557E+02  0.83273871921E+02  0.41800000000E+01 0.  1.
        -11    1    1    2    0    0  0.58573763698E+02 -0.53587851238E+02 -0.13118038638E+03  0.15333244068E+03  0.00000000000E+00 0. -1.
         11    1    1    2    0    0  0.14432583021E+01  0.20074028282E+02  0.65973718134E+00  0.20136654616E+02  0.00000000000E+00 0.  1.
</event>
<event>
 7    1  0.2873461E-009  0.1984427E+03  0.7561462E-02  0.1151060E+00
         -1   -1    0    0    0  501 -0.00000000000E+00  0.00000000000E+00  0.31195382037E+03  0.31195382037E+03  0.00000000000E+00 0.  1.
          1   -1    0    0  501    0  0.00000000000E+00 -0.00000000000E+00 -0.14297756912E+03  0.14297756912E+03  0.00000000000E+00 0. -1.
         25    2    1    2    0    0  0.11661328949E+03 -0.12728812583E+03  0.14362681383E+03  0.25705590624E+03  0.12509256981E+03 0.  0.
          5    1    3    3  502    0  0.11404709144E+03 -0.33041156872E+02  0.80710700400E+02  0.14363198346E+03  0.41800000000E+01 0. -1.
         -5    1    3    3    0  502  0.25661980425E+01 -0.94246968954E+02  0.62916113434E+02  0.11342392278E+03  0.41800000000E+01 0. -1.
        -11    1    1    2    0    0 -0.93326501267E+02  0.13024163279E+03  0.45905816359E+02  0.16667352137E+03  0.00000000000E+00 0.  1.
         11    1    1    2    0    0 -0.23286788220E+02 -0.29535069679E+01 -0.20556378946E+02  0.31201961867E+02  0.00000000000E+00 0. -1.
</event>
<event>
 7    1  0.2873461E-009  0.9215905E+02  0.7561462E-02  0.1297706E+00
          2   -1    0    0  501    0  0.00000000000E+00  0.00000000000E+00  0.11697697748E+04  0.11697697748E+04  0.00000000000E+00 0. -1.
         -2   -1    0    0    0  501 -0.00000000000E+00 -0.00000000000E+00 -0.13518288971E+02  0.13518288971E+02  0.00000000000E+00 0.  1.
         25    2    1    2    0    0  0.26130388250E+02 -0.23603763227E+02  0.83621037869E+03  0.84624777203E+03  0.12509020512E+03 0.  0.
          5    1    3    3  502    0  0.50692106220E+02  0.22966863537E+00  0.76926950969E+03  0.77094928064E+03  0.41800000000E+01 0.  1.
         -5    1    3    3    0  502 -0.24561717970E+02 -0.23833431863E+02  0.66940868998E+02  0.75298491394E+02  0.41800000000E+01 0.  1.
        -11    1    1    2    0    0 -0.16073546506E+02 -0.35527457589E+02  0.72339290885E+02  0.82179876770E+02  0.00000000000E+00 0.  1.
         11    1    1    2    0    0 -0.10056841744E+02  0.59131220817E+02  0.24770181622E+03  0.25486041494E+03  0.00000000000E+00 0. -1.
</event>
<event>
 7    1  0.2873461E-009  0.1058191E+03  0.7561462E-02  0.1268514E+00
         -3   -1    0    0    0  501 -0.00000000000E+00  0.00000000000E+00  0.18149146414E+03  0.18149146414E+03  0.00000000000E+00 0.  1.
          3   -1    0    0  501    0  0.00000000000E+00 -0.00000000000E+00 -0.10457830877E+03  0.10457830877E+03  0.00000000000E+00 0. -1.
         25    2    1    2    0    0  0.83169787871E+02 -0.10475119671E+02  0.60339126688E+02  0.16223037579E+03  0.12510372845E+03 0.  0.
          5    1    3    3  502    0  0.44787968905E+02  0.88341081202E+01  0.95905156956E+02  0.10629804869E+03  0.41800000000E+01 0. -1.
         -5    1    3    3    0  502  0.38381818966E+02 -0.19309227792E+02 -0.35566030268E+02  0.55932327093E+02  0.41800000000E+01 0. -1.
        -11    1    1    2    0    0 -0.18561360826E+02 -0.37709678854E+02  0.80227446052E+01  0.42789115742E+02  0.00000000000E+00 0. -1.
         11    1    1    2    0    0 -0.64608427046E+02  0.48184798525E+02  0.85512840753E+01  0.81050281391E+02  0.00000000000E+00 0.  1.
</event>
<event>
 7    1  0.2873461E-009  0.7772902E+02  0.7561462E-02  0.1335623E+00
         -1   -1    0    0    0  501 -0.00000000000E+00  0.00000000000E+00  0.11633833119E+03  0.11633833119E+03  0.00000000000E+00 0.  1.
          1   -1    0    0  501    0  0.00000000000E+00 -0.00000000000E+00 -0.10915047981E+03  0.10915047981E+03  0.00000000000E+00 0. -1.
         25    2    1    2    0    0 -0.10075577841E+02  0.17793729025E+02  0.96302810885E+01  0.12711743708E+03  0.12509183201E+03 0.  0.
          5    1    3    3  502    0 -0.44757814994E+02 -0.32210797606E+02  0.29865097221E+02  0.62850568156E+02  0.41800000000E+01 0.  1.
         -5    1    3    3    0  502  0.34682237154E+02  0.50004526631E+02 -0.20234816133E+02  0.64266868926E+02  0.41800000000E+01 0.  1.
        -11    1    1    2    0    0 -0.99659802497E+01  0.28708584255E+01 -0.45450220544E+02  0.46618506389E+02  0.00000000000E+00 0. -1.
         11    1    1    2    0    0  0.20041558090E+02 -0.20664587450E+02  0.43007790833E+02  0.51752867529E+02  0.00000000000E+00 0.  1.
</event>
<event>
 7    1  0.2873461E-009  0.2220972E+03  0.7561462E-02  0.1132329E+00
          2   -1    0    0  501    0  0.00000000000E+00  0.00000000000E+00  0.61986442221E+03  0.61986442221E+03  0.00000000000E+00 0. -1.
         -2   -1    0    0    0  501 -0.00000000000E+00 -0.00000000000E+00 -0.86735628920E+02  0.86735628920E+02  0.00000000000E+00 0.  1.
         25    2    1    2    0    0  0.91313424226E+02  0.17938197743E+03  0.21402597184E+03  0.31932813784E+03  0.12508919908E+03 0.  0.
          5    1    3    3  502    0 -0.27724468269E+02  0.97302767205E+01  0.28182175025E+02  0.40927152540E+02  0.41800000000E+01 0. -1.
         -5    1    3    3    0  502  0.11903789250E+03  0.16965170071E+03  0.18584379681E+03  0.27840098530E+03  0.41800000000E+01 0. -1.
        -11    1    1    2    0    0 -0.84090703769E+02 -0.11513202593E+03  0.27259572726E+03  0.30762812026E+03  0.00000000000E+00 0. -1.
         11    1    1    2    0    0 -0.72227204570E+01 -0.64249951500E+02  0.46507094198E+02  0.79643793037E+02  0.00000000000E+00 0.  1.
</event>
<event>
 7    1  0.2873461E-009  0.9280076E+02  0.7561462E-02  0.1296208E+00
          4   -1    0    0  501    0  0.00000000000E+00  0.00000000000E+00  0.48115384215E+02  0.48115384215E+02  0.00000000000E+00 0. -1.
         -4   -1    0    0    0  501 -0.00000000000E+00 -0.00000000000E+00 -0.27083486808E+03  0.27083486808E+03  0.00000000000E+00 0.  1.
         25    2    1    2    0    0 -0.25153448059E+02 -0.14991279158E+02 -0.18244800055E+03  0.22314356051E+03  0.12509333033E+03 0.  0.
          5    1    3    3  502    0  0.44103696045E+02 -0.30826992564E+02 -0.54298001227E+02  0.76558375196E+02  0.41800000000E+01 0. -1.
         -5    1    3    3    0  502 -0.69257144104E+02  0.15835713406E+02 -0.12814999932E+03  0.14658518531E+03  0.41800000000E+01 0. -1.
        -11    1    1    2    0    0  0.41726120957E+02  0.80519851165E+01 -0.57107709364E+02  0.71184226506E+02  0.00000000000E+00 0.  1.
         11    1    1    2    0    0 -0.16572672898E+02  0.69392940410E+01  0.16836226047E+02  0.24622465276E+02  0.00000000000E+00 0. -1.
</event>
<event>
 7    1  0.2873461E-009  0.1062025E+03  0.7561462E-02  0.1267768E+00
          1   -1    0    0  501    0  0.00000000000E+00  0.00000000000E+00  0.24177729638E+03  0.24177729638E+03  0.00000000000E+00 0. -1.
         -1   -1    0    0    0  501 -0.00000000000E+00 -0.00000000000E+00 -0.90506606961E+02  0.90506606961E+02  0.00000000000E+00 0.  1.
         25    2    1    2    0    0 -0.10728628832E+02 -0.16634240389E+02 -0.28650137703E+02  0.12983557695E+03  0.12507855620E+03 0.  0.
          5    1    3    3  502    0  0.32856242599E+02 -0.56524679625E+02 -0.38650027912E+01  0.65627606470E+02  0.41800000000E+01 0.  1.
         -5    1    3    3    0  502 -0.43584871432E+02  0.39890439236E+02 -0.24785134912E+02  0.64207970477E+02  0.41800000000E+01 0.  1.
        -11    1    1    2    0    0  0.34186273969E+02 -0.23281968122E+02  0.52234644765E+02  0.66627392874E+02  0.00000000000E+00 0. -1.
         11    1    1    2    0    0 -0.23457645137E+02  0.39916208511E+02  0.12768618236E+03  0.13582093352E+03  0.00000000000E+00 0.  1.
</event>
<event>
 7    1  0.3178325E-009  0.1742249E+03  0.7561462E-02  0.1173512E+00
          1   -1    0    0  501    0  0.00000000000E+00  0.00000000000E+00  0.11424377939E+04  0.11424377939E+04  0.00000000000E+00 0. -1.
         -1   -1    0    0    0  501 -0.00000000000E+00 -0.00000000000E+00 -0.35370555095E+02  0.35370555095E+02  0.00000000000E+00 0.  1.
         25    2    1    2    0    0 -0.11337450137E+03  0.11565202750E+03  0.71992149066E+03  0.74844116853E+03  0.12509221008E+03 0.  0.
          5    1    3    3  502    0 -0.87636413177E+02  0.80767637834E+02  0.67653833952E+03  0.68696808476E+03  0.41800000000E+01 0.  1.
         -5    1    3    3    0  502 -0.25738088193E+02  0.34884389671E+02  0.43383151135E+02  0.61473083776E+02  0.41800000000E+01 0.  1.
        -11    1    1    2    0    0 -0.10918530869E+02 -0.36951849844E+02  0.77381101956E+02  0.86443556516E+02  0.00000000000E+00 0. -1.
         11    1    1    2    0    0  0.12429303224E+03 -0.78700177660E+02  0.30976464618E+03  0.34292362393E+03  0.00000000000E+00 0.  1.
</event>
<event>
 7    1  0.3496985E-009  0.1729523E+03  0.7561462E-02  0.1174804E+00
         -1   -1    0    0    0  501 -0.00000000000E+00  0.00000000000E+00  0.22280632836E+03  0.22280632836E+03  0.00000000000E+00 0.  1.
          1   -1    0    0  501    0  0.00000000000E+00 -0.00000000000E+00 -0.15761476193E+03  0.15761476193E+03  0.00000000000E+00 0. -1.
         25    2    1    2    0    0 -0.12239573885E+03  0.85883888830E+02  0.64556898298E+02  0.20536575983E+03  0.12510292940E+03 0.  0.
          5    1    3    3  502    0 -0.12909728324E+02  0.57797193944E+02  0.70418595535E+02  0.92105524864E+02  0.41800000000E+01 0. -1.
         -5    1    3    3    0  502 -0.10948601052E+03  0.28086694886E+02 -0.58616972373E+01  0.11326023497E+03  0.41800000000E+01 0. -1.
        -11    1    1    2    0    0  0.73390798952E+02 -0.98489862050E+02 -0.10397650070E+02  0.12326627042E+03  0.00000000000E+00 0.  1.
         11    1    1    2    0    0  0.49004939895E+02  0.12605973219E+02  0.11032318203E+02  0.51789060040E+02  0.00000000000E+00 0. -1.
</event>
<event>
 7    1  0.2873461E-009  0.1062731E+03  0.7561462E-02  0.1267631E+00
          1   -1    0    0  501    0  0.00000000000E+00  0.00000000000E+00  0.33786326198E+02  0.33786326198E+02  0.00000000000E+00 0. -1.
         -1   -1    0    0    0  501 -0.00000000000E+00 -0.00000000000E+00 -0.70392087592E+03  0.70392087592E+03  0.00000000000E+00 0.  1.
         25    2    1    2    0    0 -0.28836218827E+02 -0.52889695374E+02 -0.57656890815E+03  0.59305023882E+03  0.12509209617E+03 0.  0.
          5    1    3    3  502    0  0.19110641975E+02  0.33635973519E+02 -0.13360611309E+03  0.13915696607E+03  0.41800000000E+01 0.  1.
         -5    1    3    3    0  502 -0.47946860801E+02 -0.86525668893E+02 -0.44296279506E+03  0.45389327274E+03  0.41800000000E+01 0.  1.
        -11    1    1    2    0    0 -0.42365511511E+01  0.38203614684E+02  0.58314318679E+01  0.38877630306E+02  0.00000000000E+00 0. -1.
         11    1    1    2    0    0  0.33072769978E+02  0.14686080690E+02 -0.99397073438E+02  0.10577933299E+03  0.00000000000E+00 0.  1.
</event>
<event>
 7    1  0.2873461E-009  0.1446026E+03  0.7561462E-02  0.1207267E+00
         -1   -1    0    0    0  501 -0.00000000000E+00  0.00000000000E+00  0.61346474695E+03  0.61346474695E+03  0.00000000000E+00 0.  1.
          1   -1    0    0  501    0  0.00000000000E+00 -0.00000000000E+00 -0.35721382371E+02  0.35721382371E+02  0.00000000000E+00 0. -1.
         25    2    1    2    0    0 -0.81335366055E+02  0.36939833339E+02  0.27593371421E+03  0.31585788259E+03  0.12508714682E+03 0.  0.
          5    1    3    3  502    0 -0.33626221584E+02  0.79438784792E+02  0.18986456870E+03  0.20858396428E+03  0.41800000000E+01 0.  1.
         -5    1    3    3    0  502 -0.47709144471E+02 -0.42498951453E+02  0.86069145507E+02  0.10727391831E+03  0.41800000000E+01 0.  1.
        -11    1    1    2    0    0  0.33021036874E+02  0.37563467054E+02  0.14134538278E+03  0.14993305228E+03  0.00000000000E+00 0. -1.
         11    1    1    2    0    0  0.48314329182E+02 -0.74503300393E+02  0.16046426759E+03  0.18339519445E+03  0.00000000000E+00 0.  1.
</event>
<event>
 7    1  0.2873461E-009  0.1224238E+03  0.7561462E-02  0.1239151E+00
          1   -1    0    0  501    0  0.00000000000E+00  0.00000000000E+00  0.62575116851E+02  0.62575116851E+02  0.00000000000E+00 0. -1.
         -1   -1    0    0    0  501 -0.00000000000E+00 -0.00000000000E+00 -0.31246859480E+03  0.31246859480E+03  0.00000000000E+00 0.  1.
         25    2    1    2    0    0 -0.78207334196E+02  0.22313887495E+02 -0.90438477338E+02  0.17447443618E+03  0.12509162243E+03 0.  0.
          5    1    3    3  502    0 -0.55112674857E+02 -0.48405508125E+02 -0.33763609722E+02  0.80857614906E+02  0.41800000000E+01 0.  1.
         -5    1    3    3    0  502 -0.23094659338E+02  0.70719395620E+02 -0.56674867616E+02  0.93616821277E+02  0.41800000000E+01 0.  1.
        -11    1    1    2    0    0  0.62552526210E+02 -0.39214008722E+02 -0.51087386046E+02  0.89780165005E+02  0.00000000000E+00 0. -1.
         11    1    1    2    0    0  0.15654807986E+02  0.16900121227E+02 -0.10836761456E+03  0.11078911046E+03  0.00000000000E+00 0.  1.
</event>
<event>
 7    1  0.2873461E-009  0.1724918E+03  0.7561462E-02  0.1175274E+00
         -3   -1    0    0    0  501 -0.00000000000E+00  0.00000000000E+00  0.50726338038E+02  0.50726338038E+02  0.00000000000E+00 0.  1.
          3   -1    0    0  501    0  0.00000000000E+00 -0.00000000000E+00 -0.66545250779E+03  0.66545250779E+03  0.00000000000E+00 0. -1.
         25    2    1    2    0    0  0.44567919775E+02  0.14033640164E+03 -0.29131079485E+03  0.34955738158E+03  0.12509108171E+03 0.  0.
          5    1    3    3  502    0  0.15358477411E+02 -0.22580329734E+02 -0.43017166546E+02  0.51124388866E+02  0.41800000000E+01 0. -1.
         -5    1    3    3    0  502  0.29209442364E+02  0.16291673138E+03 -0.24829362830E+03  0.29843299272E+03  0.41800000000E+01 0. -1.
        -11    1    1    2    0    0 -0.50911640419E+02 -0.11680210045E+03 -0.17642954589E+03  0.21762837697E+03  0.00000000000E+00 0.  1.
         11    1    1    2    0    0  0.63437206438E+01 -0.23534301189E+02 -0.14698582901E+03  0.14899308727E+03  0.00000000000E+00 0. -1.
</event>
<event>
 7    1  0.2873461E-009  0.1627531E+03  0.7561462E-02  0.1185623E+00
          1   -1    0    0  501    0  0.00000000000E+00  0.00000000000E+00  0.35728109063E+03  0.35728109063E+03  0.00000000000E+00 0. -1.
         -1   -1    0    0    0  501 -0.00000000000E+00 -0.00000000000E+00 -0.10092942866E+03  0.10092942866E+03  0.00000000000E+00 0.  1.
         25    2    1    2    0    0  0.13956436994E+02 -0.13467602051E+03  0.22178563931E+03  0.28839264389E+03  0.12509610150E+03 0.  0.
          5    1    3    3  502    0  0.79012176504E+01 -0.14698856508E+03  0.22905813098E+03  0.27231079169E+03  0.41800000000E+01 0.  1.
         -5    1    3    3    0  502  0.60552193439E+01  0.12312544572E+02 -0.72724916627E+01  0.16081852198E+02  0.41800000000E+01 0.  1.
        -11    1    1    2    0    0 -0.32972581655E+02  0.56138488372E+01  0.18919740264E+02  0.38427373204E+02  0.00000000000E+00 0.  1.
         11    1    1    2    0    0  0.19016144660E+02  0.12906217167E+03  0.15646282392E+02  0.13139050219E+03  0.00000000000E+00 0. -1.
</event>
<event>
 7    1  0.2873461E-009  0.1104924E+03  0.7561462E-02  0.1259661E+00
          1   -1    0    0  501    0  0.00000000000E+00  0.00000000000E+00  0.28058926046E+02  0.28058926046E+02  0.00000000000E+00 0. -1.
         -1   -1    0    0    0  501 -0.00000000000E+00 -0.00000000000E+00 -0.49156087526E+03  0.49156087526E+03  0.00000000000E+00 0.  1.
         25    2    1    2    0    0 -0.30717946307E+02 -0.39324003586E+01 -0.18781772892E+03  0.22777572297E+03  0.12508886713E+03 0.  0.
          5    1    3    3  502    0  0.47686619249E+02  0.21938538548E+01 -0.51515698288E+02  0.70357417663E+02  0.41800000000E+01 0. -1.
         -5    1    3    3    0  502 -0.78404565556E+02 -0.61262542134E+01 -0.13630203063E+03  0.15741830530E+03  0.41800000000E+01 0. -1.
        -11    1    1    2    0    0 -0.27481593566E+02  0.19935555561E+02 -0.12477142255E+03  0.12930805174E+03  0.00000000000E+00 0.  1.
         11    1    1    2    0    0  0.58199539873E+02 -0.16003155202E+02 -0.15091279774E+03  0.16253602659E+03  0.00000000000E+00 0. -1.
</event>
<event>
 7    1  0.2873461E-009  0.1110173E+03  0.7561462E-02  0.1258697E+00
          1   -1    0    0  501    0  0.00000000000E+00  0.00000000000E+00  0.75958880346E+03  0.75958880346E+03  0.00000000000E+00 0. -1.
         -1   -1    0    0    0  501 -0.00000000000E+00 -0.00000000000E+00 -0.17693858495E+02  0.17693858495E+02  0.00000000000E+00 0.  1.
         25    2    1    2    0    0  0.23333910948E+02 -0.25798525130E+02  0.34751198712E+03  0.37097474221E+03  0.12509053867E+03 0.  0.
          5    1    3    3  502    0 -0.51790701548E+02 -0.87851596453E+01  0.14136297652E+03  0.15086556707E+03  0.41800000000E+01 0. -1.
         -5    1    3    3    0  502  0.75124612496E+02 -0.17013365485E+02  0.20614901060E+03  0.22010917514E+03  0.41800000000E+01 0. -1.
        -11    1    1    2    0    0  0.80634320299E+01 -0.28421430509E+02  0.70828067581E+02  0.76742503253E+02  0.00000000000E+00 0.  1.
         11    1    1    2    0    0 -0.31397342977E+02  0.54219955639E+02  0.32355489026E+03  0.32956541649E+03  0.00000000000E+00 0. -1.
</event>
<event>
 7    1  0.2873461E-009  0.1190898E+03  0.7561462E-02  0.1244606E+00
         -2   -1    0    0    0  501 -0.00000000000E+00  0.00000000000E+00  0.77998584671E+02  0.77998584671E+02  0.00000000000E+00 0.  1.
          2   -1    0    0  501    0  0.00000000000E+00 -0.00000000000E+00 -0.27723063987E+03  0.27723063987E+03  0.00000000000E+00 0. -1.
         25    2    1    2    0    0  0.48528004237E+02 -0.76515306335E+02 -0.57342857111E+02  0.16475468525E+03  0.12508534587E+03 0.  0.
          5    1    3    3  502    0 -0.24439812278E+02 -0.53664278512E+02 -0.64922462386E+02  0.87804087231E+02  0.41800000000E+01 0. -1.
         -5    1    3    3    0  502  0.72967816515E+02 -0.22851027824E+02  0.75796052749E+01  0.76950598020E+02  0.41800000000E+01 0. -1.
        -11    1    1    2    0    0 -0.42927388087E+02  0.23039466530E+02 -0.12493236433E+03  0.13409576176E+03  0.00000000000E+00 0. -1.
         11    1    1    2    0    0 -0.56006161497E+01  0.53475839805E+02 -0.16956833757E+02  0.56378777525E+02  0.00000000000E+00 0.  1.
</event>
<event>
 7    1  0.2873461E-009  0.1032358E+03  0.7561462E-02  0.1273635E+00
         -1   -1    0    0    0  501 -0.00000000000E+00  0.00000000000E+00  0.24298463485E+02  0.24298463485E+02  0.00000000000E+00 0.  1.
          1   -1    0    0  501    0  0.00000000000E+00 -0.00000000000E+00 -0.72289381691E+03  0.72289381691E+03  0.00000000000E+00 0. -1.
         25    2    1    2    0    0 -0.15547214409E+02  0.44729032775E+02 -0.55264333126E+03  0.56859930545E+03  0.12509243112E+03 0.  0.
          5    1    3    3  502    0 -0.57643735791E+02 -0.69103065225E+00 -0.39449607553E+03  0.39870779250E+03  0.41800000000E+01 0.  1.
         -5    1    3    3    0  502  0.42096521382E+02  0.45420063427E+02 -0.15814725574E+03  0.16989151295E+03  0.41800000000E+01 0.  1.
        -11    1    1    2    0    0 -0.27551378070E+02 -0.30766160615E+02 -0.22369982297E+02  0.46968619103E+02  0.00000000000E+00 0.  1.
         11    1    1    2    0    0  0.43098592479E+02 -0.13962872160E+02 -0.12358203987E+03  0.13162435584E+03  0.00000000000E+00 0. -1.
</event>
<event>
 7    1  0.2873461E-009  0.1580788E+03  0.7561462E-02  0.1190883E+00
         -2   -1    0    0    0  501 -0.00000000000E+00  0.00000000000E+00  0.88411198844E+02  0.88411198844E+02  0.00000000000E+00 0.  1.
          2   -1    0    0  501    0  0.00000000000E+00 -0.00000000000E+00 -0.31483346269E+03  0.31483346269E+03  0.00000000000E+00 0. -1.
         25    2    1    2    0    0  0.10012519318E+03 -0.69586752101E+02 -0.11908919873E+03  0.21141873654E+03  0.12509306347E+03 0.  0.
          5    1    3    3  502    0  0.12907299349E+03 -0.64977830814E+02 -0.92525180559E+02  0.17164013978E+03  0.41800000000E+01 0.  1.
         -5    1    3    3    0  502 -0.28947800316E+02 -0.46089212871E+01 -0.26564018166E+02  0.39778596754E+02  0.41800000000E+01 0.  1.
        -11    1    1    2    0    0 -0.10397816743E+03  0.38840613621E+02 -0.40490812954E+02  0.11815057555E+03  0.00000000000E+00 0.  1.
         11    1    1    2    0    0  0.38529742531E+01  0.30746138480E+02 -0.66842252170E+02  0.73675349455E+02  0.00000000000E+00 0. -1.
</event>
<event>
 7    1  0.2873461E-009  0.9757801E+02  0.7561462E-02  0.1285473E+00
         -2   -1    0    0    0  501 -0.00000000000E+00  0.00000000000E+00  0.50107017479E+03  0.50107017479E+03  0.00000000000E+00 0.  1.
          2   -1    0    0  501    0  0.00000000000E+00 -0.00000000000E+00 -0.42899506445E+02  0.42899506445E+02  0.00000000000E+00 0. -1.
         25    2    1    2    0    0  0.20139213704E+02 -0.35707125172E+02  0.41610433749E+03  0.43643071503E+03  0.12509341559E+03 0.  0.
          5    1    3    3  502    0  0.52755811340E+02 -0.84019005544E+01  0.72364305474E+02  0.90043504318E+02  0.41800000000E+01 0. -1.
         -5    1    3    3    0  502 -0.32616597637E+02 -0.27305224617E+02  0.34374003202E+03  0.34638721071E+03  0.41800000000E+01 0. -1.
        -11    1    1    2    0    0  0.30677695324E+02 -0.81091045460E+01  0.10857105540E+02  0.33537371805E+02  0.00000000000E+00 0.  1.
         11    1    1    2    0    0 -0.50816909027E+02  0.43816229718E+02  0.31209225320E+02  0.74001594407E+02  0.00000000000E+00 0. -1.
</event>
<event>
 7    1  0.2896319E-009  0.9965689E+02  0.7561462E-02  0.1281019E+00
          2   -1    0    0  501    0  0.00000000000E+00  0.00000000000E+00  0.92818833951E+03  0.92818833951E+03  0.00000000000E+00 0. -1.
         -2   -1    0    0    0  501 -0.00000000000E+00 -0.00000000000E+00 -0.20514770603E+02  0.20514770603E+02  0.00000000000E+00 0.  1.
         25    2    1    2    0    0 -0.62074394567E+02 -0.55687387532E+02  0.53395894130E+03  0.55471959124E+03  0.12508940131E+03 0.  0.
          5    1    3    3  502    0 -0.39853032437E+02 -0.53955264131E+02  0.52660980380E+03  0.53088114732E+03  0.41800000000E+01 0. -1.
         -5    1    3    3    0  502 -0.22221362130E+02 -0.17321234005E+01  0.73491374942E+01  0.23838443915E+02  0.41800000000E+01 0. -1.
        -11    1    1    2    0    0  0.13458574718E+02  0.59176494602E+02  0.10842600504E+03  0.12425453439E+03  0.00000000000E+00 0.  1.
         11    1    1    2    0    0  0.48615819849E+02 -0.34891070704E+01  0.26528862257E+03  0.26972898449E+03  0.00000000000E+00 0. -1.
</event>
<event>
 7    1  0.2873461E-009  0.9036208E+02  0.7561462E-02  0.1301977E+00
         -2   -1    0    0    0  501 -0.00000000000E+00  0.00000000000E+00  0.26116655709E+02  0.26116655709E+02  0.00000000000E+00 0.  1.
          2   -1    0    0  501    0  0.00000000000E+00 -0.00000000000E+00 -0.53482612122E+03  0.53482612122E+03  0.00000000000E+00 0. -1.
         25    2    1    2    0    0 -0.28034520372E+01 -0.37666342178E+02 -0.22499562243E+03  0.26018400612E+03  0.12508426861E+03 0.  0.
          5    1    3    3  502    0  0.23644028256E+02  0.19156612169E+02 -0.46581405968E+01  0.31067451388E+02  0.41800000000E+01 0.  1.
         -5    1    3    3    0  502 -0.26447480293E+02 -0.56822954347E+02 -0.22033748183E+03  0.22911655474E+03  0.41800000000E+01 0.  1.
        -11    1    1    2    0    0 -0.23135835213E+02 -0.15628777051E+02 -0.33446539916E+02  0.43568297826E+02  0.00000000000E+00 0.  1.
         11    1    1    2    0    0  0.25939287251E+02  0.53295119229E+02 -0.25026730317E+03  0.25719047298E+03  0.00000000000E+00 0. -1.
</event>
<event>
 7    1  0.2931908E-009  0.9682285E+02  0.7561462E-02  0.1287123E+00
         -2   -1    0    0    0  501 -0.00000000000E+00  0.00000000000E+00  0.49297925924E+02  0.49297925924E+02  0.00000000000E+00 0.  1.
          2   -1    0    0  501    0  0.00000000000E+00 -0.00000000000E+00 -0.28231159247E+03  0.28231159247E+03  0.00000000000E+00 0. -1.
         25    2    1    2    0    0  0.33555999357E+02  0.18296456454E+02 -0.93626011278E+02  0.16085563108E+03  0.12509172095E+03 0.  0.
          5    1    3    3  502    0  0.30470315795E+02 -0.43091411334E+02 -0.53547781581E+01  0.53211426635E+02  0.41800000000E+01 0. -1.
         -5    1    3    3    0  502  0.30856835619E+01  0.61387867788E+02 -0.88271233120E+02  0.10764420445E+03  0.41800000000E+01 0. -1.
        -11    1    1    2    0    0 -0.13952756748E+02 -0.44349545594E+02 -0.27068983341E+02  0.53798619632E+02  0.00000000000E+00 0.  1.
         11    1    1    2    0    0 -0.19603242610E+02  0.26053089139E+02 -0.11231867193E+03  0.11695526768E+03  0.00000000000E+00 0. -1.
</event>
<event>
 7    1  0.2873461E-009  0.1185081E+03  0.7561462E-02  0.1245579E+00
          1   -1    0    0  501    0  0.00000000000E+00  0.00000000000E+00  0.13150987152E+03  0.13150987152E+03  0.00000000000E+00 0. -1.
         -1   -1    0    0    0  501 -0.00000000000E+00 -0.00000000000E+00 -0.16506576179E+03  0.16506576179E+03  0.00000000000E+00 0.  1.
         25    2    1    2    0    0 -0.51949262694E+02 -0.13318786126E+02 -0.10228347200E+03  0.17024890274E+03  0.12508662711E+03 0.  0.
          5    1    3    3  502    0  0.32797230716E+02 -0.35183846513E+02 -0.32006178947E+02  0.57926067438E+02  0.41800000000E+01 0.  1.
         -5    1    3    3    0  502 -0.84746493410E+02  0.21865060387E+02 -0.70277293052E+02  0.11232283530E+03  0.41800000000E+01 0.  1.
        -11    1    1    2    0    0  0.21479628706E+02  0.49412303457E+02  0.55328290072E+02  0.77228038073E+02  0.00000000000E+00 0. -1.
         11    1    1    2    0    0  0.30469633988E+02 -0.36093517331E+02  0.13399291660E+02  0.49098692505E+02  0.00000000000E+00 0.  1.
</event>
<event>
 7    1  0.2873461E-009  0.7487518E+02  0.7561462E-02  0.1344258E+00
         -1   -1    0    0    0  501 -0.00000000000E+00  0.00000000000E+00  0.82103312595E+03  0.82103312595E+03  0.00000000000E+00 0.  1.
          1   -1    0    0  501    0  0.00000000000E+00 -0.00000000000E+00 -0.17406415383E+02  0.17406415383E+02  0.00000000000E+00 0. -1.
         25    2    1    2    0    0 -0.28319345338E+02  0.38313043862E+02  0.44414152550E+03  0.46387121323E+03  0.12507970714E+03 0.  0.
          5    1    3    3  502    0 -0.18973033130E+02  0.40967320434E+02  0.44966074582E+03  0.45194087673E+03  0.41800000000E+01 0.  1.
         -5    1    3    3    0  502 -0.93463122082E+01 -0.26542765720E+01 -0.55192203188E+01  0.11930336497E+02  0.41800000000E+01 0.  1.
        -11    1    1    2    0    0 -0.26231576704E+02 -0.27903654157E+02  0.69879613959E+02  0.79686071422E+02  0.00000000000E+00 0. -1.
         11    1    1    2    0    0  0.54550922042E+02 -0.10409389705E+02  0.28960557111E+03  0.29488225669E+03  0.00000000000E+00 0.  1.
</event>
<event>
 7    1  0.2873461E-009  0.9447835E+02  0.7561462E-02  0.1292355E+00
         -2   -1    0    0    0  501 -0.00000000000E+00  0.00000000000E+00  0.35992111959E+02  0.35992111959E+02  0.00000000000E+00 0.  1.
          2   -1    0    0  501    0  0.00000000000E+00 -0.00000000000E+00 -0.41769322385E+03  0.41769322385E+03  0.00000000000E+00 0. -1.
         25    2    1    2    0    0  0.48181185356E+02 -0.12427085464E+02 -0.24835264394E+03  0.28249390206E+03  0.12509160593E+03 0.  0.
          5    1    3    3  502    0  0.54563426559E+02  0.23471483473E+02 -0.41910944537E+02  0.72815367378E+02  0.41800000000E+01 0.  1.
         -5    1    3    3    0  502 -0.63822412037E+01 -0.35898568937E+02 -0.20644169941E+03  0.20967853469E+03  0.41800000000E+01 0.  1.
        -11    1    1    2    0    0 -0.55082783264E+02  0.37546084160E+02 -0.48511308760E+02  0.82444942388E+02  0.00000000000E+00 0.  1.
         11    1    1    2    0    0  0.69015979082E+01 -0.25118998696E+02 -0.84837159191E+02  0.88746491361E+02  0.00000000000E+00 0. -1.
</event>
<event>
 7    1  0.2873461E-009  0.2295127E+03  0.7561462E-02  0.1126983E+00
         -2   -1    0    0    0  501 -0.00000000000E+00  0.00000000000E+00  0.44847999022E+02  0.44847999022E+02  0.00000000000E+00 0.  1.
          2   -1    0    0  501    0  0.00000000000E+00 -0.00000000000E+00 -0.13797415422E+04  0.13797415422E+04  0.00000000000E+00 0. -1.
         25    2    1    2    0    0  0.11391928237E+03 -0.19058213521E+03 -0.74531072983E+03  0.78767429951E+03  0.12507423775E+03 0.  0.
          5    1    3    3  502    0  0.80605213532E+02 -0.10400107088E+03 -0.60678784092E+03  0.62090448499E+03  0.41800000000E+01 0.  1.
         -5    1    3    3    0  502  0.33314068841E+02 -0.86581064327E+02 -0.13852288892E+03  0.16676981453E+03  0.41800000000E+01 0.  1.
        -11    1    1    2    0    0  0.72476607499E+00  0.62950141749E+02 -0.23067489549E+03  0.23911117297E+03  0.00000000000E+00 0.  1.
         11    1    1    2    0    0 -0.11464404845E+03  0.12763199346E+03 -0.35890791781E+03  0.39780406869E+03  0.00000000000E+00 0. -1.
</event>
<event>
 7    1  0.2873461E-009  0.7278478E+02  0.7561462E-02  0.1350871E+00
         -2   -1    0    0    0  501 -0.00000000000E+00  0.00000000000E+00  0.52500907307E+02  0.52500907307E+02  0.00000000000E+00 0.  1.
          2   -1    0    0  501    0  0.00000000000E+00 -0.00000000000E+00 -0.24568293292E+03  0.24568293292E+03  0.00000000000E+00 0. -1.
         25    2    1    2    0    0  0.31092261677E+02 -0.12078536026E+02 -0.13714865869E+03  0.18860011624E+03  0.12509048523E+03 0.  0.
          5    1    3    3  502    0  0.20346616988E+02  0.15005502322E+02 -0.15302488022E+03  0.15515552291E+03  0.41800000000E+01 0. -1.
         -5    1    3    3    0  502  0.10745644689E+02 -0.27084038348E+02  0.15876221528E+02  0.33444593330E+02  0.41800000000E+01 0. -1.
        -11    1    1    2    0    0 -0.46603585743E+02  0.38112982524E+02 -0.50920504043E+02  0.78850436734E+02  0.00000000000E+00 0.  1.
         11    1    1    2    0    0  0.15511324067E+02 -0.26034446498E+02 -0.51128628782E+01  0.30733287256E+02  0.00000000000E+00 0. -1.
</event>
<event>
 7    1  0.2873461E-009  0.9807022E+02  0.7561462E-02  0.1284407E+00
         -1   -1    0    0    0  501 -0.00000000000E+00  0.00000000000E+00  0.18568436297E+03  0.18568436297E+03  0.00000000000E+00 0.  1.
          1   -1    0    0  501    0  0.00000000000E+00 -0.00000000000E+00 -0.92315521554E+02  0.92315521554E+02  0.00000000000E+00 0. -1.
         25    2    1    2    0    0 -0.22139004412E+02 -0.26280761151E+02 -0.16292575313E+02  0.13074268702E+03  0.12508952105E+03 0.  0.
          5    1    3    3  502    0 -0.47496057515E+02  0.34289149971E+02 -0.26012964745E+02  0.64232141643E+02  0.41800000000E+01 0.  1.
         -5    1    3    3    0  502  0.25357053103E+02 -0.60569911122E+02  0.97203894315E+01  0.66510545375E+02  0.41800000000E+01 0.  1.
        -11    1    1    2    0    0 -0.61674244056E+01 -0.18018261462E+02 -0.61988856611E+01  0.20028006724E+02  0.00000000000E+00 0. -1.
         11    1    1    2    0    0  0.28306428818E+02  0.44299022613E+02  0.11586030239E+03  0.12722919078E+03  0.00000000000E+00 0.  1.
</event>
<event>
 7    1  0.2919265E-009  0.1562866E+03  0.7561462E-02  0.1192954E+00
         -2   -1    0    0    0  501 -0.00000000000E+00  0.00000000000E+00  0.13216879806E+02  0.13216879806E+02  0.00000000000E+00 0.  1.
          2   -1    0    0  501    0  0.00000000000E+00 -0.00000000000E+00 -0.27518122244E+04  0.27518122244E+04  0.00000000000E+00 0. -1.
         25    2    1    2    0    0 -0.10444465458E+03  0.46609534438E+02 -0.22102709646E+04  0.22167602331E+04  0.12508820721E+03 0.  0.
          5    1    3    3  502    0 -0.76581027297E+02  0.87924799469E+02 -0.17174430664E+04  0.17214016332E+04  0.41800000000E+01 0.  1.
         -5    1    3    3    0  502 -0.27863627284E+02 -0.41315265030E+02 -0.49282789822E+03  0.49535859992E+03  0.41800000000E+01 0.  1.
        -11    1    1    2    0    0  0.15773360317E+02 -0.54626257940E+02 -0.23143504488E+03  0.23831703034E+03  0.00000000000E+00 0.  1.
         11    1    1    2    0    0  0.88671294263E+02  0.80167235022E+01 -0.29688933513E+03  0.30995184077E+03  0.00000000000E+00 0. -1.
</event>
<event>
 7    1  0.2873461E-009  0.1224090E+03  0.7561462E-02  0.1239175E+00
          3   -1    0    0  501    0  0.00000000000E+00  0.00000000000E+00  0.43301395575E+02  0.43301395575E+02  0.00000000000E+00 0. -1.
         -3   -1    0    0    0  501 -0.00000000000E+00 -0.00000000000E+00 -0.40446697357E+03  0.40446697357E+03  0.00000000000E+00 0.  1.
         25    2    1    2    0    0  0.45554940335E+02  0.51176299551E+02 -0.25237629173E+03  0.28988960939E+03  0.12509167351E+03 0.  0.
          5    1    3    3  502    0  0.27170175344E+02 -0.34046641294E+02 -0.36318709013E+02  0.56867505976E+02  0.41800000000E+01 0.  1.
         -5    1    3    3    0  502  0.18384764991E+02  0.85222940845E+02 -0.21605758271E+03  0.23302210341E+03  0.41800000000E+01 0.  1.
        -11    1    1    2    0    0 -0.72101063257E+02 -0.24522787868E+02 -0.80458842843E+02  0.11078608143E+03  0.00000000000E+00 0.  1.
         11    1    1    2    0    0  0.26546122922E+02 -0.26653511683E+02 -0.28330443429E+02  0.47092678328E+02  0.00000000000E+00 0. -1.
</event>
<event>
 7    1  0.2873461E-009  0.9152370E+02  0.7561462E-02  0.1299203E+00
          1   -1    0    0  501    0  0.00000000000E+00  0.00000000000E+00  0.76051894350E+02  0.76051894350E+02  0.00000000000E+00 0. -1.
         -1   -1    0    0    0  501 -0.00000000000E+00 -0.00000000000E+00 -0.14470723115E+03  0.14470723115E+03  0.00000000000E+00 0.  1.
         25    2    1    2    0    0  0.47228874369E+00  0.24898089311E+01 -0.45410172036E+02  0.13309855002E+03  0.12508684218E+03 0.  0.
          5    1    3    3  502    0 -0.58452925132E+02  0.18251706292E+02 -0.36228506244E+02  0.71273040512E+02  0.41800000000E+01 0. -1.
         -5    1    3    3    0  502  0.58925213876E+02 -0.15761897361E+02 -0.91816657922E+01  0.61825509504E+02  0.41800000000E+01 0. -1.
        -11    1    1    2    0    0 -0.28368690095E+02 -0.12351006449E+02 -0.42344090864E+02  0.52443798195E+02  0.00000000000E+00 0.  1.
         11    1    1    2    0    0  0.27896401351E+02  0.98611975180E+01  0.19098926097E+02  0.35216777293E+02  0.00000000000E+00 0. -1.
</event>
<event>
 7    1  0.2873461E-009  0.1565156E+03  0.7561462E-02  0.1192688E+00
          1   -1    0    0  501    0  0.00000000000E+00  0.00000000000E+00  0.38688908233E+03  0.38688908233E+03  0.00000000000E+00 0. -1.
         -1   -1    0    0    0  501 -0.00000000000E+00 -0.00000000000E+00 -0.71333359513E+02  0.71333359513E+02  0.00000000000E+00 0.  1.
         25    2    1    2    0    0  0.73823863122E+02 -0.90191582571E+02  0.99743432255E+02  0.19794066251E+03  0.12508904533E+03 0.  0.
          5    1    3    3  502    0 -0.26156086975E+01 -0.93156179757E+02  0.65734997161E+02  0.11412045166E+03  0.41800000000E+01 0. -1.
         -5    1    3    3    0  502  0.76439471819E+02  0.29645971855E+01  0.34008435094E+02  0.83820210845E+02  0.41800000000E+01 0. -1.
        -11    1    1    2    0    0  0.14959858365E+02  0.36329430664E+02  0.81782792638E+02  0.90730645684E+02  0.00000000000E+00 0.  1.
         11    1    1    2    0    0 -0.88783721487E+02  0.53862151908E+02  0.13402949793E+03  0.16955113366E+03  0.00000000000E+00 0. -1.
</event>
<event>
 7    1  0.2873461E-009  0.1474281E+03  0.7561462E-02  0.1203669E+00
         -2   -1    0    0    0  501 -0.00000000000E+00  0.00000000000E+00  0.69672481569E+02  0.69672481569E+02  0.00000000000E+00 0. -1.
          2   -1    0    0  501    0  0.00000000000E+00 -0.00000000000E+00 -0.43368559926E+03  0.43368559926E+03  0.00000000000E+00 0.  1.
         25    2    1    2    0    0 -0.12390277945E+03 -0.48246115368E+02 -0.22825049077E+03  0.29227612508E+03  0.12508980915E+03 0.  0.
          5    1    3    3  502    0 -0.85340191860E+02 -0.35181597037E+02 -0.23339864304E+03  0.25102408668E+03  0.41800000000E+01 0. -1.
         -5    1    3    3    0  502 -0.38562587593E+02 -0.13064518331E+02  0.51481522728E+01  0.41252038409E+02  0.41800000000E+01 0. -1.
        -11    1    1    2    0    0  0.75101956526E+02  0.74774710706E+02 -0.85433265411E+02  0.13612642680E+03  0.00000000000E+00 0.  1.
         11    1    1    2    0    0  0.48800822927E+02 -0.26528595338E+02 -0.50329361508E+02  0.74955528941E+02  0.00000000000E+00 0. -1.
</event>
<event>
 7    1  0.2873461E-009  0.8184037E+02  0.7561462E-02  0.1323908E+00
          1   -1    0    0  501    0  0.00000000000E+00  0.00000000000E+00  0.94046666968E+02  0.94046666968E+02  0.00000000000E+00 0. -1.
         -1   -1    0    0    0  501 -0.00000000000E+00 -0.00000000000E+00 -0.15312144399E+03  0.15312144399E+03  0.00000000000E+00 0.  1.
         25    2    1    2    0    0 -0.11548859356E+02 -0.42227385633E+02  0.24779569988E+02  0.13482690904E+03  0.12509092717E+03 0.  0.
          5    1    3    3  502    0  0.34287464975E+02 -0.87500514285E+01  0.58629099094E+02  0.68607851701E+02  0.41800000000E+01 0.  1.
         -5    1    3    3    0  502 -0.45836324331E+02 -0.33477334204E+02 -0.33849529106E+02  0.66219057335E+02  0.41800000000E+01 0.  1.
        -11    1    1    2    0    0 -0.22661648339E+02  0.20850996472E+02 -0.53970856649E+02  0.62138295171E+02  0.00000000000E+00 0.  1.
         11    1    1    2    0    0  0.34210507695E+02  0.21376389161E+02 -0.29883490364E+02  0.50202906755E+02  0.00000000000E+00 0. -1.
</event>
<event>
 7    1  0.2873461E-009  0.1519593E+03  0.7561462E-02  0.1198086E+00
         -2   -1    0    0    0  501 -0.00000000000E+00  0.00000000000E+00  0.41168880962E+02  0.41168880962E+02  0.00000000000E+00 0.  1.
          2   -1    0    0  501    0  0.00000000000E+00 -0.00000000000E+00 -0.61600717025E+03  0.61600717025E+03  0.00000000000E+00 0. -1.
         25    2    1    2    0    0  0.10984640569E+03  0.11563152401E+02 -0.38827074416E+03  0.42261244235E+03  0.12508863388E+03 0.  0.
          5    1    3    3  502    0  0.21773895942E+02  0.58137967374E+02 -0.20151210014E+03  0.21089979776E+03  0.41800000000E+01 0. -1.
         -5    1    3    3    0  502  0.88072509745E+02 -0.46574814973E+02 -0.18675864402E+03  0.21171264459E+03  0.41800000000E+01 0. -1.
        -11    1    1    2    0    0 -0.29125921757E+02  0.37527311764E+02 -0.56761570886E+02  0.74016851972E+02  0.00000000000E+00 0.  1.
         11    1    1    2    0    0 -0.80720483930E+02 -0.49090464164E+02 -0.12980597424E+03  0.16054675689E+03  0.00000000000E+00 0. -1.
</event>
<event>
 7    1  0.2873461E-009  0.1307024E+03  0.7561462E-02  0.1226417E+00
          1   -1    0    0  501    0  0.00000000000E+00  0.00000000000E+00  0.36240016322E+02  0.36240016322E+02  0.00000000000E+00 0. -1.
         -1   -1    0    0    0  501 -0.00000000000E+00 -0.00000000000E+00 -0.66293264577E+03  0.66293264577E+03  0.00000000000E+00 0.  1.
         25    2    1    2    0    0 -0.29932755881E+02 -0.88854106966E+02 -0.46108726977E+03  0.48686765593E+03  0.12509045464E+03 0.  0.
          5    1    3    3  502    0 -0.61796583256E+02 -0.33975177636E+02 -0.11484375886E+03  0.13483208723E+03  0.41800000000E+01 0.  1.
         -5    1    3    3    0  502  0.31863827375E+02 -0.54878929330E+02 -0.34624351091E+03  0.35203556870E+03  0.41800000000E+01 0.  1.
        -11    1    1    2    0    0  0.53281019230E+02  0.89099277230E+02 -0.15525005259E+03  0.18676222060E+03  0.00000000000E+00 0.  1.
         11    1    1    2    0    0 -0.23348263349E+02 -0.24517026415E+00 -0.10355307089E+02  0.25542785572E+02  0.00000000000E+00 0. -1.
</event>
<event>
 7    1  0.2873461E-009  0.2427382E+03  0.7561462E-02  0.1117982E+00
          2   -1    0    0  501    0  0.00000000000E+00  0.00000000000E+00  0.10038492755E+04  0.10038492755E+04  0.00000000000E+00 0. -1.
         -2   -1    0    0    0  501 -0.00000000000E+00 -0.00000000000E+00 -0.68244497554E+02  0.68244497554E+02  0.00000000000E+00 0.  1.
         25    2    1    2    0    0  0.22130283128E+03 -0.45018427028E+02  0.63394144343E+03  0.68449459011E+03  0.12509791479E+03 0.  0.
          5    1    3    3  502    0  0.41802810091E+02 -0.64846287535E+02  0.20432837070E+03  0.21844924219E+03  0.41800000000E+01 0.  1.
         -5    1    3    3    0  502  0.17950002119E+03  0.19827860507E+02  0.42961307273E+03  0.46604534792E+03  0.41800000000E+01 0.  1.
        -11    1    1    2    0    0 -0.19115766050E+03  0.48529583258E+02  0.29754431500E+03  0.35697197510E+03  0.00000000000E+00 0. -1.
         11    1    1    2    0    0 -0.30145170777E+02 -0.35111562302E+01  0.41190195305E+01  0.30627207857E+02  0.00000000000E+00 0.  1.
</event>
<event>
 7    1  0.2873461E-009  0.1420768E+03  0.7561462E-02  0.1210561E+00
          1   -1    0    0  501    0  0.00000000000E+00  0.00000000000E+00  0.15611715392E+04  0.15611715392E+04  0.00000000000E+00 0. -1.
         -1   -1    0    0    0  501 -0.00000000000E+00 -0.00000000000E+00 -0.14318871004E+02  0.14318871004E+02  0.00000000000E+00 0.  1.
         25    2    1    2    0    0 -0.55514540524E+02 -0.80530594440E+02  0.99816516803E+03  0.10107167537E+04  0.12509041797E+03 0.  0.
          5    1    3    3  502    0  0.37207042960E+02 -0.70019148957E+01  0.17650781964E+03  0.18057096570E+03  0.41800000000E+01 0. -1.
         -5    1    3    3    0  502 -0.92721583485E+02 -0.73528679544E+02  0.82165734838E+03  0.83014578799E+03  0.41800000000E+01 0. -1.
        -11    1    1    2    0    0 -0.10322984327E+02  0.56703696717E+02  0.16567337741E+03  0.17541248875E+03  0.00000000000E+00 0.  1.
         11    1    1    2    0    0  0.65837524851E+02  0.23826897723E+02  0.38301412274E+03  0.38936116775E+03  0.00000000000E+00 0. -1.
</event>
<event>
 7    1  0.2873461E-009  0.1313617E+03  0.7561462E-02  0.1225449E+00
         -1   -1    0    0    0  501 -0.00000000000E+00  0.00000000000E+00  0.58362966084E+02  0.58362966084E+02  0.00000000000E+00 0.  1.
          1   -1    0    0  501    0  0.00000000000E+00 -0.00000000000E+00 -0.32103334733E+03  0.32103334733E+03  0.00000000000E+00 0. -1.
         25    2    1    2    0    0  0.73957741863E+02 -0.38648288889E+02 -0.13616754856E+03  0.20286083453E+03  0.12508988403E+03 0.  0.
          5    1    3    3  502    0  0.43314635112E+02  0.37472764170E+02 -0.94882890279E+02  0.11090807427E+03  0.41800000000E+01 0.  1.
         -5    1    3    3    0  502  0.30643106751E+02 -0.76121053059E+02 -0.41284658284E+02  0.91952760262E+02  0.41800000000E+01 0.  1.
        -11    1    1    2    0    0 -0.30797897605E+02 -0.29382858504E+02 -0.43973781099E+02  0.61200950115E+02  0.00000000000E+00 0.  1.
         11    1    1    2    0    0 -0.43159844258E+02  0.68031147393E+02 -0.82529051583E+02  0.11533452877E+03  0.00000000000E+00 0. -1.
</event>
<event>
 7    1  0.2873461E-009  0.2586399E+03  0.7561462E-02  0.1107963E+00
          1   -1    0    0  501    0  0.00000000000E+00  0.00000000000E+00  0.71420910306E+03  0.71420910306E+03  0.00000000000E+00 0. -1.
         -1   -1    0    0    0  501 -0.00000000000E+00 -0.00000000000E+00 -0.13605221148E+03  0.13605221148E+03  0.00000000000E+00 0.  1.
         25    2    1    2    0    0  0.24815913519E+02 -0.24452990676E+03  0.78988178251E+02  0.28687627103E+03  0.12509259654E+03 0.  0.
          5    1    3    3  502    0  0.60657252685E+02 -0.90769273488E+02  0.67719000221E+02  0.12853676013E+03  0.41800000000E+01 0. -1.
         -5    1    3    3    0  502 -0.35841339166E+02 -0.15376063328E+03  0.11269178030E+02  0.15833951090E+03  0.41800000000E+01 0. -1.
        -11    1    1    2    0    0 -0.38349556957E+02  0.16342316814E+03  0.40475769497E+03  0.43818559087E+03  0.00000000000E+00 0. -1.
         11    1    1    2    0    0  0.13533643438E+02  0.81106738623E+02  0.94411018358E+02  0.12519945264E+03  0.00000000000E+00 0.  1.
</event>
<event>
 7    1  0.2873461E-009  0.1157677E+03  0.7561462E-02  0.1250247E+00
          2   -1    0    0  501    0  0.00000000000E+00  0.00000000000E+00  0.85043044287E+03  0.85043044287E+03  0.00000000000E+00 0. -1.
         -2   -1    0    0    0  501 -0.00000000000E+00 -0.00000000000E+00 -0.23154573694E+02  0.23154573694E+02  0.00000000000E+00 0.  1.
         25    2    1    2    0    0  0.46480596352E+02  0.49386257121E+02  0.26664860891E+03  0.30224077092E+03  0.12509418350E+03 0.  0.
          5    1    3    3  502    0  0.24625006671E+02 -0.30199642781E+02  0.17282640873E+03  0.17721413412E+03  0.41800000000E+01 0. -1.
         -5    1    3    3    0  502  0.21855589681E+02  0.79585899902E+02  0.93822200176E+02  0.12502663680E+03  0.41800000000E+01 0. -1.
        -11    1    1    2    0    0  0.19263835515E+02 -0.38522975083E+02  0.19579099716E+03  0.20047251566E+03  0.00000000000E+00 0. -1.
         11    1    1    2    0    0 -0.65744431867E+02 -0.10863282038E+02  0.36483626311E+03  0.37087172998E+03  0.00000000000E+00 0.  1.
</event>
<event>
 7    1  0.2873461E-009  0.1302685E+03  0.7561462E-02  0.1227058E+00
         -1   -1    0    0    0  501 -0.00000000000E+00  0.00000000000E+00  0.20991813878E+03  0.20991813878E+03  0.00000000000E+00 0.  1.
          1   -1    0    0  501    0  0.00000000000E+00 -0.00000000000E+00 -0.12261129572E+03  0.12261129572E+03  0.00000000000E+00 0. -1.
         25    2    1    2    0    0 -0.80665519114E+02 -0.34775487230E+02 -0.32589374770E+02  0.15628657117E+03  0.12508862655E+03 0.  0.
          5    1    3    3  502    0 -0.10667049612E+03 -0.21975876024E+02 -0.52398006262E+02  0.12093203599E+03  0.41800000000E+01 0. -1.
         -5    1    3    3    0  502  0.26004977001E+02 -0.12799611206E+02  0.19808631492E+02  0.35354535175E+02  0.41800000000E+01 0. -1.
        -11    1    1    2    0    0  0.87139165181E+02  0.53634761343E+02  0.11804222385E+03  0.15621743931E+03  0.00000000000E+00 0.  1.
         11    1    1    2    0    0 -0.64736460673E+01 -0.18859274113E+02  0.18539939774E+01  0.20025424019E+02  0.00000000000E+00 0. -1.
</event>
<event>
 7    1  0.2873461E-009  0.8788823E+02  0.7561462E-02  0.1308048E+00
         -1   -1    0    0    0  501 -0.00000000000E+00  0.00000000000E+00  0.10713693360E+03  0.10713693360E+03  0.00000000000E+00 0.  1.
          1   -1    0    0  501    0  0.00000000000E+00 -0.00000000000E+00 -0.13266950839E+03  0.13266950839E+03  0.00000000000E+00 0. -1.
         25    2    1    2    0    0  0.38984418324E+02 -0.81786911844E+01  0.18475206140E+02  0.13257401956E+03  0.12509141281E+03 0.  0.
          5    1    3    3  502    0  0.35510371244E+02  0.45825979359E+02  0.43701565354E+02  0.72720740264E+02  0.41800000000E+01 0. -1.
         -5    1    3    3    0  502  0.34740470795E+01 -0.54004670543E+02 -0.25226359214E+02  0.59853279299E+02  0.41800000000E+01 0. -1.
        -11    1    1    2    0    0 -0.15154120896E+02 -0.20876322261E+02 -0.60820514096E+02  0.66065143201E+02  0.00000000000E+00 0. -1.
         11    1    1    2    0    0 -0.23830297428E+02  0.29055013445E+02  0.16812733167E+02  0.41167279219E+02  0.00000000000E+00 0.  1.
</event>
<event>
 7    1  0.2873461E-009  0.6931227E+02  0.7561462E-02  0.1362447E+00
         -2   -1    0    0    0  501 -0.00000000000E+00  0.00000000000E+00  0.94489995460E+02  0.94489995460E+02  0.00000000000E+00 0. -1.
          2   -1    0    0  501    0  0.00000000000E+00 -0.00000000000E+00 -0.16382821147E+03  0.16382821147E+03  0.00000000000E+00 0.  1.
         25    2    1    2    0    0  0.26944732985E+02 -0.39317685145E+02 -0.80746533051E+02  0.15633066591E+03  0.12508946999E+03 0.  0.
          5    1    3    3  502    0  0.25441836238E+02 -0.22454374469E+02  0.29229059869E+02  0.44981066069E+02  0.41800000000E+01 0. -1.
         -5    1    3    3    0  502  0.15028967474E+01 -0.16863310676E+02 -0.10997559292E+03  0.11134959984E+03  0.41800000000E+01 0. -1.
        -11    1    1    2    0    0  0.24098970099E+02  0.28571392546E+01 -0.20356548955E+02  0.31675111521E+02  0.00000000000E+00 0.  1.
         11    1    1    2    0    0 -0.51043703084E+02  0.36460545890E+02  0.31764865995E+02  0.70312429504E+02  0.00000000000E+00 0. -1.
</event>
<event>
 7    1  0.2873461E-009  0.1506959E+03  0.7561462E-02  0.1199620E+00
         -1   -1    0    0    0  501 -0.00000000000E+00  0.00000000000E+00  0.36537941539E+02  0.36537941539E+02  0.00000000000E+00 0.  1.
          1   -1    0    0  501    0  0.00000000000E+00 -0.00000000000E+00 -0.88029359094E+03  0.88029359094E+03  0.00000000000E+00 0. -1.
         25    2    1    2    0    0 -0.83249415351E+02  0.96119534420E+02 -0.61117378090E+03  0.63667087575E+03  0.12508790312E+03 0.  0.
          5    1    3    3  502    0 -0.97666628057E+02  0.81543831823E+02 -0.59917986998E+03  0.61255379823E+03  0.41800000000E+01 0. -1.
         -5    1    3    3    0  502  0.14417212706E+02  0.14575702598E+02 -0.11993910924E+02  0.24117077511E+02  0.41800000000E+01 0. -1.
        -11    1    1    2    0    0 -0.12137351429E+02 -0.41523644318E+02 -0.42823475581E+02  0.60871819407E+02  0.00000000000E+00 0.  1.
         11    1    1    2    0    0  0.95386766780E+02 -0.54595890103E+02 -0.18975839292E+03  0.21928883733E+03  0.00000000000E+00 0. -1.
</event>
<event>
 7    1  0.2873461E-009  0.1031513E+03  0.7561462E-02  0.1273805E+00
         -2   -1    0    0    0  501 -0.00000000000E+00  0.00000000000E+00  0.69386489746E+02  0.69386489746E+02  0.00000000000E+00 0.  1.
          2   -1    0    0  501    0  0.00000000000E+00 -0.00000000000E+00 -0.31819396266E+03  0.31819396266E+03  0.00000000000E+00 0. -1.
         25    2    1    2    0    0  0.27351884924E+02 -0.26431645520E+02 -0.25531759038E+03  0.28684828736E+03  0.12509240787E+03 0.  0.
          5    1    3    3  502    0  0.68413004342E+01  0.38133070605E+02 -0.23968015809E+02  0.45747925060E+02  0.41800000000E+01 0. -1.
         -5    1    3    3    0  502  0.20510584490E+02 -0.64564716125E+02 -0.23134957457E+03  0.24110036230E+03  0.41800000000E+01 0. -1.
        -11    1    1    2    0    0 -0.41082908710E+01  0.59169875201E+02 -0.32883278736E+01  0.59403411395E+02  0.00000000000E+00 0. -1.
         11    1    1    2    0    0 -0.23243594053E+02 -0.32738229681E+02  0.97984453452E+01  0.41328753651E+02  0.00000000000E+00 0.  1.
</event>
<event>
 7    1  0.2873461E-009  0.1244100E+03  0.7561462E-02  0.1235994E+00
          1   -1    0    0  501    0  0.00000000000E+00  0.00000000000E+00  0.64583894688E+03  0.64583894688E+03  0.00000000000E+00 0. -1.
         -1   -1    0    0    0  501 -0.00000000000E+00 -0.00000000000E+00 -0.52120883509E+02  0.52120883509E+02  0.00000000000E+00 0.  1.
         25    2    1    2    0    0 -0.11189064579E+02  0.11367089038E+03  0.48818695549E+03  0.51673951467E+03  0.12508779328E+03 0.  0.
          5    1    3    3  502    0 -0.12045126659E+02  0.32470450483E+02  0.17400893313E+02  0.38983056818E+02  0.41800000000E+01 0.  1.
         -5    1    3    3    0  502  0.85606207993E+00  0.81200439897E+02  0.47078606217E+03  0.47775645785E+03  0.41800000000E+01 0.  1.
        -11    1    1    2    0    0  0.39224951555E+02 -0.54511651911E+02  0.13859531974E+02  0.68572615854E+02  0.00000000000E+00 0.  1.
         11    1    1    2    0    0 -0.28035886976E+02 -0.59159238470E+02  0.91671575905E+02  0.11264769986E+03  0.00000000000E+00 0. -1.
</event>
<event>
 7    1  0.2873461E-009  0.1655146E+03  0.7561462E-02  0.1182608E+00
         -1   -1    0    0    0  501 -0.00000000000E+00  0.00000000000E+00  0.38141135571E+03  0.38141135571E+03  0.00000000000E+00 0.  1.
          1   -1    0    0  501    0  0.00000000000E+00 -0.00000000000E+00 -0.84075781133E+02  0.84075781133E+02  0.00000000000E+00 0. -1.
         25    2    1    2    0    0  0.10361139862E+02 -0.13672172093E+03  0.21058634502E+03  0.28070332251E+03  0.12509022491E+03 0.  0.
          5    1    3    3  502    0  0.65654094039E+02 -0.96937089283E+02  0.12669548655E+03  0.17255862208E+03  0.41800000000E+01 0. -1.
         -5    1    3    3    0  502 -0.55292954178E+02 -0.39784631649E+02  0.83890858465E+02  0.10814470043E+03  0.41800000000E+01 0. -1.
        -11    1    1    2    0    0 -0.30254873318E+02  0.83360864192E+02  0.91766569917E+02  0.12761463236E+03  0.00000000000E+00 0.  1.
         11    1    1    2    0    0  0.19893733456E+02  0.53360856740E+02 -0.50173403558E+01  0.57169181970E+02  0.00000000000E+00 0. -1.
</event>
<event>
 7    1  0.2873461E-009  0.1424478E+03  0.7561462E-02  0.1210073E+00
         -1   -1    0    0    0  501 -0.00000000000E+00  0.00000000000E+00  0.51024181554E+02  0.51024181554E+02  0.00000000000E+00 0.  1.
          1   -1    0    0  501    0  0.00000000000E+00 -0.00000000000E+00 -0.50003993010E+03  0.50003993010E+03  0.00000000000E+00 0. -1.
         25    2    1    2    0    0 -0.14522318348E+02 -0.11395929088E+03 -0.28509577759E+03  0.33185606278E+03  0.12510486120E+03 0.  0.
          5    1    3    3  502    0 -0.47529237338E+02  0.32453680454E+01 -0.73418640756E+02  0.87620374492E+02  0.41800000000E+01 0. -1.
         -5    1    3    3    0  502  0.33006918990E+02 -0.11720465892E+03 -0.21167713684E+03  0.24423568829E+03  0.41800000000E+01 0. -1.
        -11    1    1    2    0    0  0.38606144999E+01  0.65745261196E+02 -0.15582406257E+03  0.16916998017E+03  0.00000000000E+00 0. -1.
         11    1    1    2    0    0  0.10661703848E+02  0.48214029680E+02 -0.80959083780E+01  0.50038068702E+02  0.00000000000E+00 0.  1.
</event>
<event>
 7    1  0.2873461E-009  0.1102553E+03  0.7561462E-02  0.1260098E+00
          2   -1    0    0  501    0  0.00000000000E+00  0.00000000000E+00  0.22861902711E+03  0.22861902711E+03  0.00000000000E+00 0. -1.
         -2   -1    0    0    0  501 -0.00000000000E+00 -0.00000000000E+00 -0.70538585995E+02  0.70538585995E+02  0.00000000000E+00 0.  1.
         25    2    1    2    0    0  0.38932887248E+02  0.11919381876E+01  0.15206824573E+03  0.20072272996E+03  0.12509065727E+03 0.  0.
          5    1    3    3  502    0  0.80920381064E+02  0.21986161081E+02  0.98959013240E+02  0.12977618446E+03  0.41800000000E+01 0.  1.
         -5    1    3    3    0  502 -0.41987493816E+02 -0.20794222893E+02  0.53109232493E+02  0.70946545502E+02  0.41800000000E+01 0.  1.
        -11    1    1    2    0    0  0.24297757564E+02 -0.87625845330E+01 -0.16774645594E+02  0.30798581869E+02  0.00000000000E+00 0.  1.
         11    1    1    2    0    0 -0.63230644811E+02  0.75706463454E+01  0.22786840981E+02  0.67636301283E+02  0.00000000000E+00 0. -1.
</event>
<event>
 7    1  0.2873461E-009  0.9711432E+02  0.7561462E-02  0.1286484E+00
         -1   -1    0    0    0  501 -0.00000000000E+00  0.00000000000E+00  0.58827505207E+02  0.58827505207E+02  0.00000000000E+00 0.  1.
          1   -1    0    0  501    0  0.00000000000E+00 -0.00000000000E+00 -0.20548354961E+03  0.20548354961E+03  0.00000000000E+00 0. -1.
         25    2    1    2    0    0 -0.13117252507E+02 -0.20620336819E+01 -0.99365961871E+02  0.16029797542E+03  0.12508210203E+03 0.  0.
          5    1    3    3  502    0  0.12282946447E+02 -0.56041340862E+02 -0.19953780951E+02  0.60886192468E+02  0.41800000000E+01 0. -1.
         -5    1    3    3    0  502 -0.25400198954E+02  0.53979307180E+02 -0.79412180920E+02  0.99411782949E+02  0.41800000000E+01 0. -1.
        -11    1    1    2    0    0 -0.56505669545E+01 -0.34949773998E+02  0.65825892966E+01  0.36010360887E+02  0.00000000000E+00 0.  1.
         11    1    1    2    0    0  0.18767819461E+02  0.37011807679E+02 -0.53872671828E+02  0.68002718511E+02  0.00000000000E+00 0. -1.
</event>
<event>
 7    1  0.2873461E-009  0.3070054E+03  0.7561462E-02  0.1081790E+00
         -1   -1    0    0    0  501 -0.00000000000E+00  0.00000000000E+00  0.20138910676E+03  0.20138910676E+03  0.00000000000E+00 0.  1.
          1   -1    0    0  501    0  0.00000000000E+00 -0.00000000000E+00 -0.57954633288E+03  0.57954633288E+03  0.00000000000E+00 0. -1.
         25    2    1    2    0    0 -0.21132344150E+03 -0.21804745542E+03 -0.63185198617E+02  0.33442942323E+03  0.12509348526E+03 0.  0.
          5    1    3    3  502    0 -0.12421970275E+03 -0.89691991874E+02  0.25980767516E+02  0.15545951446E+03  0.41800000000E+01 0. -1.
         -5    1    3    3    0  502 -0.87103738753E+02 -0.12835546354E+03 -0.89165966133E+02  0.17896990876E+03  0.41800000000E+01 0. -1.
        -11    1    1    2    0    0  0.19230663124E+03  0.18184727956E+03 -0.30611130572E+03  0.40466579419E+03  0.00000000000E+00 0. -1.
         11    1    1    2    0    0  0.19016810255E+02  0.36200175861E+02 -0.88607217918E+01  0.41840222218E+02  0.00000000000E+00 0.  1.
</event>
<event>
 7    1  0.2873461E-009  0.7686123E+02  0.7561462E-02  0.1338202E+00
          2   -1    0    0  501    0  0.00000000000E+00  0.00000000000E+00  0.25265307827E+03  0.25265307827E+03  0.00000000000E+00 0. -1.
         -2   -1    0    0    0  501 -0.00000000000E+00 -0.00000000000E+00 -0.48606962045E+02  0.48606962045E+02  0.00000000000E+00 0.  1.
         25    2    1    2    0    0 -0.11565986041E+02  0.19523633408E+02  0.10361025504E+03  0.16400513844E+03  0.12509059194E+03 0.  0.
          5    1    3    3  502    0 -0.68916517843E+01 -0.31993173311E+02 -0.13702982083E+02  0.35725370828E+02  0.41800000000E+01 0.  1.
         -5    1    3    3    0  502 -0.46743342565E+01  0.51516806719E+02  0.11731323712E+03  0.12827976761E+03  0.41800000000E+01 0.  1.
        -11    1    1    2    0    0 -0.25704064627E+02 -0.18280682027E+02  0.94334883828E+02  0.99468349642E+02  0.00000000000E+00 0. -1.
         11    1    1    2    0    0  0.37270050668E+02 -0.12429513812E+01  0.61009773622E+01  0.37786552234E+02  0.00000000000E+00 0.  1.
</event>
<event>
 7    1  0.2873461E-009  0.1261795E+03  0.7561462E-02  0.1233237E+00
         -2   -1    0    0    0  501 -0.00000000000E+00  0.00000000000E+00  0.13612115570E+03  0.13612115570E+03  0.00000000000E+00 0.  1.
          2   -1    0    0  501    0  0.00000000000E+00 -0.00000000000E+00 -0.30571544960E+03  0.30571544960E+03  0.00000000000E+00 0. -1.
         25    2    1    2    0    0  0.10733812779E+03 -0.34862960564E+02 -0.23449620349E+03  0.28874511022E+03  0.12509344319E+03 0.  0.
          5    1    3    3  502    0  0.12350551938E+02 -0.20666528058E+02 -0.17279498662E+03  0.17451424388E+03  0.41800000000E+01 0.  1.
         -5    1    3    3    0  502  0.94987575854E+02 -0.14196432506E+02 -0.61701216863E+02  0.11423086634E+03  0.41800000000E+01 0.  1.
        -11    1    1    2    0    0 -0.46964575430E+02  0.50966183755E+02  0.57724993284E+02  0.90196441623E+02  0.00000000000E+00 0.  1.
         11    1    1    2    0    0 -0.60373552362E+02 -0.16103223192E+02  0.71769162978E+01  0.62895053459E+02  0.00000000000E+00 0. -1.
</event>
<event>
 7    1  0.2873461E-009  0.2635285E+03  0.7561462E-02  0.1105042E+00
         -1   -1    0    0    0  501 -0.00000000000E+00  0.00000000000E+00  0.13001347594E+03  0.13001347594E+03  0.00000000000E+00 0.  1.
          1   -1    0    0  501    0  0.00000000000E+00 -0.00000000000E+00 -0.61299610604E+03  0.61299610604E+03  0.00000000000E+00 0. -1.
         25    2    1    2    0    0 -0.14667142668E+03  0.19484507036E+03 -0.12384500530E+03  0.30076863428E+03  0.12508827754E+03 0.  0.
          5    1    3    3  502    0 -0.60126023559E+02  0.41521961457E+01 -0.67102867826E+01  0.60785522870E+02  0.41800000000E+01 0.  1.
         -5    1    3    3    0  502 -0.86545403126E+02  0.19069287422E+03 -0.11713471852E+03  0.23998311141E+03  0.41800000000E+01 0.  1.
        -11    1    1    2    0    0  0.10470067856E+03 -0.71206293409E+02 -0.19503502490E+03  0.23253221121E+03  0.00000000000E+00 0. -1.
         11    1    1    2    0    0  0.41970748127E+02 -0.12363877695E+03 -0.16410259991E+03  0.20970873649E+03  0.00000000000E+00 0.  1.
</event>
<event>
 6    1  0.2873461E-009  0.1992159E+03  0.7561462E-02  0.1150402E+00
         -2   -1    0    0    0  501 -0.00000000000E+00  0.00000000000E+00  0.34461224348E+02  0.34461224348E+02  0.00000000000E+00 0.  1.
          2   -1    0    0  501    0  0.00000000000E+00 -0.00000000000E+00 -0.12356487921E+04  0.12356487921E+04  0.00000000000E+00 0. -1.
          5    1    1    2  502    0 -0.11162173415E+02  0.12115101290E+03 -0.28583810045E+03  0.31068159603E+03  0.41800000000E+01 0. -1.
         -5    1    1    2    0  502 -0.85547288086E+02  0.15515796352E+02 -0.18255773740E+03  0.20224707246E+03  0.41800000000E+01 0. -1.
        -11    1    1    2    0    0 -0.16969929866E+02 -0.25661616077E+02 -0.93048790013E+02  0.98002930477E+02  0.00000000000E+00 0.  1.
         11    1    1    2    0    0  0.11367939137E+03 -0.11100519318E+03 -0.63974293990E+03  0.65917841749E+03  0.00000000000E+00 0. -1.
</event>
<event>
 7    1  0.2873461E-009  0.1356929E+03  0.7561462E-02  0.1219245E+00
         -1   -1    0    0    0  501 -0.00000000000E+00  0.00000000000E+00  0.11969660699E+03  0.11969660699E+03  0.00000000000E+00 0.  1.
          1   -1    0    0  501    0  0.00000000000E+00 -0.00000000000E+00 -0.22790296243E+03  0.22790296243E+03  0.00000000000E+00 0. -1.
         25    2    1    2    0    0  0.85755356445E+02 -0.68181372561E+02 -0.11887928478E+03  0.20440742361E+03  0.12508968685E+03 0.  0.
          5    1    3    3  502    0  0.10791171612E+03 -0.75151338916E+02 -0.67512357230E+02  0.14787850755E+03  0.41800000000E+01 0. -1.
         -5    1    3    3    0  502 -0.22156359678E+02  0.69699663546E+01 -0.51366927546E+02  0.56528916058E+02  0.41800000000E+01 0. -1.
        -11    1    1    2    0    0 -0.23920610935E+02  0.43492417118E+02  0.46126199120E+02  0.67759960298E+02  0.00000000000E+00 0.  1.
         11    1    1    2    0    0 -0.61834745510E+02  0.24688955443E+02 -0.35453269787E+02  0.75432185516E+02  0.00000000000E+00 0. -1.
</event>
<event>
 7    1  0.2873461E-009  0.8657297E+02  0.7561462E-02  0.1311370E+00
         -2   -1    0    0    0  501 -0.00000000000E+00  0.00000000000E+00  0.30859763574E+03  0.30859763574E+03  0.00000000000E+00 0.  1.
          2   -1    0    0  501    0  0.00000000000E+00 -0.00000000000E+00 -0.41968681146E+02  0.41968681146E+02  0.00000000000E+00 0. -1.
         25    2    1    2    0    0  0.27182806356E+02 -0.38324598042E+01  0.11503441772E+03  0.17215349551E+03  0.12510122320E+03 0.  0.
          5    1    3    3  502    0 -0.25785451139E+02 -0.47925683525E+01 -0.15824963682E+02  0.30915369599E+02  0.41800000000E+01 0.  1.
         -5    1    3    3    0  502  0.52968257495E+02  0.96010854830E+00  0.13085938140E+03  0.14123812591E+03  0.41800000000E+01 0.  1.
        -11    1    1    2    0    0 -0.30097467258E+02  0.43925401296E+02  0.76038285046E+02  0.92828439646E+02  0.00000000000E+00 0. -1.
         11    1    1    2    0    0  0.29146609018E+01 -0.40092941492E+02  0.75556251830E+02  0.85584381731E+02  0.00000000000E+00 0.  1.
</event>
<event>
 7    1  0.2873461E-009  0.1089743E+03  0.7561462E-02  0.1262481E+00
         -4   -1    0    0    0  501 -0.00000000000E+00  0.00000000000E+00  0.41977678602E+03  0.41977678602E+03  0.00000000000E+00 0.  1.
          4   -1    0    0  501    0  0.00000000000E+00 -0.00000000000E+00 -0.33002234531E+02  0.33002234531E+02  0.00000000000E+00 0. -1.
         25    2    1    2    0    0  0.44453492513E+02 -0.51463270983E+01  0.23868342312E+03  0.27316604731E+03  0.12508922917E+03 0.  0.
          5    1    3    3  502    0  0.80247859987E+02 -0.21615549648E+02  0.20469651520E+03  0.22096399425E+03  0.41800000000E+01 0. -1.
         -5    1    3    3    0  502 -0.35794367473E+02  0.16469222550E+02  0.33986907917E+02  0.52202053062E+02  0.41800000000E+01 0. -1.
        -11    1    1    2    0    0 -0.68653248138E+02 -0.50806420926E+01  0.13181243899E+03  0.14870642379E+03  0.00000000000E+00 0.  1.
         11    1    1    2    0    0  0.24199755624E+02  0.10226969191E+02  0.16278689391E+02  0.30906549458E+02  0.00000000000E+00 0. -1.
</event>
<event>
 7    1  0.2873461E-009  0.1837794E+03  0.7561462E-02  0.1164195E+00
          2   -1    0    0  501    0  0.00000000000E+00  0.00000000000E+00  0.34125008230E+03  0.34125008230E+03  0.00000000000E+00 0. -1.
         -2   -1    0    0    0  501 -0.00000000000E+00 -0.00000000000E+00 -0.13684252364E+03  0.13684252364E+03  0.00000000000E+00 0.  1.
         25    2    1    2    0    0 -0.12273849006E+03 -0.13234715229E+03  0.15791897473E+03  0.27049808772E+03  0.12510118791E+03 0.  0.
          5    1    3    3  502    0 -0.11059504928E+03 -0.96801894980E+02  0.17538339198E+03  0.22886388614E+03  0.41800000000E+01 0.  1.
         -5    1    3    3    0  502 -0.12143440783E+02 -0.35545257308E+02 -0.17464417249E+02  0.41634201578E+02  0.41800000000E+01 0.  1.
        -11    1    1    2    0    0  0.23682560663E+02  0.44141830527E+02  0.55363098251E+02  0.74662155941E+02  0.00000000000E+00 0. -1.
         11    1    1    2    0    0  0.99055929397E+02  0.88205321762E+02 -0.88745143202E+01  0.13293236228E+03  0.00000000000E+00 0.  1.
</event>
<event>
 7    1  0.2873461E-009  0.1691006E+03  0.7561462E-02  0.1178789E+00
          1   -1    0    0  501    0  0.00000000000E+00  0.00000000000E+00  0.15520774059E+04  0.15520774059E+04  0.00000000000E+00 0. -1.
         -1   -1    0    0    0  501 -0.00000000000E+00 -0.00000000000E+00 -0.19247749744E+02  0.19247749744E+02  0.00000000000E+00 0.  1.
         25    2    1    2    0    0  0.36203557826E+02  0.12494285782E+03  0.77160556513E+03  0.79242842248E+03  0.12508493633E+03 0.  0.
          5    1    3    3  502    0  0.75195706536E+02  0.52865298630E+02  0.30195026720E+03  0.31565894624E+03  0.41800000000E+01 0.  1.
         -5    1    3    3    0  502 -0.38992148710E+02  0.72077559189E+02  0.46965529793E+03  0.47676947624E+03  0.41800000000E+01 0.  1.
        -11    1    1    2    0    0 -0.68342705016E+02 -0.57082619979E+02  0.37338485937E+03  0.38385596783E+03  0.00000000000E+00 0.  1.
         11    1    1    2    0    0  0.32139147190E+02 -0.67860237840E+02  0.38783923161E+03  0.39504076529E+03  0.00000000000E+00 0. -1.
</event>
<event>
 7    1  0.2873461E-009  0.1282960E+03  0.7561462E-02  0.1230006E+00
          1   -1    0    0  501    0  0.00000000000E+00  0.00000000000E+00  0.22930401208E+03  0.22930401208E+03  0.00000000000E+00 0. -1.
         -1   -1    0    0    0  501 -0.00000000000E+00 -0.00000000000E+00 -0.95558234542E+02  0.95558234542E+02  0.00000000000E+00 0.  1.
         25    2    1    2    0    0  0.58825070965E+02  0.83448185992E+02  0.57137917389E+02  0.17127577118E+03  0.12508660788E+03 0.  0.
          5    1    3    3  502    0 -0.28535277659E+02 -0.88459133191E+00  0.38878093610E+02  0.48415112678E+02  0.41800000000E+01 0. -1.
         -5    1    3    3    0  502  0.87360348624E+02  0.84332777324E+02  0.18259823779E+02  0.12286065850E+03  0.41800000000E+01 0. -1.
        -11    1    1    2    0    0 -0.61643752253E+02 -0.73630333538E+02  0.22640388663E+02  0.98660860566E+02  0.00000000000E+00 0.  1.
         11    1    1    2    0    0  0.28186812883E+01 -0.98178524534E+01  0.53967471484E+02  0.54925614875E+02  0.00000000000E+00 0. -1.
</event>
<event>
 7    1  0.2873461E-009  0.1134783E+03  0.7561462E-02  0.1254261E+00
          2   -1    0    0  501    0  0.00000000000E+00  0.00000000000E+00  0.41120160456E+03  0.41120160456E+03  0.00000000000E+00 0. -1.
         -2   -1    0    0    0  501 -0.00000000000E+00 -0.00000000000E+00 -0.45901653113E+02  0.45901653113E+02  0.00000000000E+00 0.  1.
         25    2    1    2    0    0 -0.35625178006E+02 -0.68407488978E+02  0.25379411893E+03  0.29327154174E+03  0.12509198429E+03 0.  0.
          5    1    3    3  502    0 -0.76260845626E+02 -0.28205192193E+02  0.19426283774E+03  0.21063421367E+03  0.41800000000E+01 0.  1.
         -5    1    3    3    0  502  0.40635667621E+02 -0.40202296785E+02  0.59531281195E+02  0.82637328070E+02  0.41800000000E+01 0.  1.
        -11    1    1    2    0    0  0.42569735480E+02  0.38091640605E+02  0.10416143399E+02  0.58065923795E+02  0.00000000000E+00 0.  1.
         11    1    1    2    0    0 -0.69445574744E+01  0.30315848373E+02  0.10108968911E+03  0.10576579214E+03  0.00000000000E+00 0. -1.
</event>
<event>
 7    1  0.2873461E-009  0.1090516E+03  0.7561462E-02  0.1262336E+00
         -3   -1    0    0    0  501 -0.00000000000E+00  0.00000000000E+00  0.11036675992E+03  0.11036675992E+03  0.00000000000E+00 0.  1.
          3   -1    0    0  501    0  0.00000000000E+00 -0.00000000000E+00 -0.11626572581E+03  0.11626572581E+03  0.00000000000E+00 0. -1.
         25    2    1    2    0    0 -0.24495665388E+02 -0.67997806883E+01 -0.29964170029E+02  0.13111875234E+03  0.12509197052E+03 0.  0.
          5    1    3    3  502    0  0.46954077002E+02  0.19625236199E+02 -0.16378694910E+02  0.53624334867E+02  0.41800000000E+01 0.  1.
         -5    1    3    3    0  502 -0.71449742390E+02 -0.26425016887E+02 -0.13585475119E+02  0.77494417472E+02  0.41800000000E+01 0.  1.
        -11    1    1    2    0    0  0.39899711078E+02  0.38535535120E+02  0.23471889131E+02  0.60232084394E+02  0.00000000000E+00 0.  1.
         11    1    1    2    0    0 -0.15404045689E+02 -0.31735754431E+02  0.59331500904E+00  0.35281648992E+02  0.00000000000E+00 0. -1.
</event>
<event>
 7    1  0.2873461E-009  0.2476272E+03  0.7561462E-02  0.1114814E+00
         -1   -1    0    0    0  501 -0.00000000000E+00  0.00000000000E+00  0.27845139121E+03  0.27845139121E+03  0.00000000000E+00 0.  1.
          1   -1    0    0  501    0  0.00000000000E+00 -0.00000000000E+00 -0.23099579357E+03  0.23099579357E+03  0.00000000000E+00 0. -1.
         25    2    1    2    0    0  0.22038800066E+03  0.58980500727E+02  0.56405599258E+01  0.26024751960E+03  0.12508950891E+03 0.  0.
          5    1    3    3  502    0 -0.29261553723E+01 -0.20404589823E+02 -0.87257726640E+01  0.22771060135E+02  0.41800000000E+01 0.  1.
         -5    1    3    3    0  502  0.22331415604E+03  0.79385090549E+02  0.14366332590E+02  0.23747645947E+03  0.41800000000E+01 0.  1.
        -11    1    1    2    0    0 -0.11120703121E+03 -0.63212111352E+02  0.54813169081E+02  0.13916629734E+03  0.00000000000E+00 0.  1.
         11    1    1    2    0    0 -0.10918096946E+03  0.42316106257E+01 -0.12998131366E+02  0.11003336784E+03  0.00000000000E+00 0. -1.
</event>
<event>
 7    1  0.2873461E-009  0.1791808E+03  0.7561462E-02  0.1168598E+00
         -4   -1    0    0    0  501 -0.00000000000E+00  0.00000000000E+00  0.60067125286E+02  0.60067125286E+02  0.00000000000E+00 0.  1.
          4   -1    0    0  501    0  0.00000000000E+00 -0.00000000000E+00 -0.55297365755E+03  0.55297365755E+03  0.00000000000E+00 0. -1.
         25    2    1    2    0    0 -0.24016318792E+02 -0.14797908504E+03 -0.26448255496E+03  0.32874964728E+03  0.12510281983E+03 0.  0.
          5    1    3    3  502    0 -0.62298897337E+02 -0.31838037820E+02 -0.70576116752E+02  0.99464938131E+02  0.41800000000E+01 0. -1.
         -5    1    3    3    0  502  0.38282578545E+02 -0.11614104722E+03 -0.19390643821E+03  0.22928470915E+03  0.41800000000E+01 0. -1.
        -11    1    1    2    0    0 -0.23917605592E+02  0.28669544865E+02 -0.30216987304E+02  0.48031874643E+02  0.00000000000E+00 0.  1.
         11    1    1    2    0    0  0.47933924384E+02  0.11930954017E+03 -0.19820699000E+03  0.23625926092E+03  0.00000000000E+00 0. -1.
</event>
<event>
 7    1  0.2873461E-009  0.1193045E+03  0.7561462E-02  0.1244249E+00
          1   -1    0    0  501    0  0.00000000000E+00  0.00000000000E+00  0.87738872211E+02  0.87738872211E+02  0.00000000000E+00 0. -1.
         -1   -1    0    0    0  501 -0.00000000000E+00 -0.00000000000E+00 -0.16776976408E+03  0.16776976408E+03  0.00000000000E+00 0.  1.
         25    2    1    2    0    0 -0.28486319939E+02  0.30155370898E+02 -0.23648525876E+02  0.13390100707E+03  0.12509760229E+03 0.  0.
          5    1    3    3  502    0  0.97507397154E+01  0.73130291464E+02 -0.17162086444E+02  0.75862547187E+02  0.41800000000E+01 0. -1.
         -5    1    3    3    0  502 -0.38237059655E+02 -0.42974920566E+02 -0.64864394317E+01  0.58038459880E+02  0.41800000000E+01 0. -1.
        -11    1    1    2    0    0 -0.28997167531E+02  0.16179560389E+02 -0.24079992867E+02  0.41017800473E+02  0.00000000000E+00 0.  1.
         11    1    1    2    0    0  0.57483487470E+02 -0.46334931286E+02 -0.32302373130E+02  0.80589828756E+02  0.00000000000E+00 0. -1.
</event>
<event>
 7    1  0.2873461E-009  0.9077785E+02  0.7561462E-02  0.1300979E+00
          2   -1    0    0  501    0  0.00000000000E+00  0.00000000000E+00  0.24932978830E+03  0.24932978830E+03  0.00000000000E+00 0. -1.
         -2   -1    0    0    0  501 -0.00000000000E+00 -0.00000000000E+00 -0.49993514397E+02  0.49993514397E+02  0.00000000000E+00 0.  1.
         25    2    1    2    0    0  0.16798779751E+02 -0.23916681319E+02  0.10641968170E+03  0.16681528006E+03  0.12509189567E+03 0.  0.
          5    1    3    3  502    0  0.59202446859E+02 -0.44340105816E+02  0.36918860737E+02  0.82773482323E+02  0.41800000000E+01 0.  1.
         -5    1    3    3    0  502 -0.42403667107E+02  0.20423424496E+02  0.69500820964E+02  0.84041797737E+02  0.41800000000E+01 0.  1.
        -11    1    1    2    0    0  0.16740216776E+02  0.20561305045E+02 -0.66965014576E+01  0.27346759491E+02  0.00000000000E+00 0.  1.
         11    1    1    2    0    0 -0.33538996528E+02  0.33553762741E+01  0.99613093662E+02  0.10516126315E+03  0.00000000000E+00 0. -1.
</event>
<event>
 7    1  0.2873461E-009  0.1327988E+03  0.7561462E-02  0.1223361E+00
          2   -1    0    0  501    0  0.00000000000E+00  0.00000000000E+00  0.10505728550E+04  0.10505728550E+04  0.00000000000E+00 0. -1.
         -2   -1    0    0    0  501 -0.00000000000E+00 -0.00000000000E+00 -0.26656765864E+02  0.26656765864E+02  0.00000000000E+00 0.  1.
         25    2    1    2    0    0  0.10148421895E+03 -0.43627865592E+02  0.74603468539E+03  0.76447217164E+03  0.12509001585E+03 0.  0.
          5    1    3    3  502    0  0.11747195573E+03 -0.56828903268E+02  0.71557899853E+03  0.72739257637E+03  0.41800000000E+01 0. -1.
         -5    1    3    3    0  502 -0.15987736787E+02  0.13201037676E+02  0.30455686861E+02  0.37079595271E+02  0.41800000000E+01 0. -1.
        -11    1    1    2    0    0 -0.28696592879E+02 -0.61872839473E+00  0.80653645549E+01  0.29814885093E+02  0.00000000000E+00 0.  1.
         11    1    1    2    0    0 -0.72787626067E+02  0.44246593987E+02  0.26981603916E+03  0.28294256409E+03  0.00000000000E+00 0. -1.
</event>
<event>
 7    1  0.2873461E-009  0.1024836E+03  0.7561462E-02  0.1275158E+00
         -2   -1    0    0    0  501 -0.00000000000E+00  0.00000000000E+00  0.11864545616E+03  0.11864545616E+03  0.00000000000E+00 0.  1.
          2   -1    0    0  501    0  0.00000000000E+00 -0.00000000000E+00 -0.13901810928E+03  0.13901810928E+03  0.00000000000E+00 0. -1.
         25    2    1    2    0    0  0.20716323696E+02 -0.10205867256E+02  0.55088759091E+02  0.13862279995E+03  0.12509269960E+03 0.  0.
          5    1    3    3  502    0 -0.30233254940E+02 -0.52552337110E+02  0.28317296678E+02  0.67045801741E+02  0.41800000000E+01 0. -1.
         -5    1    3    3    0  502  0.50949578636E+02  0.42346469854E+02  0.26771462414E+02  0.71576998205E+02  0.41800000000E+01 0. -1.
        -11    1    1    2    0    0  0.20101430293E+02 -0.18970713431E+02 -0.60770595622E+02  0.66760922404E+02  0.00000000000E+00 0. -1.
         11    1    1    2    0    0 -0.40817753989E+02  0.29176580686E+02 -0.14690816594E+02  0.52279843090E+02  0.00000000000E+00 0.  1.
</event>
<event>
 7    1  0.2873461E-009  0.1044116E+03  0.7561462E-02  0.1271283E+00
         -1   -1    0    0    0  501 -0.00000000000E+00  0.00000000000E+00  0.35375093412E+02  0.35375093412E+02  0.00000000000E+00 0.  1.
          1   -1    0    0  501    0  0.00000000000E+00 -0.00000000000E+00 -0.35076906800E+03  0.35076906800E+03  0.00000000000E+00 0. -1.
         25    2    1    2    0    0  0.18865050717E+02 -0.83437761046E+01 -0.20784737100E+03  0.24346884309E+03  0.12510411338E+03 0.  0.
          5    1    3    3  502    0 -0.37969383652E+02 -0.36309371756E+02 -0.47254857640E+02  0.70785157645E+02  0.41800000000E+01 0. -1.
         -5    1    3    3    0  502  0.56834434369E+02  0.27965595652E+02 -0.16059251336E+03  0.17268368544E+03  0.41800000000E+01 0. -1.
        -11    1    1    2    0    0 -0.25046875277E+02 -0.38205187869E+02 -0.42089199381E+02  0.62116688948E+02  0.00000000000E+00 0.  1.
         11    1    1    2    0    0  0.61818245602E+01  0.46548963974E+02 -0.65457404208E+02  0.80558629380E+02  0.00000000000E+00 0. -1.
</event>
<event>
 7    1  0.2873461E-009  0.1177506E+03  0.7561462E-02  0.1246855E+00
         -2   -1    0    0    0  501 -0.00000000000E+00  0.00000000000E+00  0.53861462764E+02  0.53861462764E+02  0.00000000000E+00 0. -1.
          2   -1    0    0  501    0  0.00000000000E+00 -0.00000000000E+00 -0.33538354982E+03  0.33538354982E+03  0.00000000000E+00 0.  1.
         25    2    1    2    0    0  0.64245095283E+02 -0.50243792631E+02 -0.14592319351E+03  0.20878815607E+03  0.12508814790E+03 0.  0.
          5    1    3    3  502    0 -0.20284526770E+02 -0.74949612921E+01  0.11627999662E+02  0.24906209009E+02  0.41800000000E+01 0. -1.
         -5    1    3    3    0  502  0.84529622053E+02 -0.42748831339E+02 -0.15755119317E+03  0.18388194706E+03  0.41800000000E+01 0. -1.
        -11    1    1    2    0    0 -0.84702146376E+02  0.29942584924E+02 -0.10885090960E+03  0.14113657397E+03  0.00000000000E+00 0.  1.
         11    1    1    2    0    0  0.20457051093E+02  0.20301207708E+02 -0.26747983950E+02  0.39320282542E+02  0.00000000000E+00 0. -1.
</event>
<event>
 7    1  0.2873461E-009  0.8099510E+02  0.7561462E-02  0.1326251E+00
         -2   -1    0    0    0  501 -0.00000000000E+00  0.00000000000E+00  0.15125463199E+03  0.15125463199E+03  0.00000000000E+00 0.  1.
          2   -1    0    0  501    0  0.00000000000E+00 -0.00000000000E+00 -0.79908728968E+02  0.79908728968E+02  0.00000000000E+00 0. -1.
         25    2    1    2    0    0  0.86893137709E+01  0.16711775768E+02  0.30484436969E+02  0.13012329692E+03  0.12509190174E+03 0.  0.
          5    1    3    3  502    0  0.44885395833E+02  0.45060309527E+02 -0.14822714352E+02  0.65439403379E+02  0.41800000000E+01 0. -1.
         -5    1    3    3    0  502 -0.36196082062E+02 -0.28348533759E+02  0.45307151322E+02  0.64683893542E+02  0.41800000000E+01 0. -1.
        -11    1    1    2    0    0 -0.26552539394E+02  0.14753769339E+01  0.62295354179E+02  0.67734225010E+02  0.00000000000E+00 0.  1.
         11    1    1    2    0    0  0.17863225623E+02 -0.18187152702E+02 -0.21433888127E+02  0.33305839027E+02  0.00000000000E+00 0. -1.
</event>
<event>
 7    1  0.2873461E-009  0.1448869E+03  0.7561462E-02  0.1206901E+00
         -1   -1    0    0    0  501 -0.00000000000E+00  0.00000000000E+00  0.30838574846E+02  0.30838574846E+02  0.00000000000E+00 0.  1.
          1   -1    0    0  501    0  0.00000000000E+00 -0.00000000000E+00 -0.95355789392E+03  0.95355789392E+03  0.00000000000E+00 0. -1.
         25    2    1    2    0    0 -0.43083904284E+02 -0.10872744610E+03 -0.67149479789E+03  0.69298648879E+03  0.12508848752E+03 0.  0.
          5    1    3    3  502    0 -0.56484550344E+01 -0.11491470850E+03 -0.33288368350E+03  0.35223048479E+03  0.41800000000E+01 0. -1.
         -5    1    3    3    0  502 -0.37435449249E+02  0.61872623977E+01 -0.33861111439E+03  0.34075600400E+03  0.41800000000E+01 0. -1.
        -11    1    1    2    0    0  0.51816838783E+02  0.35701380774E+02 -0.17277346559E+03  0.18387562042E+03  0.00000000000E+00 0. -1.
         11    1    1    2    0    0 -0.87329344991E+01  0.73026065326E+02 -0.78451055588E+02  0.10753435955E+03  0.00000000000E+00 0.  1.
</event>
<event>
 7    1  0.2873461E-009  0.9797635E+02  0.7561462E-02  0.1284610E+00
          2   -1    0    0  501    0  0.00000000000E+00  0.00000000000E+00  0.24817831729E+03  0.24817831729E+03  0.00000000000E+00 0. -1.
         -2   -1    0    0    0  501 -0.00000000000E+00 -0.00000000000E+00 -0.61223403207E+02  0.61223403207E+02  0.00000000000E+00 0.  1.
         25    2    1    2    0    0  0.49760292522E+02 -0.26987492650E+02  0.87409845356E+02  0.16276356038E+03  0.12508830501E+03 0.  0.
          5    1    3    3  502    0 -0.34277291290E+01 -0.36868753852E+02  0.10029647777E+03  0.10699490731E+03  0.41800000000E+01 0.  1.
         -5    1    3    3    0  502  0.53188021651E+02  0.98812612016E+01 -0.12886632413E+02  0.55768653068E+02  0.41800000000E+01 0.  1.
        -11    1    1    2    0    0  0.43645311918E+01 -0.27373440465E+02  0.11904942440E+02  0.30167565860E+02  0.00000000000E+00 0.  1.
         11    1    1    2    0    0 -0.54124823713E+02  0.54360933115E+02  0.87640126289E+02  0.11647059426E+03  0.00000000000E+00 0. -1.
</event>
<event>
 6    1  0.2873461E-009  0.1022709E+03  0.7561462E-02  0.1275592E+00
         -2   -1    0    0    0  501 -0.00000000000E+00  0.00000000000E+00  0.30006520342E+03  0.30006520342E+03  0.00000000000E+00 0.  1.
          2   -1    0    0  501    0  0.00000000000E+00 -0.00000000000E+00 -0.45273126812E+02  0.45273126812E+02  0.00000000000E+00 0. -1.
          5    1    1    2  502    0 -0.62239680245E+02 -0.30803218222E+02  0.23634925916E+02  0.73475833938E+02  0.41800000000E+01 0.  1.
         -5    1    1    2    0  502  0.16833244528E+02  0.38144991507E+02  0.99938395737E+02  0.10836767895E+03  0.41800000000E+01 0.  1.
        -11    1    1    2    0    0  0.17734656815E+02  0.36868281558E+02  0.82672895833E+02  0.92242050838E+02  0.00000000000E+00 0.  1.
         11    1    1    2    0    0  0.27671778902E+02 -0.44210054843E+02  0.48545859118E+02  0.71252766503E+02  0.00000000000E+00 0. -1.
</event>
<event>
 7    1  0.3447145E-009  0.9615043E+02  0.7561462E-02  0.1288606E+00
          1   -1    0    0  501    0  0.00000000000E+00  0.00000000000E+00  0.59178944129E+02  0.59178944129E+02  0.00000000000E+00 0. -1.
         -1   -1    0    0    0  501 -0.00000000000E+00 -0.00000000000E+00 -0.26383118579E+03  0.26383118579E+03  0.00000000000E+00 0.  1.
         25    2    1    2    0    0  0.21006588189E+02  0.10728709613E+02 -0.18815407491E+03  0.22716589557E+03  0.12508399677E+03 0.  0.
          5    1    3    3  502    0  0.48874870312E+02 -0.39891342832E+02 -0.63013829251E+02  0.89265263444E+02  0.41800000000E+01 0.  1.
         -5    1    3    3    0  502 -0.27868282123E+02  0.50620052445E+02 -0.12514024566E+03  0.13790063213E+03  0.41800000000E+01 0.  1.
        -11    1    1    2    0    0 -0.20988277221E+02  0.26559389000E+02  0.23463325949E+02  0.41187820886E+02  0.00000000000E+00 0. -1.
         11    1    1    2    0    0 -0.18310967601E-01 -0.37288098614E+02 -0.39961492701E+02  0.54656413461E+02  0.00000000000E+00 0.  1.
</event>
<event>
 7    1  0.2873461E-009  0.1271445E+03  0.7561462E-02  0.1231755E+00
          2   -1    0    0  501    0  0.00000000000E+00  0.00000000000E+00  0.41181614268E+03  0.41181614268E+03  0.00000000000E+00 0.  1.
         -2   -1    0    0    0  501 -0.00000000000E+00 -0.00000000000E+00 -0.59363797119E+02  0.59363797119E+02  0.00000000000E+00 0. -1.
         25    2    1    2    0    0 -0.71750039630E+02  0.72445880827E+02  0.12106346726E+03  0.20174270395E+03  0.12508909488E+03 0.  0.
          5    1    3    3  502    0 -0.80289654812E+02  0.90773653029E+02  0.56157164524E+02  0.13363152428E+03  0.41800000000E+01 0.  1.
         -5    1    3    3    0  502  0.85396151820E+01 -0.18327772202E+02  0.64906302739E+02  0.68111179674E+02  0.41800000000E+01 0.  1.
        -11    1    1    2    0    0  0.33987647369E+02 -0.65772997013E+02  0.64474213363E+02  0.98174189574E+02  0.00000000000E+00 0. -1.
         11    1    1    2    0    0  0.37762392262E+02 -0.66728838136E+01  0.16691466493E+03  0.17126304627E+03  0.00000000000E+00 0.  1.
</event>
<event>
 7    1  0.2873461E-009  0.1162816E+03  0.7561462E-02  0.1249360E+00
          1   -1    0    0  501    0  0.00000000000E+00  0.00000000000E+00  0.19157807122E+03  0.19157807122E+03  0.00000000000E+00 0. -1.
         -1   -1    0    0    0  501 -0.00000000000E+00 -0.00000000000E+00 -0.13721543061E+03  0.13721543061E+03  0.00000000000E+00 0.  1.
         25    2    1    2    0    0 -0.11144416720E+03  0.27572397759E+02 -0.90430170977E+01  0.17002992924E+03  0.12509340973E+03 0.  0.
          5    1    3    3  502    0 -0.23562271645E+02 -0.22256710487E+01  0.53089036260E+02  0.58275658964E+02  0.41800000000E+01 0. -1.
         -5    1    3    3    0  502 -0.87881895557E+02  0.29798068808E+02 -0.62132053358E+02  0.11175427028E+03  0.41800000000E+01 0. -1.
        -11    1    1    2    0    0  0.43295339558E+02 -0.37939696467E+01 -0.20526314422E+02  0.48064646226E+02  0.00000000000E+00 0.  1.
         11    1    1    2    0    0  0.68148827644E+02 -0.23778428112E+02  0.83931972127E+02  0.11069892636E+03  0.00000000000E+00 0. -1.
</event>
<event>
 7    1  0.2873461E-009  0.5846044E+02  0.7561462E-02  0.1404409E+00
          1   -1    0    0  501    0  0.00000000000E+00  0.00000000000E+00  0.42652337668E+02  0.42652337668E+02  0.00000000000E+00 0. -1.
         -1   -1    0    0    0  501 -0.00000000000E+00 -0.00000000000E+00 -0.30129325219E+03  0.30129325219E+03  0.00000000000E+00 0.  1.
         25    2    1    2    0    0  0.27834129253E+02 -0.12331214611E+02 -0.16312863616E+03  0.20780888750E+03  0.12508710638E+03 0.  0.
          5    1    3    3  502    0  0.79039449884E+00  0.18356112369E+02 -0.16555238593E+03  0.16662123656E+03  0.41800000000E+01 0.  1.
         -5    1    3    3    0  502  0.27043734754E+02 -0.30687326980E+02  0.24237497738E+01  0.41187650936E+02  0.41800000000E+01 0.  1.
        -11    1    1    2    0    0  0.13888316628E+02  0.29783996698E+01  0.13154945217E+02  0.19359979004E+02  0.00000000000E+00 0. -1.
         11    1    1    2    0    0 -0.41722445881E+02  0.93528149410E+01 -0.10866722358E+03  0.11677672336E+03  0.00000000000E+00 0.  1.
</event>
<event>
 7    1  0.2873461E-009  0.1252237E+03  0.7561462E-02  0.1234720E+00
          2   -1    0    0  501    0  0.00000000000E+00  0.00000000000E+00  0.29077515573E+03  0.29077515573E+03  0.00000000000E+00 0. -1.
         -2   -1    0    0    0  501 -0.00000000000E+00 -0.00000000000E+00 -0.55437986752E+02  0.55437986752E+02  0.00000000000E+00 0.  1.
         25    2    1    2    0    0 -0.20919878777E+02  0.61163021371E+02  0.15150550888E+03  0.20683444940E+03  0.12509202103E+03 0.  0.
          5    1    3    3  502    0 -0.29088947387E+02  0.98170208264E+02  0.11527512781E+03  0.15423807617E+03  0.41800000000E+01 0. -1.
         -5    1    3    3    0  502  0.81690686102E+01 -0.37007186893E+02  0.36230381076E+02  0.52596373227E+02  0.41800000000E+01 0. -1.
        -11    1    1    2    0    0  0.55011673614E+02 -0.25923909800E+02  0.57643935945E+02  0.83792342636E+02  0.00000000000E+00 0.  1.
         11    1    1    2    0    0 -0.34091794837E+02 -0.35239111571E+02  0.26187724145E+02  0.55586350441E+02  0.00000000000E+00 0. -1.
</event>
<event>
 7    1  0.2873461E-009  0.1187274E+03  0.7561462E-02  0.1245211E+00
          1   -1    0    0  501    0  0.00000000000E+00  0.00000000000E+00  0.39002855444E+03  0.39002855444E+03  0.00000000000E+00 0. -1.
         -1   -1    0    0    0  501 -0.00000000000E+00 -0.00000000000E+00 -0.38317994124E+02  0.38317994124E+02  0.00000000000E+00 0.  1.
         25    2    1    2    0    0  0.52287293838E+02 -0.23013520460E+02  0.20738614412E+03  0.24883737505E+03  0.12508974070E+03 0.  0.
          5    1    3    3  502    0  0.47392871380E+02 -0.69256201210E+02  0.16765486977E+03  0.18753168645E+03  0.41800000000E+01 0. -1.
         -5    1    3    3    0  502  0.48944224580E+01  0.46242680749E+02  0.39731274345E+02  0.61305688604E+02  0.41800000000E+01 0. -1.
        -11    1    1    2    0    0 -0.43308577862E+02 -0.30186186382E+02  0.71242301472E+02  0.88669635635E+02  0.00000000000E+00 0. -1.
         11    1    1    2    0    0 -0.89787159760E+01  0.53199706843E+02  0.73082114727E+02  0.90839537877E+02  0.00000000000E+00 0.  1.
</event>
<event>
 7    1  0.2873461E-009  0.1656217E+03  0.7561462E-02  0.1182492E+00
          2   -1    0    0  501    0  0.00000000000E+00  0.00000000000E+00  0.17995883723E+03  0.17995883723E+03  0.00000000000E+00 0. -1.
         -2   -1    0    0    0  501 -0.00000000000E+00 -0.00000000000E+00 -0.16947825745E+03  0.16947825745E+03  0.00000000000E+00 0.  1.
         25    2    1    2    0    0  0.10264404044E+03 -0.89206897524E+02 -0.77597277220E+01  0.18493689235E+03  0.12509105155E+03 0.  0.
          5    1    3    3  502    0 -0.28373478951E+02 -0.27854673409E+02 -0.36634098516E+01  0.40147604041E+02  0.41800000000E+01 0.  1.
         -5    1    3    3    0  502  0.13101751939E+03 -0.61352224115E+02 -0.40963178704E+01  0.14478928831E+03  0.41800000000E+01 0.  1.
        -11    1    1    2    0    0 -0.88171696615E+02  0.42974022226E+02  0.46354265920E+02  0.10848839864E+03  0.00000000000E+00 0. -1.
         11    1    1    2    0    0 -0.14472343821E+02  0.46232875298E+02 -0.28113958414E+02  0.56011803682E+02  0.00000000000E+00 0.  1.
</event>
<event>
 7    1  0.2873461E-009  0.8505818E+02  0.7561462E-02  0.1315280E+00
         -1   -1    0    0    0  501 -0.00000000000E+00  0.00000000000E+00  0.97575940658E+01  0.97575940658E+01  0.00000000000E+00 0.  1.
          1   -1    0    0  501    0  0.00000000000E+00 -0.00000000000E+00 -0.14183420498E+04  0.14183420498E+04  0.00000000000E+00 0. -1.
         25    2    1    2    0    0  0.30888419023E+02 -0.35229856401E+01 -0.10314506635E+04  0.10394727593E+04  0.12508653114E+03 0.  0.
          5    1    3    3  502    0 -0.15291213912E+02  0.21455982187E+02 -0.85287422064E+03  0.85329132717E+03  0.41800000000E+01 0. -1.
         -5    1    3    3    0  502  0.46179632935E+02 -0.24978967827E+02 -0.17857644288E+03  0.18618143217E+03  0.41800000000E+01 0. -1.
        -11    1    1    2    0    0  0.10091629885E+02  0.36688887946E+02 -0.11155879204E+03  0.11786975683E+03  0.00000000000E+00 0. -1.
         11    1    1    2    0    0 -0.40980048909E+02 -0.33165902306E+02 -0.26557500013E+03  0.27075712766E+03  0.00000000000E+00 0.  1.
</event>
<event>
 7    1  0.3632038E-009  0.1532736E+03  0.7561462E-02  0.1196507E+00
         -1   -1    0    0    0  501 -0.00000000000E+00  0.00000000000E+00  0.29917596739E+02  0.29917596739E+02  0.00000000000E+00 0.  1.
          1   -1    0    0  501    0  0.00000000000E+00 -0.00000000000E+00 -0.98239409153E+03  0.98239409153E+03  0.00000000000E+00 0. -1.
         25    2    1    2    0    0  0.80518740794E+02 -0.10114407825E+03 -0.58980256888E+03  0.61662791566E+03  0.12509805729E+03 0.  0.
          5    1    3    3  502    0  0.86058587873E+02 -0.55880498085E+02 -0.53701460029E+03  0.54674570317E+03  0.41800000000E+01 0.  1.
         -5    1    3    3    0  502 -0.55398470784E+01 -0.45263580166E+02 -0.52787968588E+02  0.69882212492E+02  0.41800000000E+01 0.  1.
        -11    1    1    2    0    0 -0.32291786049E+02 -0.12484150908E+02 -0.72306311459E+02  0.80167425722E+02  0.00000000000E+00 0. -1.
         11    1    1    2    0    0 -0.48226954746E+02  0.11362822916E+03 -0.29036761446E+03  0.31551634688E+03  0.00000000000E+00 0.  1.
</event>
<event>
 7    1  0.2873461E-009  0.1310928E+03  0.7561462E-02  0.1225843E+00
          1   -1    0    0  501    0  0.00000000000E+00  0.00000000000E+00  0.28571820198E+02  0.28571820198E+02  0.00000000000E+00 0. -1.
         -1   -1    0    0    0  501 -0.00000000000E+00 -0.00000000000E+00 -0.65711694381E+03  0.65711694381E+03  0.00000000000E+00 0.  1.
         25    2    1    2    0    0  0.68719231019E+02  0.35098741078E+02 -0.43026338853E+03  0.45467468833E+03  0.12509290294E+03 0.  0.
          5    1    3    3  502    0 -0.34788024130E+02  0.22229367312E+02 -0.14879572990E+03  0.15447327611E+03  0.41800000000E+01 0. -1.
         -5    1    3    3    0  502  0.10350725515E+03  0.12869373766E+02 -0.28146765863E+03  0.30020141223E+03  0.41800000000E+01 0. -1.
        -11    1    1    2    0    0 -0.72064559901E+02  0.85105287231E+01 -0.10112870442E+03  0.12446985479E+03  0.00000000000E+00 0. -1.
         11    1    1    2    0    0  0.33453288827E+01 -0.43609269801E+02 -0.97153030667E+02  0.10654422089E+03  0.00000000000E+00 0.  1.
</event>
<event>
 7    1  0.2873461E-009  0.1127506E+03  0.7561462E-02  0.1255559E+00
         -3   -1    0    0    0  501 -0.00000000000E+00  0.00000000000E+00  0.13335432708E+03  0.13335432708E+03  0.00000000000E+00 0.  1.
          3   -1    0    0  501    0  0.00000000000E+00 -0.00000000000E+00 -0.11020048639E+03  0.11020048639E+03  0.00000000000E+00 0. -1.
         25    2    1    2    0    0 -0.34554325724E+02  0.17742588452E+01 -0.28360760272E+02  0.13284671694E+03  0.12508704193E+03 0.  0.
          5    1    3    3  502    0  0.29301750124E+02  0.43230816115E+02 -0.29471333250E+01  0.52475270530E+02  0.41800000000E+01 0.  1.
         -5    1    3    3    0  502 -0.63856075848E+02 -0.41456557270E+02 -0.25413626947E+02  0.80371446410E+02  0.41800000000E+01 0.  1.
        -11    1    1    2    0    0  0.43290494284E+02 -0.39216988933E+02  0.22732842744E+02  0.62680309951E+02  0.00000000000E+00 0.  1.
         11    1    1    2    0    0 -0.87361685601E+01  0.37442730088E+02  0.28781758218E+02  0.48027786579E+02  0.00000000000E+00 0. -1.
</event>
<event>
 7    1  0.2873461E-009  0.1584013E+03  0.7561462E-02  0.1190514E+00
          2   -1    0    0  501    0  0.00000000000E+00  0.00000000000E+00  0.38247583104E+03  0.38247583104E+03  0.00000000000E+00 0.  1.
         -2   -1    0    0    0  501 -0.00000000000E+00 -0.00000000000E+00 -0.99133321917E+02  0.99133321917E+02  0.00000000000E+00 0. -1.
         25    2    1    2    0    0 -0.12930377865E+03  0.45453372624E+02  0.42761099393E+02  0.19042688524E+03  0.12509360792E+03 0.  0.
          5    1    3    3  502    0 -0.12553598647E+02 -0.16121897745E+02 -0.32358523281E+02  0.38497465563E+02  0.41800000000E+01 0. -1.
         -5    1    3    3    0  502 -0.11675018000E+03  0.61575270369E+02  0.75119622673E+02  0.15192941967E+03  0.41800000000E+01 0. -1.
        -11    1    1    2    0    0  0.52342393769E+02  0.26377289123E+02  0.92036302586E+02  0.10911539103E+03  0.00000000000E+00 0.  1.
         11    1    1    2    0    0  0.76961384881E+02 -0.71830661747E+02  0.14854510715E+03  0.18206687669E+03  0.00000000000E+00 0. -1.
</event>
<event>
 7    1  0.2873461E-009  0.1386921E+03  0.7561462E-02  0.1215100E+00
         -1   -1    0    0    0  501 -0.00000000000E+00  0.00000000000E+00  0.16393258704E+04  0.16393258704E+04  0.00000000000E+00 0.  1.
          1   -1    0    0  501    0  0.00000000000E+00 -0.00000000000E+00 -0.17310499266E+02  0.17310499266E+02  0.00000000000E+00 0. -1.
         25    2    1    2    0    0  0.22190288237E+02 -0.10372690035E+03  0.12096638901E+04  0.12207315487E+04  0.12508840208E+03 0.  0.
          5    1    3    3  502    0 -0.50304383454E+02 -0.31395052075E+02  0.54137809133E+03  0.54463188528E+03  0.41800000000E+01 0. -1.
         -5    1    3    3    0  502  0.72494671692E+02 -0.72331848270E+02  0.66828579877E+03  0.67609966346E+03  0.41800000000E+01 0. -1.
        -11    1    1    2    0    0 -0.35024052976E+02  0.90386468754E+02  0.40423010034E+03  0.41569023568E+03  0.00000000000E+00 0.  1.
         11    1    1    2    0    0  0.12833764738E+02  0.13340431591E+02  0.81213807049E+01  0.20214585253E+02  0.00000000000E+00 0. -1.
</event>
<event>
 7    1  0.2873461E-009  0.2203061E+03  0.7561462E-02  0.1133655E+00
          1   -1    0    0  501    0  0.00000000000E+00  0.00000000000E+00  0.14763544571E+03  0.14763544571E+03  0.00000000000E+00 0. -1.
         -1   -1    0    0    0  501 -0.00000000000E+00 -0.00000000000E+00 -0.37847266738E+03  0.37847266738E+03  0.00000000000E+00 0.  1.
         25    2    1    2    0    0  0.19869496647E+03  0.50709446864E+02 -0.70561756979E+02  0.25035476247E+03  0.12508959926E+03 0.  0.
          5    1    3    3  502    0  0.15360775434E+03  0.86395853779E+02 -0.76949035132E+02  0.19234919327E+03  0.41800000000E+01 0. -1.
         -5    1    3    3    0  502  0.45087212132E+02 -0.35686406915E+02  0.63872781535E+01  0.58005569203E+02  0.41800000000E+01 0. -1.
        -11    1    1    2    0    0 -0.11879400270E+03 -0.43257763389E+02 -0.14787790279E+03  0.19455365148E+03  0.00000000000E+00 0.  1.
         11    1    1    2    0    0 -0.79900963771E+02 -0.74516834744E+01 -0.12397561894E+02  0.81199699132E+02  0.00000000000E+00 0. -1.
</event>
<event>
 7    1  0.2873461E-009  0.1309943E+03  0.7561462E-02  0.1225988E+00
         -4   -1    0    0    0  501 -0.00000000000E+00  0.00000000000E+00  0.12322779998E+03  0.12322779998E+03  0.00000000000E+00 0.  1.
          4   -1    0    0  501    0  0.00000000000E+00 -0.00000000000E+00 -0.25917145115E+03  0.25917145115E+03  0.00000000000E+00 0. -1.
         25    2    1    2    0    0 -0.10969445817E+03 -0.36892113297E+02 -0.15943215630E+03  0.23336302960E+03  0.12508312815E+03 0.  0.
          5    1    3    3  502    0 -0.52680704972E+02  0.27967155617E+02 -0.12816613487E+03  0.14142647913E+03  0.41800000000E+01 0.  1.
         -5    1    3    3    0  502 -0.57013753202E+02 -0.64859268914E+02 -0.31266021423E+02  0.91936550479E+02  0.41800000000E+01 0.  1.
        -11    1    1    2    0    0  0.79880300731E+02  0.27556802039E+02 -0.27822481825E+02  0.88962521762E+02  0.00000000000E+00 0. -1.
         11    1    1    2    0    0  0.29814157443E+02  0.93353112581E+01  0.51310986959E+02  0.60073699762E+02  0.00000000000E+00 0.  1.
</event>
<event>
 7    1  0.2873461E-009  0.2606010E+03  0.7561462E-02  0.1106783E+00
          2   -1    0    0  501    0  0.00000000000E+00  0.00000000000E+00  0.25232003156E+04  0.25232003156E+04  0.00000000000E+00 0. -1.
         -2   -1    0    0    0  501 -0.00000000000E+00 -0.00000000000E+00 -0.31064477315E+02  0.31064477315E+02  0.00000000000E+00 0.  1.
         25    2    1    2    0    0 -0.12501268153E+03  0.22259400068E+03  0.14550989778E+04  0.14826117395E+04  0.12509306703E+03 0.  0.
          5    1    3    3  502    0 -0.10259825485E+03  0.21390990780E+03  0.14210495099E+04  0.14407230936E+04  0.41800000000E+01 0. -1.
         -5    1    3    3    0  502 -0.22414426682E+02  0.86840928741E+01  0.34049467845E+02  0.41888645873E+02  0.41800000000E+01 0. -1.
        -11    1    1    2    0    0  0.35721081758E+02 -0.27880823030E+02  0.90880720479E+02  0.10155117591E+03  0.00000000000E+00 0. -1.
         11    1    1    2    0    0  0.89291599771E+02 -0.19471317765E+03  0.94615614007E+03  0.97010187750E+03  0.00000000000E+00 0.  1.
</event>
<event>
 7    1  0.2873461E-009  0.1103784E+03  0.7561462E-02  0.1259871E+00
          2   -1    0    0  501    0  0.00000000000E+00  0.00000000000E+00  0.54368176087E+03  0.54368176087E+03  0.00000000000E+00 0. -1.
         -2   -1    0    0    0  501 -0.00000000000E+00 -0.00000000000E+00 -0.25606471994E+02  0.25606471994E+02  0.00000000000E+00 0.  1.
         25    2    1    2    0    0  0.25150850023E+02 -0.23786391906E+02  0.37302040674E+03  0.39495516226E+03  0.12508796365E+03 0.  0.
          5    1    3    3  502    0  0.53660699825E+02 -0.60991981068E+02  0.20749279073E+03  0.22286817418E+03  0.41800000000E+01 0. -1.
         -5    1    3    3    0  502 -0.28509849802E+02  0.37205589162E+02  0.16552761601E+03  0.17208698807E+03  0.41800000000E+01 0. -1.
        -11    1    1    2    0    0 -0.13871578115E+02  0.56276544102E+02  0.11447348843E+03  0.12831075422E+03  0.00000000000E+00 0. -1.
         11    1    1    2    0    0 -0.11279271908E+02 -0.32490152196E+02  0.30581393701E+02  0.46022316383E+02  0.00000000000E+00 0.  1.
</event>
<event>
 7    1  0.3176799E-009  0.1006915E+03  0.7561462E-02  0.1278849E+00
          1   -1    0    0  501    0  0.00000000000E+00  0.00000000000E+00  0.29217238198E+03  0.29217238198E+03  0.00000000000E+00 0. -1.
         -1   -1    0    0    0  501 -0.00000000000E+00 -0.00000000000E+00 -0.52371633141E+02  0.52371633141E+02  0.00000000000E+00 0.  1.
         25    2    1    2    0    0  0.39710415450E+02 -0.44643048530E+02  0.12294731749E+03  0.18529185669E+03  0.12508841034E+03 0.  0.
          5    1    3    3  502    0 -0.37208766445E+02  0.14711420829E+02  0.25547451050E+02  0.47655669740E+02  0.41800000000E+01 0. -1.
         -5    1    3    3    0  502  0.76919181895E+02 -0.59354469359E+02  0.97399866435E+02  0.13763618695E+03  0.41800000000E+01 0. -1.
        -11    1    1    2    0    0 -0.24339594179E+01  0.17813421519E+02 -0.12559356712E+02  0.21931246788E+02  0.00000000000E+00 0.  1.
         11    1    1    2    0    0 -0.37276456032E+02  0.26829627011E+02  0.12941278807E+03  0.13732091165E+03  0.00000000000E+00 0. -1.
</event>
<event>
 7    1  0.2873461E-009  0.9339163E+02  0.7561462E-02  0.1294840E+00
         -2   -1    0    0    0  501 -0.00000000000E+00  0.00000000000E+00  0.26918285473E+02  0.26918285473E+02  0.00000000000E+00 0.  1.
          2   -1    0    0  501    0  0.00000000000E+00 -0.00000000000E+00 -0.74560659206E+03  0.74560659206E+03  0.00000000000E+00 0. -1.
         25    2    1    2    0    0  0.47123175181E+02 -0.14827780839E+02 -0.59999687130E+03  0.61488385452E+03  0.12508178229E+03 0.  0.
          5    1    3    3  502    0 -0.39577418594E+02 -0.17981323140E+02 -0.13640756727E+03  0.14322777961E+03  0.41800000000E+01 0.  1.
         -5    1    3    3    0  502  0.86700593775E+02  0.31535423012E+01 -0.46358930402E+03  0.47165607491E+03  0.41800000000E+01 0.  1.
        -11    1    1    2    0    0 -0.25087792286E+02 -0.61487369435E+01 -0.12408362737E+03  0.12674364233E+03  0.00000000000E+00 0. -1.
         11    1    1    2    0    0 -0.22035382895E+02  0.20976517783E+02  0.53921920848E+01  0.30897380683E+02  0.00000000000E+00 0.  1.
</event>
<event>
 7    1  0.2873461E-009  0.4736341E+03  0.7561462E-02  0.1020900E+00
         -2   -1    0    0    0  501 -0.00000000000E+00  0.00000000000E+00  0.34767240008E+03  0.34767240008E+03  0.00000000000E+00 0.  1.
          2   -1    0    0  501    0  0.00000000000E+00 -0.00000000000E+00 -0.67953250775E+03  0.67953250775E+03  0.00000000000E+00 0. -1.
         25    2    1    2    0    0 -0.20423229491E+03  0.41377705670E+03 -0.28123994217E+03  0.55467632453E+03  0.12509051515E+03 0.  0.
          5    1    3    3  502    0  0.16620574643E+02  0.36313362725E+02 -0.31595219459E+02  0.51094364724E+02  0.41800000000E+01 0.  1.
         -5    1    3    3    0  502 -0.22085286956E+03  0.37746369397E+03 -0.24964472271E+03  0.50358195980E+03  0.41800000000E+01 0.  1.
        -11    1    1    2    0    0 -0.82704985200E+01 -0.29608598929E+02 -0.17440650218E+01  0.30791428013E+02  0.00000000000E+00 0. -1.
         11    1    1    2    0    0  0.21250279343E+03 -0.38416845777E+03 -0.48876100478E+02  0.44173715529E+03  0.00000000000E+00 0.  1.
</event>
<event>
 7    1  0.2873461E-009  0.1077085E+03  0.7561462E-02  0.1264873E+00
          1   -1    0    0  501    0  0.00000000000E+00  0.00000000000E+00  0.12197306298E+03  0.12197306298E+03  0.00000000000E+00 0. -1.
         -1   -1    0    0    0  501 -0.00000000000E+00 -0.00000000000E+00 -0.11855444581E+03  0.11855444581E+03  0.00000000000E+00 0.  1.
         25    2    1    2    0    0  0.31529728268E+02  0.62348516132E+01  0.39837775950E+02  0.13515857865E+03  0.12509115017E+03 0.  0.
          5    1    3    3  502    0  0.79467939275E+02  0.19741999708E+01  0.33775111970E+02  0.86471275154E+02  0.41800000000E+01 0. -1.
         -5    1    3    3    0  502 -0.47938211007E+02  0.42606516423E+01  0.60626639799E+01  0.48687303494E+02  0.41800000000E+01 0. -1.
        -11    1    1    2    0    0 -0.46318532850E+02  0.25226451446E+02  0.29784585395E+01  0.52826617848E+02  0.00000000000E+00 0. -1.
         11    1    1    2    0    0  0.14788804582E+02 -0.31461303060E+02 -0.39397617321E+02  0.52542312299E+02  0.00000000000E+00 0.  1.
</event>
<event>
 7    1  0.2873461E-009  0.1743821E+03  0.7561462E-02  0.1173354E+00
         -1   -1    0    0    0  501 -0.00000000000E+00  0.00000000000E+00  0.50926952883E+03  0.50926952883E+03  0.00000000000E+00 0.  1.
          1   -1    0    0  501    0  0.00000000000E+00 -0.00000000000E+00 -0.10619574198E+03  0.10619574198E+03  0.00000000000E+00 0. -1.
         25    2    1    2    0    0 -0.12740502695E+03  0.79197056662E+02  0.22670477856E+02  0.19664010073E+03  0.12509661855E+03 0.  0.
          5    1    3    3  502    0  0.33120007675E+01 -0.13790896804E+02  0.32666766156E+02  0.35857331117E+02  0.41800000000E+01 0. -1.
         -5    1    3    3    0  502 -0.13071702772E+03  0.92987953465E+02 -0.99962882994E+01  0.16078276961E+03  0.41800000000E+01 0. -1.
        -11    1    1    2    0    0  0.13856890334E+03 -0.59369131138E+02  0.34780691428E+03  0.37907213605E+03  0.00000000000E+00 0.  1.
         11    1    1    2    0    0 -0.11163876392E+02 -0.19827925524E+02  0.32596394713E+02  0.39753034035E+02  0.00000000000E+00 0. -1.
</event>
<event>
 7    1  0.2873461E-009  0.1282975E+03  0.7561462E-02  0.1230004E+00
         -1   -1    0    0    0  501 -0.00000000000E+00  0.00000000000E+00  0.72051987707E+02  0.72051987707E+02  0.00000000000E+00 0.  1.
          1   -1    0    0  501    0  0.00000000000E+00 -0.00000000000E+00 -0.37932654571E+03  0.37932654571E+03  0.00000000000E+00 0. -1.
         25    2    1    2    0    0  0.11302283384E+03  0.47660610002E+02 -0.25376162166E+03  0.30836355914E+03  0.12508968487E+03 0.  0.
          5    1    3    3  502    0  0.50019243470E+02  0.63029203881E+01 -0.79308014524E+01  0.51205678732E+02  0.41800000000E+01 0.  1.
         -5    1    3    3    0  502  0.63003590371E+02  0.41357689614E+02 -0.24583082021E+03  0.25715788041E+03  0.41800000000E+01 0.  1.
        -11    1    1    2    0    0 -0.56057313625E+02  0.30209197218E+00 -0.35652500081E+02  0.66435039192E+02  0.00000000000E+00 0. -1.
         11    1    1    2    0    0 -0.56965520216E+02 -0.47962701974E+02 -0.17860436256E+02  0.76579935083E+02  0.00000000000E+00 0.  1.
</event>
<event>
 7    1  0.2873461E-009  0.2117377E+03  0.7561462E-02  0.1140197E+00
         -2   -1    0    0    0  501 -0.00000000000E+00  0.00000000000E+00  0.54806795827E+02  0.54806795827E+02  0.00000000000E+00 0.  1.
          2   -1    0    0  501    0  0.00000000000E+00 -0.00000000000E+00 -0.85883200641E+03  0.85883200641E+03  0.00000000000E+00 0. -1.
         25    2    1    2    0    0 -0.72264913582E+02 -0.17149366731E+03 -0.47322869508E+03  0.52366391809E+03  0.12508479364E+03 0.  0.
          5    1    3    3  502    0 -0.52231776390E+02 -0.17517781593E+01 -0.13108623095E+03  0.14118179605E+03  0.41800000000E+01 0.  1.
         -5    1    3    3    0  502 -0.20033137192E+02 -0.16974188915E+03 -0.34214246413E+03  0.38248212204E+03  0.41800000000E+01 0.  1.
        -11    1    1    2    0    0  0.30604670099E+02  0.15020629923E+03 -0.28946238199E+03  0.32754701762E+03  0.00000000000E+00 0.  1.
         11    1    1    2    0    0  0.41660243483E+02  0.21287368082E+02 -0.41334133511E+02  0.62427866535E+02  0.00000000000E+00 0. -1.
</event>
<event>
 7    1  0.2873461E-009  0.1362346E+03  0.7561462E-02  0.1218487E+00
          2   -1    0    0  501    0  0.00000000000E+00  0.00000000000E+00  0.35941061312E+03  0.35941061312E+03  0.00000000000E+00 0. -1.
         -2   -1    0    0    0  501 -0.00000000000E+00 -0.00000000000E+00 -0.60635558900E+02  0.60635558900E+02  0.00000000000E+00 0.  1.
         25    2    1    2    0    0 -0.39476768298E+02  0.87415525720E+02  0.13018180921E+03  0.20443703506E+03  0.12508920210E+03 0.  0.
          5    1    3    3  502    0  0.41296687323E+02  0.49587421886E+02  0.33492594461E+02  0.72825511168E+02  0.41800000000E+01 0.  1.
         -5    1    3    3    0  502 -0.80773455621E+02  0.37828103834E+02  0.96689214747E+02  0.13161152389E+03  0.41800000000E+01 0.  1.
        -11    1    1    2    0    0  0.59213105899E+02 -0.73392564483E+02  0.79674301764E+02  0.12345304692E+03  0.00000000000E+00 0.  1.
         11    1    1    2    0    0 -0.19736337602E+02 -0.14022961237E+02  0.88918943252E+02  0.92156090047E+02  0.00000000000E+00 0. -1.
</event>
<event>
 7    1  0.2873461E-009  0.8259729E+02  0.7561462E-02  0.1321838E+00
          4   -1    0    0  501    0  0.00000000000E+00  0.00000000000E+00  0.10746318991E+03  0.10746318991E+03  0.00000000000E+00 0. -1.
         -4   -1    0    0    0  501 -0.00000000000E+00 -0.00000000000E+00 -0.10785768426E+03  0.10785768426E+03  0.00000000000E+00 0.  1.
         25    2    1    2    0    0  0.43819298208E+01 -0.14066139959E+02  0.59342177904E+01  0.12609356566E+03  0.12508922718E+03 0.  0.
          5    1    3    3  502    0  0.45074287563E+02  0.34305574147E+01 -0.41180011250E+02  0.61292135303E+02  0.41800000000E+01 0. -1.
         -5    1    3    3    0  502 -0.40692357743E+02 -0.17496697373E+02  0.47114229040E+02  0.64801430352E+02  0.41800000000E+01 0. -1.
        -11    1    1    2    0    0  0.19985599981E+02 -0.23299488601E+02 -0.26233130365E+02  0.40379047839E+02  0.00000000000E+00 0.  1.
         11    1    1    2    0    0 -0.24367529802E+02  0.37365628560E+02  0.19904418220E+02  0.48848260675E+02  0.00000000000E+00 0. -1.
</event>
<event>
 7    1  0.2873461E-009  0.1090046E+03  0.7561462E-02  0.1262424E+00
          1   -1    0    0  501    0  0.00000000000E+00  0.00000000000E+00  0.90010869071E+03  0.90010869071E+03  0.00000000000E+00 0. -1.
         -1   -1    0    0    0  501 -0.00000000000E+00 -0.00000000000E+00 -0.31054536849E+02  0.31054536849E+02  0.00000000000E+00 0.  1.
         25    2    1    2    0    0  0.38714642863E+02 -0.82452185996E+02  0.70203581755E+03  0.71888761944E+03  0.12509170125E+03 0.  0.
          5    1    3    3  502    0  0.33706265890E+00 -0.14809097090E+02  0.31941136513E+01  0.15719342539E+02  0.41800000000E+01 0. -1.
         -5    1    3    3    0  502  0.38377580204E+02 -0.67643088906E+02  0.69884170389E+03  0.70316827690E+03  0.41800000000E+01 0. -1.
        -11    1    1    2    0    0 -0.52153580132E+02  0.12671491217E+02  0.10514546695E+03  0.11805139487E+03  0.00000000000E+00 0.  1.
         11    1    1    2    0    0  0.13438937269E+02  0.69780694779E+02  0.61872869361E+02  0.94224213245E+02  0.00000000000E+00 0. -1.
</event>
<event>
 7    1  0.2873461E-009  0.9708210E+02  0.7561462E-02  0.1286554E+00
          1   -1    0    0  501    0  0.00000000000E+00  0.00000000000E+00  0.34971342195E+03  0.34971342195E+03  0.00000000000E+00 0. -1.
         -1   -1    0    0    0  501 -0.00000000000E+00 -0.00000000000E+00 -0.57528528191E+02  0.57528528191E+02  0.00000000000E+00 0.  1.
         25    2    1    2    0    0 -0.25421135974E+02 -0.12315446293E+02  0.52470417752E+02  0.13855523291E+03  0.12508598425E+03 0.  0.
          5    1    3    3  502    0 -0.52122673986E+02 -0.51585192759E+02  0.53502993862E+02  0.90872702214E+02  0.41800000000E+01 0.  1.
         -5    1    3    3    0  502  0.26701538012E+02  0.39269746466E+02 -0.10325761107E+01  0.47682530691E+02  0.41800000000E+01 0.  1.
        -11    1    1    2    0    0  0.12423724165E+02 -0.28026263732E+02  0.60985835919E+01  0.31257208812E+02  0.00000000000E+00 0.  1.
         11    1    1    2    0    0  0.12997411809E+02  0.40341710025E+02  0.23361589241E+03  0.23742950842E+03  0.00000000000E+00 0. -1.
</event>
<event>
 7    1  0.2873461E-009  0.1372787E+03  0.7561462E-02  0.1217038E+00
          1   -1    0    0  501    0  0.00000000000E+00  0.00000000000E+00  0.14088646428E+03  0.14088646428E+03  0.00000000000E+00 0. -1.
         -1   -1    0    0    0  501 -0.00000000000E+00 -0.00000000000E+00 -0.22352769667E+03  0.22352769667E+03  0.00000000000E+00 0.  1.
         25    2    1    2    0    0 -0.10137691141E+03 -0.69430250042E+02 -0.11909747338E+03  0.21196252507E+03  0.12508423594E+03 0.  0.
          5    1    3    3  502    0 -0.32122366085E+02  0.48550169332E+01  0.20975038389E+02  0.38895272563E+02  0.41800000000E+01 0. -1.
         -5    1    3    3    0  502 -0.69254545324E+02 -0.74285266975E+02 -0.14007251177E+03  0.17306725251E+03  0.41800000000E+01 0. -1.
        -11    1    1    2    0    0  0.24685714906E+02 -0.12721520675E+02 -0.11762172202E+02  0.30159083269E+02  0.00000000000E+00 0. -1.
         11    1    1    2    0    0  0.76691196503E+02  0.82151770717E+02  0.48218413197E+02  0.12229255261E+03  0.00000000000E+00 0.  1.
</event>
<event>
 7    1  0.2873461E-009  0.1199498E+03  0.7561462E-02  0.1243180E+00
          1   -1    0    0  501    0  0.00000000000E+00  0.00000000000E+00  0.55443333448E+03  0.55443333448E+03  0.00000000000E+00 0. -1.
         -1   -1    0    0    0  501 -0.00000000000E+00 -0.00000000000E+00 -0.29478600712E+02  0.29478600712E+02  0.00000000000E+00 0.  1.
         25    2    1    2    0    0 -0.23865211573E+02 -0.47455411951E+02  0.36790831957E+03  0.39220546175E+03  0.12508808165E+03 0.  0.
          5    1    3    3  502    0  0.49536765425E+02 -0.34807982357E+02  0.14672832735E+03  0.15878337826E+03  0.41800000000E+01 0. -1.
         -5    1    3    3    0  502 -0.73401976998E+02 -0.12647429594E+02  0.22117999222E+03  0.23342208349E+03  0.41800000000E+01 0. -1.
        -11    1    1    2    0    0  0.48633794925E+02 -0.26630863904E+01  0.44203729078E+02  0.65774673715E+02  0.00000000000E+00 0.  1.
         11    1    1    2    0    0 -0.24768583352E+02  0.50118498342E+02  0.11284268512E+03  0.12593179973E+03  0.00000000000E+00 0. -1.
</event>
<event>
 7    1  0.2873461E-009  0.1125807E+03  0.7561462E-02  0.1255864E+00
         -2   -1    0    0    0  501 -0.00000000000E+00  0.00000000000E+00  0.15264645741E+02  0.15264645741E+02  0.00000000000E+00 0.  1.
          2   -1    0    0  501    0  0.00000000000E+00 -0.00000000000E+00 -0.11525888207E+04  0.11525888207E+04  0.00000000000E+00 0. -1.
         25    2    1    2    0    0  0.21685202762E+02  0.57742344538E+02 -0.81585539860E+03  0.82769070294E+03  0.12508973554E+03 0.  0.
          5    1    3    3  502    0 -0.51700554513E+02  0.23506573104E+02 -0.39639544731E+03  0.40046514126E+03  0.41800000000E+01 0. -1.
         -5    1    3    3    0  502  0.73385757275E+02  0.34235771434E+02 -0.41945995129E+03  0.42722556168E+03  0.41800000000E+01 0. -1.
        -11    1    1    2    0    0  0.70149492451E+01  0.10766423336E+02 -0.30658021307E+01  0.13210773144E+02  0.00000000000E+00 0.  1.
         11    1    1    2    0    0 -0.28700152007E+02 -0.68508767874E+02 -0.31840297423E+03  0.32695199036E+03  0.00000000000E+00 0. -1.
</event>
<event>
 7    1  0.2873461E-009  0.1006011E+03  0.7561462E-02  0.1279037E+00
          2   -1    0    0  501    0  0.00000000000E+00  0.00000000000E+00  0.21869114778E+04  0.21869114778E+04  0.00000000000E+00 0. -1.
         -2   -1    0    0    0  501 -0.00000000000E+00 -0.00000000000E+00 -0.10283749211E+02  0.10283749211E+02  0.00000000000E+00 0.  1.
         25    2    1    2    0    0 -0.75975179908E-01  0.25624393600E+02  0.19142773149E+04  0.19185311744E+04  0.12509042119E+03 0.  0.
          5    1    3    3  502    0  0.44987777322E+02 -0.22414941706E+02  0.12415569789E+04  0.12425809970E+04  0.41800000000E+01 0. -1.
         -5    1    3    3    0  502 -0.45063752502E+02  0.48039335307E+02  0.67272033603E+03  0.67595017748E+03  0.41800000000E+01 0. -1.
        -11    1    1    2    0    0  0.19674775396E+02  0.24221632370E+02  0.16135828112E+03  0.16434804273E+03  0.00000000000E+00 0. -1.
         11    1    1    2    0    0 -0.19598800216E+02 -0.49846025970E+02  0.10099213252E+03  0.11431600984E+03  0.00000000000E+00 0.  1.
</event>
<event>
 7    1  0.2873461E-009  0.3055291E+03  0.7561462E-02  0.1082509E+00
         -2   -1    0    0    0  501 -0.00000000000E+00  0.00000000000E+00  0.10065649711E+03  0.10065649711E+03  0.00000000000E+00 0.  1.
          2   -1    0    0  501    0  0.00000000000E+00 -0.00000000000E+00 -0.98311816217E+03  0.98311816217E+03  0.00000000000E+00 0. -1.
         25    2    1    2    0    0  0.26407105132E+03  0.11609986173E+03 -0.32987958786E+03  0.45571577026E+03  0.12507446876E+03 0.  0.
          5    1    3    3  502    0  0.18759265159E+03  0.13932400418E+03 -0.25835097894E+03  0.34837462852E+03  0.41800000000E+01 0. -1.
         -5    1    3    3    0  502  0.76478399721E+02 -0.23224142448E+02 -0.71528608922E+02  0.10734114174E+03  0.41800000000E+01 0. -1.
        -11    1    1    2    0    0 -0.16175132124E+03 -0.10837768024E+03 -0.33441504824E+03  0.38696593647E+03  0.00000000000E+00 0.  1.
         11    1    1    2    0    0 -0.10231973007E+03 -0.77221814888E+01 -0.21816702895E+03  0.24109295255E+03  0.00000000000E+00 0. -1.
</event>
<event>
 7    1  0.2873461E-009  0.9891290E+02  0.7561462E-02  0.1282599E+00
         -1   -1    0    0    0  501 -0.00000000000E+00  0.00000000000E+00  0.25237358841E+03  0.25237358841E+03  0.00000000000E+00 0.  1.
          1   -1    0    0  501    0  0.00000000000E+00 -0.00000000000E+00 -0.67349429112E+02  0.67349429112E+02  0.00000000000E+00 0. -1.
         25    2    1    2    0    0  0.73894543357E+00 -0.68053830303E+02  0.92986962980E+02  0.17007651501E+03  0.12509027066E+03 0.  0.
          5    1    3    3  502    0 -0.19387461582E+02  0.35314548984E+01 -0.24037054870E+02  0.31362353979E+02  0.41800000000E+01 0. -1.
         -5    1    3    3    0  502  0.20126407015E+02 -0.71585285201E+02  0.11702401785E+03  0.13871416103E+03  0.41800000000E+01 0. -1.
        -11    1    1    2    0    0  0.36720802104E+02  0.48834942782E+02  0.88300201641E+02  0.10737874349E+03  0.00000000000E+00 0.  1.
         11    1    1    2    0    0 -0.37459747538E+02  0.19218887520E+02  0.37369946726E+01  0.42267759016E+02  0.00000000000E+00 0. -1.
</event>
<event>
 7    1  0.2873461E-009  0.1453913E+03  0.7561462E-02  0.1206253E+00
         -1   -1    0    0    0  501 -0.00000000000E+00  0.00000000000E+00  0.65670842077E+03  0.65670842077E+03  0.00000000000E+00 0.  1.
          1   -1    0    0  501    0  0.00000000000E+00 -0.00000000000E+00 -0.45488834989E+02  0.45488834989E+02  0.00000000000E+00 0. -1.
         25    2    1    2    0    0  0.82144947626E+02 -0.58839712972E+02  0.50622590207E+03  0.53115272301E+03  0.12509455224E+03 0.  0.
          5    1    3    3  502    0  0.48797033548E+02 -0.94994100232E+02  0.28238268088E+03  0.30193125116E+03  0.41800000000E+01 0.  1.
         -5    1    3    3    0  502  0.33347914078E+02  0.36154387260E+02  0.22384322118E+03  0.22922147186E+03  0.41800000000E+01 0.  1.
        -11    1    1    2    0    0 -0.67261675956E+02 -0.64582661296E+01  0.45491777423E+02  0.81457621294E+02  0.00000000000E+00 0.  1.
         11    1    1    2    0    0 -0.14883271670E+02  0.65297979102E+02  0.59501906288E+02  0.89586911445E+02  0.00000000000E+00 0. -1.
</event>
<event>
 7    1  0.2873461E-009  0.1322747E+03  0.7561462E-02  0.1224119E+00
          1   -1    0    0  501    0  0.00000000000E+00  0.00000000000E+00  0.32691605064E+03  0.32691605064E+03  0.00000000000E+00 0. -1.
         -1   -1    0    0    0  501 -0.00000000000E+00 -0.00000000000E+00 -0.76762244278E+02  0.76762244278E+02  0.00000000000E+00 0.  1.
         25    2    1    2    0    0  0.61710331617E+01  0.11134562396E+03  0.16819427788E+03  0.23743216345E+03  0.12509511383E+03 0.  0.
          5    1    3    3  502    0 -0.23593474523E+02  0.19636919522E+02  0.13000048377E+03  0.13364078281E+03  0.41800000000E+01 0.  1.
         -5    1    3    3    0  502  0.29764507685E+02  0.91708704437E+02  0.38193794105E+02  0.10379138064E+03  0.41800000000E+01 0.  1.
        -11    1    1    2    0    0  0.33150313675E+02 -0.80586051828E+02  0.76629322662E+02  0.11603925257E+03  0.00000000000E+00 0. -1.
         11    1    1    2    0    0 -0.39321346837E+02 -0.30759572131E+02  0.53302058269E+01  0.50206878900E+02  0.00000000000E+00 0.  1.
</event>
<event>
 7    1  0.2873461E-009  0.1011396E+03  0.7561462E-02  0.1277918E+00
          2   -1    0    0  501    0  0.00000000000E+00  0.00000000000E+00  0.83587104305E+02  0.83587104305E+02  0.00000000000E+00 0. -1.
         -2   -1    0    0    0  501 -0.00000000000E+00 -0.00000000000E+00 -0.16283569293E+03  0.16283569293E+03  0.00000000000E+00 0.  1.
         25    2    1    2    0    0 -0.88645520776E+01  0.40362873597E+02 -0.30896025955E+02  0.13531470166E+03  0.12509101573E+03 0.  0.
          5    1    3    3  502    0 -0.52179249160E+02  0.59787053601E+02 -0.36284392501E+02  0.87356713310E+02  0.41800000000E+01 0.  1.
         -5    1    3    3    0  502  0.43314697083E+02 -0.19424180004E+02  0.53883665459E+01  0.47957988346E+02  0.41800000000E+01 0.  1.
        -11    1    1    2    0    0  0.22419127353E+02  0.88590662992E+01  0.16022852909E+02  0.28945330234E+02  0.00000000000E+00 0.  1.
         11    1    1    2    0    0 -0.13554575276E+02 -0.49221939896E+02 -0.64375415579E+02  0.82162765344E+02  0.00000000000E+00 0. -1.
</event>
<event>
 7    1  0.2873461E-009  0.8116975E+02  0.7561462E-02  0.1325764E+00
          2   -1    0    0  501    0  0.00000000000E+00  0.00000000000E+00  0.43342841565E+03  0.43342841565E+03  0.00000000000E+00 0. -1.
         -2   -1    0    0    0  501 -0.00000000000E+00 -0.00000000000E+00 -0.30940614651E+02  0.30940614651E+02  0.00000000000E+00 0.  1.
         25    2    1    2    0    0 -0.29433318930E+02  0.20918137551E+02  0.26438975538E+03  0.29470822322E+03  0.12508839012E+03 0.  0.
          5    1    3    3  502    0  0.15283756947E+02  0.19674712998E+02 -0.12528499817E+01  0.25292876291E+02  0.41800000000E+01 0.  1.
         -5    1    3    3    0  502 -0.44717075877E+02  0.12434245533E+01  0.26564260536E+03  0.26941534693E+03  0.41800000000E+01 0.  1.
        -11    1    1    2    0    0 -0.29011978788E+02  0.26443076754E+01  0.18595599618E+02  0.34561302080E+02  0.00000000000E+00 0.  1.
         11    1    1    2    0    0  0.58445297718E+02 -0.23562445227E+02  0.11950244600E+03  0.13509950500E+03  0.00000000000E+00 0. -1.
</event>
<event>
 7    1  0.2873461E-009  0.1072251E+03  0.7561462E-02  0.1265796E+00
          2   -1    0    0  501    0  0.00000000000E+00  0.00000000000E+00  0.15277587988E+03  0.15277587988E+03  0.00000000000E+00 0. -1.
         -2   -1    0    0    0  501 -0.00000000000E+00 -0.00000000000E+00 -0.89350625316E+02  0.89350625316E+02  0.00000000000E+00 0.  1.
         25    2    1    2    0    0 -0.24096281859E+02 -0.29617531668E+02  0.87179560034E+01  0.13107311427E+03  0.12508528908E+03 0.  0.
          5    1    3    3  502    0  0.23876895347E+02  0.36884491904E+02  0.19518077578E+02  0.48259710181E+02  0.41800000000E+01 0.  1.
         -5    1    3    3    0  502 -0.47973177206E+02 -0.66502023572E+02 -0.10800121575E+02  0.82813404087E+02  0.41800000000E+01 0.  1.
        -11    1    1    2    0    0 -0.13817545403E+02 -0.20894204256E+02 -0.33411012457E+01  0.25271630141E+02  0.00000000000E+00 0.  1.
         11    1    1    2    0    0  0.37913827262E+02  0.50511735925E+02  0.58048399808E+02  0.85781760789E+02  0.00000000000E+00 0. -1.
</event>
<event>
 7    1  0.2873461E-009  0.1361579E+03  0.7561462E-02  0.1218594E+00
          2   -1    0    0  501    0  0.00000000000E+00  0.00000000000E+00  0.42870514653E+04  0.42870514653E+04  0.00000000000E+00 0. -1.
         -2   -1    0    0    0  501 -0.00000000000E+00 -0.00000000000E+00 -0.27820032019E+02  0.27820032019E+02  0.00000000000E+00 0.  1.
         25    2    1    2    0    0 -0.12325083287E+02 -0.12546322463E+03  0.40465447134E+04  0.40504401004E+04  0.12509181064E+03 0.  0.
          5    1    3    3  502    0 -0.28448607048E+02 -0.43642685421E+02  0.30365522540E+04  0.30370019873E+04  0.41800000000E+01 0.  1.
         -5    1    3    3    0  502  0.16123523761E+02 -0.81820539209E+02  0.10099924594E+04  0.10134381131E+04  0.41800000000E+01 0.  1.
        -11    1    1    2    0    0 -0.17477859236E+02  0.18225808919E+02  0.10048360527E+01  0.25271829568E+02  0.00000000000E+00 0.  1.
         11    1    1    2    0    0  0.29802942523E+02  0.10723741571E+03  0.21168188391E+03  0.23915956742E+03  0.00000000000E+00 0. -1.
</event>
<event>
 7    1  0.2873461E-009  0.1551128E+03  0.7561462E-02  0.1194327E+00
         -1   -1    0    0    0  501 -0.00000000000E+00  0.00000000000E+00  0.49768358322E+02  0.49768358322E+02  0.00000000000E+00 0.  1.
          1   -1    0    0  501    0  0.00000000000E+00 -0.00000000000E+00 -0.74875027605E+03  0.74875027605E+03  0.00000000000E+00 0. -1.
         25    2    1    2    0    0 -0.11596529587E+03 -0.59210108055E+02 -0.56260795134E+03  0.59086999821E+03  0.12508341672E+03 0.  0.
          5    1    3    3  502    0  0.74387971956E+01  0.26967741254E+02 -0.12226663665E+03  0.12549580714E+03  0.41800000000E+01 0. -1.
         -5    1    3    3    0  502 -0.12340409306E+03 -0.86177849309E+02 -0.44034131469E+03  0.46537419108E+03  0.41800000000E+01 0. -1.
        -11    1    1    2    0    0  0.75329669400E+02  0.47583192618E+02 -0.13921582122E+03  0.16528691476E+03  0.00000000000E+00 0. -1.
         11    1    1    2    0    0  0.40635626469E+02  0.11626915436E+02  0.28418548321E+01  0.42361721401E+02  0.00000000000E+00 0.  1.
</event>
<event>
 7    1  0.2873461E-009  0.1620367E+03  0.7561462E-02  0.1186416E+00
          2   -1    0    0  501    0  0.00000000000E+00  0.00000000000E+00  0.10619395568E+03  0.10619395568E+03  0.00000000000E+00 0. -1.
         -2   -1    0    0    0  501 -0.00000000000E+00 -0.00000000000E+00 -0.30356608845E+03  0.30356608845E+03  0.00000000000E+00 0.  1.
         25    2    1    2    0    0  0.90160890755E+02 -0.82804977998E+02 -0.19256127867E+03  0.26021633213E+03  0.12508814037E+03 0.  0.
          5    1    3    3  502    0  0.51417230915E+02 -0.11398024707E+03 -0.13869430373E+03  0.18678546690E+03  0.41800000000E+01 0. -1.
         -5    1    3    3    0  502  0.38743659839E+02  0.31175269073E+02 -0.53866974937E+02  0.73430865230E+02  0.41800000000E+01 0. -1.
        -11    1    1    2    0    0  0.16833992567E+02  0.13500106433E+02  0.31903699830E+01  0.21813175836E+02  0.00000000000E+00 0.  1.
         11    1    1    2    0    0 -0.10699488332E+03  0.69304871565E+02 -0.80012240832E+01  0.12773053616E+03  0.00000000000E+00 0. -1.
</event>
<event>
 7    1  0.2873461E-009  0.1016972E+03  0.7561462E-02  0.1276767E+00
          2   -1    0    0  501    0  0.00000000000E+00  0.00000000000E+00  0.52825868512E+03  0.52825868512E+03  0.00000000000E+00 0. -1.
         -2   -1    0    0    0  501 -0.00000000000E+00 -0.00000000000E+00 -0.25402064129E+02  0.25402064129E+02  0.00000000000E+00 0.  1.
         25    2    1    2    0    0  0.31071115581E+02  0.14987691316E+02  0.33963795206E+03  0.36358257367E+03  0.12509318240E+03 0.  0.
          5    1    3    3  502    0  0.35873785896E+02  0.67463006386E+02  0.21436795295E+03  0.22761651390E+03  0.41800000000E+01 0. -1.
         -5    1    3    3    0  502 -0.48026703152E+01 -0.52475315070E+02  0.12526999911E+03  0.13596605977E+03  0.41800000000E+01 0. -1.
        -11    1    1    2    0    0  0.11423884264E+02  0.17237948690E+02  0.26070896753E+01  0.20843438375E+02  0.00000000000E+00 0.  1.
         11    1    1    2    0    0 -0.42494999845E+02 -0.32225640007E+02  0.16061157925E+03  0.16923473720E+03  0.00000000000E+00 0. -1.
</event>
<event>
 7    1  0.2873461E-009  0.1166899E+03  0.7561462E-02  0.1248660E+00
         -2   -1    0    0    0  501 -0.00000000000E+00  0.00000000000E+00  0.11632999231E+03  0.11632999231E+03  0.00000000000E+00 0. -1.
          2   -1    0    0  501    0  0.00000000000E+00 -0.00000000000E+00 -0.31024479240E+03  0.31024479240E+03  0.00000000000E+00 0.  1.
         25    2    1    2    0    0 -0.91123262710E+01 -0.92330642580E+02  0.38592620675E+02  0.16045064593E+03  0.12508811838E+03 0.  0.
          5    1    3    3  502    0 -0.33918891860E+02 -0.32315354350E+02 -0.37624966736E+02  0.60231917400E+02  0.41800000000E+01 0. -1.
         -5    1    3    3    0  502  0.24806565589E+02 -0.60015288231E+02  0.76217587412E+02  0.10021872853E+03  0.41800000000E+01 0. -1.
        -11    1    1    2    0    0 -0.43262998828E+01  0.10362571441E+03 -0.22350164770E+03  0.24639397737E+03  0.00000000000E+00 0.  1.
         11    1    1    2    0    0  0.13438626154E+02 -0.11295071831E+02 -0.90057730667E+01  0.19730161406E+02  0.00000000000E+00 0. -1.
</event>
<event>
 7    1  0.2873461E-009  0.1674655E+03  0.7561462E-02  0.1180517E+00
          1   -1    0    0  501    0  0.00000000000E+00  0.00000000000E+00  0.34354169783E+03  0.34354169783E+03  0.00000000000E+00 0. -1.
         -1   -1    0    0    0  501 -0.00000000000E+00 -0.00000000000E+00 -0.92485829857E+02  0.92485829857E+02  0.00000000000E+00 0.  1.
         25    2    1    2    0    0  0.72678590397E+01  0.13994640465E+03  0.16024991262E+03  0.24690962882E+03  0.12508601986E+03 0.  0.
          5    1    3    3  502    0 -0.19609968207E+02  0.14596362649E+03  0.16202255056E+03  0.21899477254E+03  0.41800000000E+01 0.  1.
         -5    1    3    3    0  502  0.26877827247E+02 -0.60172218404E+01 -0.17726379414E+01  0.27914856286E+02  0.41800000000E+01 0.  1.
        -11    1    1    2    0    0  0.29460929010E+02 -0.23648118321E+02  0.12326641233E+01  0.37798138831E+02  0.00000000000E+00 0. -1.
         11    1    1    2    0    0 -0.36728788050E+02 -0.11629828633E+03  0.89573291239E+02  0.15131976004E+03  0.00000000000E+00 0.  1.
</event>
<event>
 7    1  0.2873461E-009  0.9776775E+02  0.7561462E-02  0.1285061E+00
         -3   -1    0    0    0  501 -0.00000000000E+00  0.00000000000E+00  0.42297444097E+02  0.42297444097E+02  0.00000000000E+00 0.  1.
          3   -1    0    0  501    0  0.00000000000E+00 -0.00000000000E+00 -0.33661645365E+03  0.33661645365E+03  0.00000000000E+00 0. -1.
         25    2    1    2    0    0 -0.13309974416E+02  0.39759365350E+01 -0.24656015875E+03  0.27682522334E+03  0.12508928373E+03 0.  0.
          5    1    3    3  502    0  0.25821078700E+02  0.53877527651E+02 -0.14673385367E+03  0.15848600034E+03  0.41800000000E+01 0.  1.
         -5    1    3    3    0  502 -0.39131053115E+02 -0.49901591116E+02 -0.99826305078E+02  0.11833922300E+03  0.41800000000E+01 0.  1.
        -11    1    1    2    0    0  0.31528612980E+02  0.23361062848E+02  0.53877562396E+01  0.39608340171E+02  0.00000000000E+00 0.  1.
         11    1    1    2    0    0 -0.18218638564E+02 -0.27336999383E+02 -0.53146607043E+02  0.62480334238E+02  0.00000000000E+00 0. -1.
</event>
<event>
 7    1  0.2873461E-009  0.1227869E+03  0.7561462E-02  0.1238569E+00
         -1   -1    0    0    0  501 -0.00000000000E+00  0.00000000000E+00  0.14926711353E+03  0.14926711353E+03  0.00000000000E+00 0.  1.
          1   -1    0    0  501    0  0.00000000000E+00 -0.00000000000E+00 -0.12824559831E+03  0.12824559831E+03  0.00000000000E+00 0. -1.
         25    2    1    2    0    0  0.24021868789E+02 -0.66650371935E+02  0.61046731795E+02  0.15618790759E+03  0.12509451129E+03 0.  0.
          5    1    3    3  502    0 -0.37525607968E+02  0.57970606533E+01 -0.74819116542E+01  0.38925936952E+02  0.41800000000E+01 0. -1.
         -5    1    3    3    0  502  0.61547476758E+02 -0.72447432588E+02  0.68528643449E+02  0.11726197063E+03  0.41800000000E+01 0. -1.
        -11    1    1    2    0    0 -0.39546203051E+02 -0.41263923468E+01 -0.26037566278E+02  0.47527719778E+02  0.00000000000E+00 0. -1.
         11    1    1    2    0    0  0.15524334262E+02  0.70776764282E+02 -0.13987650290E+02  0.73797084476E+02  0.00000000000E+00 0.  1.
</event>
<event>
 7    1  0.3075040E-009  0.1846203E+03  0.7561462E-02  0.1163405E+00
         -2   -1    0    0    0  501 -0.00000000000E+00  0.00000000000E+00  0.75887786236E+02  0.75887786236E+02  0.00000000000E+00 0.  1.
          2   -1    0    0  501    0  0.00000000000E+00 -0.00000000000E+00 -0.59127121083E+03  0.59127121083E+03  0.00000000000E+00 0. -1.
         25    2    1    2    0    0  0.17320411286E+03  0.39524935431E+02 -0.20857314601E+03  0.30118422056E+03  0.12508913720E+03 0.  0.
          5    1    3    3  502    0  0.78656579822E+02  0.50731470703E+02 -0.29319514026E+02  0.98171513035E+02  0.41800000000E+01 0.  1.
         -5    1    3    3    0  502  0.94547533034E+02 -0.11206535272E+02 -0.17925363199E+03  0.20301270752E+03  0.41800000000E+01 0.  1.
        -11    1    1    2    0    0 -0.13106909715E+03 -0.43070889271E+02 -0.15103390401E+03  0.20456160415E+03  0.00000000000E+00 0.  1.
         11    1    1    2    0    0 -0.42135015705E+02  0.35459538398E+01 -0.15577637457E+03  0.16141317236E+03  0.00000000000E+00 0. -1.
</event>
<event>
 7    1  0.2873461E-009  0.1396639E+03  0.7561462E-02  0.1213782E+00
          2   -1    0    0  501    0  0.00000000000E+00  0.00000000000E+00  0.30994989358E+03  0.30994989358E+03  0.00000000000E+00 0. -1.
         -2   -1    0    0    0  501 -0.00000000000E+00 -0.00000000000E+00 -0.72706995060E+02  0.72706995060E+02  0.00000000000E+00 0.  1.
         25    2    1    2    0    0 -0.79494857661E+02 -0.63341840724E+02  0.11925127097E+03  0.20049928516E+03  0.12508987385E+03 0.  0.
          5    1    3    3  502    0 -0.75125570309E+02 -0.93453892390E+02  0.12011754313E+03  0.16977390225E+03  0.41800000000E+01 0.  1.
         -5    1    3    3    0  502 -0.43692873514E+01  0.30112051666E+02 -0.86627216149E+00  0.30725382910E+02  0.41800000000E+01 0.  1.
        -11    1    1    2    0    0  0.91023585313E+02  0.70440823431E+02  0.75719608804E+02  0.13777032281E+03  0.00000000000E+00 0.  1.
         11    1    1    2    0    0 -0.11528727652E+02 -0.70989827065E+01  0.42272018745E+02  0.44387280672E+02  0.00000000000E+00 0. -1.
</event>
<event>
 7    1  0.2873461E-009  0.9681891E+02  0.7561462E-02  0.1287131E+00
         -1   -1    0    0    0  501 -0.00000000000E+00  0.00000000000E+00  0.59422717313E+02  0.59422717313E+02  0.00000000000E+00 0.  1.
          1   -1    0    0  501    0  0.00000000000E+00 -0.00000000000E+00 -0.63530745029E+03  0.63530745029E+03  0.00000000000E+00 0. -1.
         25    2    1    2    0    0 -0.38583307824E+02  0.52344589628E+02 -0.56484098643E+03  0.58216962562E+03  0.12508998898E+03 0.  0.
          5    1    3    3  502    0  0.17277225299E+02  0.32334789224E+02 -0.41796259239E+02  0.55753392673E+02  0.41800000000E+01 0. -1.
         -5    1    3    3    0  502 -0.55860533122E+02  0.20009800404E+02 -0.52304472719E+03  0.52641623295E+03  0.41800000000E+01 0. -1.
        -11    1    1    2    0    0  0.10277130084E+02 -0.65315635204E+02  0.19509330321E+02  0.68937403305E+02  0.00000000000E+00 0.  1.
         11    1    1    2    0    0  0.28306177740E+02  0.12971045576E+02 -0.30553076872E+02  0.43623138676E+02  0.00000000000E+00 0. -1.
</event>
<event>
 7    1  0.2873461E-009  0.1465966E+03  0.7561462E-02  0.1204719E+00
         -4   -1    0    0    0  501 -0.00000000000E+00  0.00000000000E+00  0.26977199354E+02  0.26977199354E+02  0.00000000000E+00 0.  1.
          4   -1    0    0  501    0  0.00000000000E+00 -0.00000000000E+00 -0.10443194951E+04  0.10443194951E+04  0.00000000000E+00 0. -1.
         25    2    1    2    0    0  0.41071912903E+02  0.12007492836E+03 -0.46446792003E+03  0.49747647026E+03  0.12508996472E+03 0.  0.
          5    1    3    3  502    0 -0.22333645071E+01 -0.62893789315E+01 -0.20913031003E+03  0.20927853014E+03  0.41800000000E+01 0.  1.
         -5    1    3    3    0  502  0.43305277410E+02  0.12636430729E+03 -0.25533761000E+03  0.28819794012E+03  0.41800000000E+01 0.  1.
        -11    1    1    2    0    0 -0.57508081507E+02 -0.40298844230E+02 -0.21106788819E+03  0.22244286842E+03  0.00000000000E+00 0.  1.
         11    1    1    2    0    0  0.16436168604E+02 -0.79776084127E+02 -0.34180648747E+03  0.35137735572E+03  0.00000000000E+00 0. -1.
</event>
<event>
 7    1  0.2873461E-009  0.1083627E+03  0.7561462E-02  0.1263632E+00
          1   -1    0    0  501    0  0.00000000000E+00  0.00000000000E+00  0.17558015983E+04  0.17558015983E+04  0.00000000000E+00 0. -1.
         -1   -1    0    0    0  501 -0.00000000000E+00 -0.00000000000E+00 -0.18092886505E+02  0.18092886505E+02  0.00000000000E+00 0.  1.
         25    2    1    2    0    0 -0.57357521198E+02 -0.60114187472E+02  0.14702112301E+04  0.14778611155E+04  0.12509522287E+03 0.  0.
          5    1    3    3  502    0 -0.56567301407E+02 -0.28435592925E+02  0.27509351555E+03  0.28231605911E+03  0.41800000000E+01 0.  1.
         -5    1    3    3    0  502 -0.79021979022E+00 -0.31678594548E+02  0.11951177145E+04  0.11955450564E+04  0.41800000000E+01 0.  1.
        -11    1    1    2    0    0  0.70064435470E+02  0.11421994038E+02  0.11206571977E+03  0.13265825498E+03  0.00000000000E+00 0.  1.
         11    1    1    2    0    0 -0.12706914272E+02  0.48692193434E+02  0.15543176194E+03  0.16337511436E+03  0.00000000000E+00 0. -1.
</event>
<event>
 7    1  0.2873461E-009  0.7669083E+02  0.7561462E-02  0.1338714E+00
         -1   -1    0    0    0  501 -0.00000000000E+00  0.00000000000E+00  0.63078346301E+02  0.63078346301E+02  0.00000000000E+00 0.  1.
          1   -1    0    0  501    0  0.00000000000E+00 -0.00000000000E+00 -0.25927151781E+03  0.25927151781E+03  0.00000000000E+00 0. -1.
         25    2    1    2    0    0 -0.36225396627E+02  0.12889502491E+01 -0.18381094429E+03  0.22527107327E+03  0.12508657984E+03 0.  0.
          5    1    3    3  502    0 -0.19667310359E+02 -0.41010444976E+02 -0.11604633481E+02  0.47125360604E+02  0.41800000000E+01 0.  1.
         -5    1    3    3    0  502 -0.16558086267E+02  0.42299395225E+02 -0.17220631081E+03  0.17814571266E+03  0.41800000000E+01 0.  1.
        -11    1    1    2    0    0 -0.53772651402E+01 -0.16839191777E+02 -0.40722255238E+02  0.44393416536E+02  0.00000000000E+00 0. -1.
         11    1    1    2    0    0  0.41602661767E+02  0.15550241528E+02  0.28340028020E+02  0.52685374307E+02  0.00000000000E+00 0.  1.
</event>
<event>
 7    1  0.2873461E-009  0.1433694E+03  0.7561462E-02  0.1208866E+00
          1   -1    0    0  501    0  0.00000000000E+00  0.00000000000E+00  0.12253968936E+04  0.12253968936E+04  0.00000000000E+00 0. -1.
         -1   -1    0    0    0  501 -0.00000000000E+00 -0.00000000000E+00 -0.25413379423E+02  0.25413379423E+02  0.00000000000E+00 0.  1.
         25    2    1    2    0    0  0.10738650090E+03 -0.52530232190E+02  0.89333969034E+03  0.90994266994E+03  0.12509426196E+03 0.  0.
          5    1    3    3  502    0  0.82214159989E+02 -0.87665812396E+02  0.76648484266E+03  0.77586142396E+03  0.41800000000E+01 0. -1.
         -5    1    3    3    0  502  0.25172340914E+02  0.35135580206E+02  0.12685484768E+03  0.13408124598E+03  0.41800000000E+01 0. -1.
        -11    1    1    2    0    0 -0.39269537335E+02  0.41095027400E+01  0.24180064720E+02  0.46299677160E+02  0.00000000000E+00 0.  1.
         11    1    1    2    0    0 -0.68116963567E+02  0.48420729450E+02  0.28246375909E+03  0.29456792590E+03  0.00000000000E+00 0. -1.
</event>
<event>
 7    1  0.2873461E-009  0.9921066E+02  0.7561462E-02  0.1281965E+00
          1   -1    0    0  501    0  0.00000000000E+00  0.00000000000E+00  0.17639302057E+03  0.17639302057E+03  0.00000000000E+00 0. -1.
         -1   -1    0    0    0  501 -0.00000000000E+00 -0.00000000000E+00 -0.89188360567E+02  0.89188360567E+02  0.00000000000E+00 0.  1.
         25    2    1    2    0    0 -0.22408435602E+02  0.37882149226E+02  0.16674751732E+01  0.13261913432E+03  0.12509140297E+03 0.  0.
          5    1    3    3  502    0  0.98298687013E+00 -0.39830452241E+02 -0.24844267735E+02  0.47139593000E+02  0.41800000000E+01 0.  1.
         -5    1    3    3    0  502 -0.23391422472E+02  0.77712601467E+02  0.26511742909E+02  0.85479541319E+02  0.41800000000E+01 0.  1.
        -11    1    1    2    0    0  0.25290851620E+02 -0.54577977092E+02  0.17211040957E+02  0.62566785837E+02  0.00000000000E+00 0.  1.
         11    1    1    2    0    0 -0.28824160183E+01  0.16695827866E+02  0.68326143878E+02  0.70395460986E+02  0.00000000000E+00 0. -1.
</event>
<event>
 7    1  0.2873461E-009  0.7993710E+02  0.7561462E-02  0.1329230E+00
          2   -1    0    0  501    0  0.00000000000E+00  0.00000000000E+00  0.71815602595E+02  0.71815602595E+02  0.00000000000E+00 0. -1.
         -2   -1    0    0    0  501 -0.00000000000E+00 -0.00000000000E+00 -0.21508541088E+03  0.21508541088E+03  0.00000000000E+00 0.  1.
         25    2    1    2    0    0 -0.11351303004E+02 -0.18697507334E+02 -0.14594444924E+03  0.19345802263E+03  0.12509106841E+03 0.  0.
          5    1    3    3  502    0 -0.72547942481E+00  0.36455548351E+02  0.34240104077E+00  0.36703173765E+02  0.41800000000E+01 0. -1.
         -5    1    3    3    0  502 -0.10625823579E+02 -0.55153055685E+02 -0.14628685028E+03  0.15675484887E+03  0.41800000000E+01 0. -1.
        -11    1    1    2    0    0  0.21497882566E+02 -0.18457514870E+02 -0.31203125486E+02  0.42148236619E+02  0.00000000000E+00 0.  1.
         11    1    1    2    0    0 -0.10146579563E+02  0.37155022204E+02  0.33877766441E+02  0.51294754223E+02  0.00000000000E+00 0. -1.
</event>
<event>
 7    1  0.2873461E-009  0.8726775E+02  0.7561462E-02  0.1309606E+00
          2   -1    0    0  501    0  0.00000000000E+00  0.00000000000E+00  0.17265688292E+03  0.17265688292E+03  0.00000000000E+00 0. -1.
         -2   -1    0    0    0  501 -0.00000000000E+00 -0.00000000000E+00 -0.89623095227E+02  0.89623095227E+02  0.00000000000E+00 0.  1.
         25    2    1    2    0    0 -0.93317068636E+01  0.38575070927E+02  0.39165826914E+01  0.13129938845E+03  0.12509625469E+03 0.  0.
          5    1    3    3  502    0  0.30484594959E+02 -0.14726455353E+02  0.42327709839E+02  0.54362546274E+02  0.41800000000E+01 0. -1.
         -5    1    3    3    0  502 -0.39816301823E+02  0.53301526281E+02 -0.38411127148E+02  0.76936842172E+02  0.41800000000E+01 0. -1.
        -11    1    1    2    0    0  0.36099445811E+02 -0.21809205680E+02 -0.37067526728E+01  0.42338533934E+02  0.00000000000E+00 0.  1.
         11    1    1    2    0    0 -0.26767738948E+02 -0.16765865247E+02  0.82823957678E+02  0.88642055771E+02  0.00000000000E+00 0. -1.
</event>
<event>
 7    1  0.2873461E-009  0.9439817E+02  0.7561462E-02  0.1292537E+00
         -1   -1    0    0    0  501 -0.00000000000E+00  0.00000000000E+00  0.51120814162E+02  0.51120814162E+02  0.00000000000E+00 0.  1.
          1   -1    0    0  501    0  0.00000000000E+00 -0.00000000000E+00 -0.32737976742E+03  0.32737976742E+03  0.00000000000E+00 0. -1.
         25    2    1    2    0    0 -0.62794239033E+02  0.89190867358E+01 -0.10861747890E+03  0.17739070302E+03  0.12508812186E+03 0.  0.
          5    1    3    3  502    0 -0.60326523307E+02 -0.18764717051E+02 -0.12830372721E+03  0.14307593381E+03  0.41800000000E+01 0.  1.
         -5    1    3    3    0  502 -0.24677157258E+01  0.27683803787E+02  0.19686248311E+02  0.34314769205E+02  0.41800000000E+01 0.  1.
        -11    1    1    2    0    0  0.74916224899E+02  0.92999654434E+01 -0.16166957635E+03  0.17842640507E+03  0.00000000000E+00 0.  1.
         11    1    1    2    0    0 -0.12121985866E+02 -0.18219052179E+02 -0.59718980046E+01  0.22683473487E+02  0.00000000000E+00 0. -1.
</event>
<event>
 7    1  0.2873461E-009  0.1384450E+03  0.7561462E-02  0.1215437E+00
          2   -1    0    0  501    0  0.00000000000E+00  0.00000000000E+00  0.62435883775E+02  0.62435883775E+02  0.00000000000E+00 0. -1.
         -2   -1    0    0    0  501 -0.00000000000E+00 -0.00000000000E+00 -0.36100442295E+03  0.36100442295E+03  0.00000000000E+00 0.  1.
         25    2    1    2    0    0  0.70252655108E+02  0.73975402813E+02 -0.14212603719E+03  0.21508211712E+03  0.12511079444E+03 0.  0.
          5    1    3    3  502    0  0.87568789874E+02  0.95923872848E+02 -0.13151825206E+03  0.18488971136E+03  0.41800000000E+01 0. -1.
         -5    1    3    3    0  502 -0.17316134766E+02 -0.21948470034E+02 -0.10607785133E+02  0.30192405759E+02  0.41800000000E+01 0. -1.
        -11    1    1    2    0    0 -0.56906373101E+02 -0.15904623688E+02 -0.25225991521E+02  0.64246735344E+02  0.00000000000E+00 0. -1.
         11    1    1    2    0    0 -0.13346282007E+02 -0.58070779126E+02 -0.13121651046E+03  0.14411145426E+03  0.00000000000E+00 0.  1.
</event>
<event>
 7    1  0.2873461E-009  0.1121602E+03  0.7561462E-02  0.1256621E+00
         -1   -1    0    0    0  501 -0.00000000000E+00  0.00000000000E+00  0.18536768872E+02  0.18536768872E+02  0.00000000000E+00 0.  1.
          1   -1    0    0  501    0  0.00000000000E+00 -0.00000000000E+00 -0.96758118637E+03  0.96758118637E+03  0.00000000000E+00 0. -1.
         25    2    1    2    0    0  0.61993964032E+02 -0.26043555690E+02 -0.70514522352E+03  0.71930454804E+03  0.12509087978E+03 0.  0.
          5    1    3    3  502    0 -0.27321974977E+02 -0.33901780954E+02 -0.36125370107E+03  0.36389219559E+03  0.41800000000E+01 0. -1.
         -5    1    3    3    0  502  0.89315939009E+02  0.78582252640E+01 -0.34389152245E+03  0.35541235245E+03  0.41800000000E+01 0. -1.
        -11    1    1    2    0    0 -0.60972335621E+02 -0.36766906585E+01 -0.22098433949E+03  0.22927106679E+03  0.00000000000E+00 0. -1.
         11    1    1    2    0    0 -0.10216284106E+01  0.29720246349E+02 -0.22914854480E+02  0.37542340410E+02  0.00000000000E+00 0.  1.
</event>
<event>
 7    1  0.2873461E-009  0.1145426E+03  0.7561462E-02  0.1252382E+00
          4   -1    0    0  501    0  0.00000000000E+00  0.00000000000E+00  0.42024937447E+02  0.42024937447E+02  0.00000000000E+00 0. -1.
         -4   -1    0    0    0  501 -0.00000000000E+00 -0.00000000000E+00 -0.40170245610E+03  0.40170245610E+03  0.00000000000E+00 0.  1.
         25    2    1    2    0    0 -0.49765259771E+02  0.44821140580E+02 -0.17476765731E+03  0.22511385793E+03  0.12508796612E+03 0.  0.
          5    1    3    3  502    0 -0.54792446119E+01  0.65187721871E+02 -0.16169028485E+03  0.17447258185E+03  0.41800000000E+01 0. -1.
         -5    1    3    3    0  502 -0.44286015159E+02 -0.20366581292E+02 -0.13077372465E+02  0.50641276078E+02  0.41800000000E+01 0. -1.
        -11    1    1    2    0    0 -0.20357196926E+02 -0.39314208751E+02 -0.91838935522E+02  0.10195299188E+03  0.00000000000E+00 0.  1.
         11    1    1    2    0    0  0.70122456697E+02 -0.55069318283E+01 -0.93070925823E+02  0.11666054374E+03  0.00000000000E+00 0. -1.
</event>
<event>
 7    1  0.2873461E-009  0.6488542E+02  0.7561462E-02  0.1378403E+00
         -2   -1    0    0    0  501 -0.00000000000E+00  0.00000000000E+00  0.48281443608E+02  0.48281443608E+02  0.00000000000E+00 0.  1.
          2   -1    0    0  501    0  0.00000000000E+00 -0.00000000000E+00 -0.32092866839E+03  0.32092866839E+03  0.00000000000E+00 0. -1.
         25    2    1    2    0    0  0.33224152803E+02  0.47827132278E+01 -0.22807638079E+03  0.26228479518E+03  0.12509100542E+03 0.  0.
          5    1    3    3  502    0 -0.24376679106E+00  0.23147141430E+02 -0.22219134942E+03  0.22343302741E+03  0.41800000000E+01 0.  1.
         -5    1    3    3    0  502  0.33467919594E+02 -0.18364428202E+02 -0.58850313646E+01  0.38851767776E+02  0.41800000000E+01 0.  1.
        -11    1    1    2    0    0  0.15566241256E+02  0.78666698577E+01  0.19003904675E+02  0.25794200014E+02  0.00000000000E+00 0.  1.
         11    1    1    2    0    0 -0.48790394059E+02 -0.12649383086E+02 -0.63574748675E+02  0.81131116805E+02  0.00000000000E+00 0. -1.
</event>
<event>
 7    1  0.2873461E-009  0.3133602E+03  0.7561462E-02  0.1078746E+00
         -2   -1    0    0    0  501 -0.00000000000E+00  0.00000000000E+00  0.25429296796E+03  0.25429296796E+03  0.00000000000E+00 0.  1.
          2   -1    0    0  501    0  0.00000000000E+00 -0.00000000000E+00 -0.40251266290E+03  0.40251266290E+03  0.00000000000E+00 0. -1.
         25    2    1    2    0    0 -0.22488598062E+03  0.19974305557E+03 -0.84582669333E+02  0.33656155943E+03  0.12509381602E+03 0.  0.
          5    1    3    3  502    0 -0.10753162249E+03  0.19464798850E+02 -0.42540465112E+02  0.11734177348E+03  0.41800000000E+01 0. -1.
         -5    1    3    3    0  502 -0.11735435812E+03  0.18027825672E+03 -0.42042204222E+02  0.21921978595E+03  0.41800000000E+01 0. -1.
        -11    1    1    2    0    0  0.18186756937E+03 -0.17595550191E+03 -0.84575900486E+02  0.26681310759E+03  0.00000000000E+00 0. -1.
         11    1    1    2    0    0  0.43018411250E+02 -0.23787553662E+02  0.20938874880E+02  0.53430963841E+02  0.00000000000E+00 0.  1.
</event>
<event>
 7    1  0.2873461E-009  0.1161136E+03  0.7561462E-02  0.1249650E+00
          1   -1    0    0  501    0  0.00000000000E+00  0.00000000000E+00  0.31421281517E+03  0.31421281517E+03  0.00000000000E+00 0. -1.
         -1   -1    0    0    0  501 -0.00000000000E+00 -0.00000000000E+00 -0.47648571579E+02  0.47648571579E+02  0.00000000000E+00 0.  1.
         25    2    1    2    0    0 -0.56168723913E+02 -0.94041114753E+01  0.18046840328E+03  0.22684479855E+03  0.12508539158E+03 0.  0.
          5    1    3    3  502    0 -0.10886256350E+02 -0.64752456824E+02  0.87890707007E+02  0.10978907059E+03  0.41800000000E+01 0. -1.
         -5    1    3    3    0  502 -0.45282467563E+02  0.55348345348E+02  0.92577696270E+02  0.11705572796E+03  0.41800000000E+01 0. -1.
        -11    1    1    2    0    0 -0.81143007656E+01 -0.21859461071E+02  0.49487274972E+02  0.54705285844E+02  0.00000000000E+00 0.  1.
         11    1    1    2    0    0  0.64283024679E+02  0.31263572546E+02  0.36608565344E+02  0.80311302359E+02  0.00000000000E+00 0. -1.
</event>
<event>
 7    1  0.2873461E-009  0.1082040E+03  0.7561462E-02  0.1263932E+00
         -2   -1    0    0    0  501 -0.00000000000E+00  0.00000000000E+00  0.45203068203E+02  0.45203068203E+02  0.00000000000E+00 0.  1.
          2   -1    0    0  501    0  0.00000000000E+00 -0.00000000000E+00 -0.41181652443E+03  0.41181652443E+03  0.00000000000E+00 0. -1.
         25    2    1    2    0    0  0.40240890626E+02  0.33014141313E+02 -0.92712508776E+02  0.16417341319E+03  0.12509211610E+03 0.  0.
          5    1    3    3  502    0  0.58420719734E+02  0.70220194199E+02 -0.48708554056E+02  0.10360430399E+03  0.41800000000E+01 0. -1.
         -5    1    3    3    0  502 -0.18179829108E+02 -0.37206052887E+02 -0.44003954721E+02  0.60569109197E+02  0.41800000000E+01 0. -1.
        -11    1    1    2    0    0 -0.53902546315E+02 -0.75216887508E+01 -0.24838315168E+03  0.25427593347E+03  0.00000000000E+00 0. -1.
         11    1    1    2    0    0  0.13661655689E+02 -0.25492452562E+02 -0.25517795768E+02  0.38570245976E+02  0.00000000000E+00 0.  1.
</event>
<event>
 7    1  0.2873461E-009  0.9966655E+02  0.7561462E-02  0.1280999E+00
         -3   -1    0    0    0  501 -0.00000000000E+00  0.00000000000E+00  0.24171839891E+02  0.24171839891E+02  0.00000000000E+00 0.  1.
          3   -1    0    0  501    0  0.00000000000E+00 -0.00000000000E+00 -0.53679885329E+03  0.53679885329E+03  0.00000000000E+00 0. -1.
         25    2    1    2    0    0  0.32020335994E+02  0.87872940077E+01 -0.25649261943E+03  0.28729578402E+03  0.12509150746E+03 0.  0.
          5    1    3    3  502    0  0.55098015968E+02 -0.43431848409E+02 -0.11659663957E+03  0.13614097685E+03  0.41800000000E+01 0. -1.
         -5    1    3    3    0  502 -0.23077679974E+02  0.52219142417E+02 -0.13989597987E+03  0.15115480717E+03  0.41800000000E+01 0. -1.
        -11    1    1    2    0    0 -0.34718536869E+02  0.21868930275E+02 -0.22899734214E+03  0.23264438446E+03  0.00000000000E+00 0. -1.
         11    1    1    2    0    0  0.26982008749E+01 -0.30656224282E+02 -0.27137051823E+02  0.41030524696E+02  0.00000000000E+00 0.  1.
</event>
<event>
 7    1  0.2873461E-009  0.1353217E+03  0.7561462E-02  0.1219766E+00
         -1   -1    0    0    0  501 -0.00000000000E+00  0.00000000000E+00  0.52338141862E+02  0.52338141862E+02  0.00000000000E+00 0.  1.
          1   -1    0    0  501    0  0.00000000000E+00 -0.00000000000E+00 -0.50798459895E+03  0.50798459895E+03  0.00000000000E+00 0. -1.
         25    2    1    2    0    0  0.11884410125E+02 -0.86897933643E+02 -0.38658100200E+03  0.41567390573E+03  0.12508970667E+03 0.  0.
          5    1    3    3  502    0  0.61500843396E+02 -0.67918977680E+02 -0.17612864982E+03  0.19858024815E+03  0.41800000000E+01 0. -1.
         -5    1    3    3    0  502 -0.49616433271E+02 -0.18978955962E+02 -0.21045235219E+03  0.21709365758E+03  0.41800000000E+01 0. -1.
        -11    1    1    2    0    0  0.23182701473E+02  0.87544881011E+02 -0.39602274772E+02  0.98842723586E+02  0.00000000000E+00 0. -1.
         11    1    1    2    0    0 -0.35067111597E+02 -0.64694736865E+00 -0.29463180315E+02  0.45806111503E+02  0.00000000000E+00 0.  1.
</event>
<event>
 7    1  0.2873461E-009  0.1947945E+03  0.7561462E-02  0.1154207E+00
         -3   -1    0    0    0  501 -0.00000000000E+00  0.00000000000E+00  0.13983710500E+03  0.13983710500E+03  0.00000000000E+00 0.  1.
          3   -1    0    0  501    0  0.00000000000E+00 -0.00000000000E+00 -0.41341141241E+03  0.41341141241E+03  0.00000000000E+00 0. -1.
         25    2    1    2    0    0 -0.12199003871E+02  0.18160852845E+03 -0.10964568138E+02  0.22112898076E+03  0.12508929241E+03 0.  0.
          5    1    3    3  502    0  0.11164785195E+02  0.22653698477E+02 -0.49614990595E+02  0.55829760656E+02  0.41800000000E+01 0. -1.
         -5    1    3    3    0  502 -0.23363789065E+02  0.15895482997E+03  0.38650422457E+02  0.16529922010E+03  0.41800000000E+01 0. -1.
        -11    1    1    2    0    0  0.44713652678E+02 -0.47318386239E+02 -0.87507122244E+02  0.10906803774E+03  0.00000000000E+00 0. -1.
         11    1    1    2    0    0 -0.32514648808E+02 -0.13429014221E+03 -0.17510261703E+03  0.22305149892E+03  0.00000000000E+00 0.  1.
</event>
<event>
 7    1  0.2873461E-009  0.1755761E+03  0.7561462E-02  0.1172155E+00
         -1   -1    0    0    0  501 -0.00000000000E+00  0.00000000000E+00  0.98464421868E+03  0.98464421868E+03  0.00000000000E+00 0.  1.
          1   -1    0    0  501    0  0.00000000000E+00 -0.00000000000E+00 -0.44538323101E+02  0.44538323101E+02  0.00000000000E+00 0. -1.
         25    2    1    2    0    0  0.13910994782E+03  0.10236231738E+03  0.37625833445E+03  0.43248886770E+03  0.12508662934E+03 0.  0.
          5    1    3    3  502    0  0.81986592258E+02  0.44661112746E+02  0.73187800582E+02  0.11870274999E+03  0.41800000000E+01 0.  1.
         -5    1    3    3    0  502  0.57123355561E+02  0.57701204636E+02  0.30307053387E+03  0.31378611771E+03  0.41800000000E+01 0.  1.
        -11    1    1    2    0    0 -0.12824581838E+03 -0.78987022329E+02  0.54311700692E+03  0.56361513716E+03  0.00000000000E+00 0.  1.
         11    1    1    2    0    0 -0.10864129435E+02 -0.23375295053E+02  0.20730554217E+02  0.33078536929E+02  0.00000000000E+00 0. -1.
</event>
<event>
 7    1  0.2873461E-009  0.8434831E+02  0.7561462E-02  0.1317146E+00
         -1   -1    0    0    0  501 -0.00000000000E+00  0.00000000000E+00  0.48375639989E+02  0.48375639989E+02  0.00000000000E+00 0.  1.
          1   -1    0    0  501    0  0.00000000000E+00 -0.00000000000E+00 -0.28965493985E+03  0.28965493985E+03  0.00000000000E+00 0. -1.
         25    2    1    2    0    0 -0.52958268736E+02 -0.62210121387E+01 -0.14168321969E+03  0.19638380492E+03  0.12509670208E+03 0.  0.
          5    1    3    3  502    0  0.15149667217E+02 -0.11113929372E+02  0.15658435561E+02  0.24813118447E+02  0.41800000000E+01 0.  1.
         -5    1    3    3    0  502 -0.68107935953E+02  0.48929172335E+01 -0.15734165525E+03  0.17157068647E+03  0.41800000000E+01 0.  1.
        -11    1    1    2    0    0 -0.13919698904E+02  0.11040897743E+01  0.70650225082E+01  0.15649011945E+02  0.00000000000E+00 0.  1.
         11    1    1    2    0    0  0.66877967640E+02  0.51169223644E+01 -0.10666110268E+03  0.12599776298E+03  0.00000000000E+00 0. -1.
</event>
<event>
 7    1  0.2873461E-009  0.1564135E+03  0.7561462E-02  0.1192806E+00
         -2   -1    0    0    0  501 -0.00000000000E+00  0.00000000000E+00  0.44702253104E+02  0.44702253104E+02  0.00000000000E+00 0.  1.
          2   -1    0    0  501    0  0.00000000000E+00 -0.00000000000E+00 -0.65347198226E+03  0.65347198226E+03  0.00000000000E+00 0. -1.
         25    2    1    2    0    0 -0.12744253071E+03  0.12512273927E+02 -0.38926692024E+03  0.42845650373E+03  0.12509230498E+03 0.  0.
          5    1    3    3  502    0  0.16097281884E+02 -0.13154222940E+02 -0.12928994847E+02  0.24835204307E+02  0.41800000000E+01 0. -1.
         -5    1    3    3    0  502 -0.14353981260E+03  0.25666496867E+02 -0.37633792539E+03  0.40362129943E+03  0.41800000000E+01 0. -1.
        -11    1    1    2    0    0  0.96458010939E+02 -0.39907454417E+02 -0.10537095389E+03  0.14832326424E+03  0.00000000000E+00 0.  1.
         11    1    1    2    0    0  0.30984519775E+02  0.27395180490E+02 -0.11413185503E+03  0.12139446739E+03  0.00000000000E+00 0. -1.
</event>
<event>
 7    1  0.2873461E-009  0.1640773E+03  0.7561462E-02  0.1184169E+00
         -1   -1    0    0    0  501 -0.00000000000E+00  0.00000000000E+00  0.48344166562E+02  0.48344166562E+02  0.00000000000E+00 0.  1.
          1   -1    0    0  501    0  0.00000000000E+00 -0.00000000000E+00 -0.80362903681E+03  0.80362903681E+03  0.00000000000E+00 0. -1.
         25    2    1    2    0    0 -0.47980146758E+02  0.15266907357E+03 -0.49274217452E+03  0.53296709712E+03  0.12509650496E+03 0.  0.
          5    1    3    3  502    0 -0.26444641060E+02  0.40118607870E+02 -0.33217598403E+03  0.33565931910E+03  0.41800000000E+01 0. -1.
         -5    1    3    3    0  502 -0.21535505698E+02  0.11255046570E+03 -0.16056619050E+03  0.19730777802E+03  0.41800000000E+01 0. -1.
        -11    1    1    2    0    0  0.14477985148E+02 -0.11027201718E+03 -0.10695227773E+03  0.15429944762E+03  0.00000000000E+00 0.  1.
         11    1    1    2    0    0  0.33502161610E+02 -0.42397056395E+02 -0.15559041800E+03  0.16470665863E+03  0.00000000000E+00 0. -1.
</event>
<event>
 6    1  0.2873461E-009  0.1742199E+03  0.7561462E-02  0.1173517E+00
         -2   -1    0    0    0  501 -0.00000000000E+00  0.00000000000E+00  0.46899669019E+03  0.46899669019E+03  0.00000000000E+00 0.  1.
          2   -1    0    0  501    0  0.00000000000E+00 -0.00000000000E+00 -0.10564449554E+03  0.10564449554E+03  0.00000000000E+00 0. -1.
          5    1    1    2  502    0  0.88115109693E+01 -0.17174935685E+03  0.15687920270E+02  0.17273988406E+03  0.41800000000E+01 0. -1.
         -5    1    1    2    0  502  0.77617710789E+01  0.96195353020E+01  0.37355505484E+02  0.39568759643E+02  0.41800000000E+01 0. -1.
        -11    1    1    2    0    0 -0.15362233791E+02  0.95731686303E+02  0.26435426576E+03  0.28157367031E+03  0.00000000000E+00 0.  1.
         11    1    1    2    0    0 -0.12110482573E+01  0.66398135245E+02  0.45954503133E+02  0.80758871711E+02  0.00000000000E+00 0. -1.
</event>
<event>
 7    1  0.2873461E-009  0.9789718E+02  0.7561462E-02  0.1284781E+00
         -2   -1    0    0    0  501 -0.00000000000E+00  0.00000000000E+00  0.22272878576E+02  0.22272878576E+02  0.00000000000E+00 0.  1.
          2   -1    0    0  501    0  0.00000000000E+00 -0.00000000000E+00 -0.74633048189E+03  0.74633048189E+03  0.00000000000E+00 0. -1.
         25    2    1    2    0    0  0.53322602505E+02 -0.42563328477E+02 -0.37918173678E+03  0.40506868460E+03  0.12508762075E+03 0.  0.
          5    1    3    3  502    0 -0.66330156583E+01 -0.94398777095E+01  0.61136208711E+01  0.13709739168E+02  0.41800000000E+01 0. -1.
         -5    1    3    3    0  502  0.59955618164E+02 -0.33123450767E+02 -0.38529535765E+03  0.39135894543E+03  0.41800000000E+01 0. -1.
        -11    1    1    2    0    0 -0.79772691141E+02  0.36683973635E+02 -0.25800325440E+03  0.27253453993E+03  0.00000000000E+00 0.  1.
         11    1    1    2    0    0  0.26450088636E+02  0.58793548420E+01 -0.86872612136E+02  0.91000135942E+02  0.00000000000E+00 0. -1.
</event>
<event>
 7    1  0.2873461E-009  0.9371753E+02  0.7561462E-02  0.1294091E+00
         -2   -1    0    0    0  501 -0.00000000000E+00  0.00000000000E+00  0.60447958571E+02  0.60447958571E+02  0.00000000000E+00 0. -1.
          2   -1    0    0  501    0  0.00000000000E+00 -0.00000000000E+00 -0.32002246858E+03  0.32002246858E+03  0.00000000000E+00 0.  1.
         25    2    1    2    0    0 -0.66485898396E+02 -0.18972963538E+01 -0.65593271243E+02  0.15612143471E+03  0.12508977067E+03 0.  0.
          5    1    3    3  502    0 -0.59709439257E+02  0.19906662346E+02  0.20990783269E+02  0.66479904666E+02  0.41800000000E+01 0.  1.
         -5    1    3    3    0  502 -0.67764591386E+01 -0.21803958700E+02 -0.86584054511E+02  0.89641530046E+02  0.41800000000E+01 0.  1.
        -11    1    1    2    0    0  0.54210429985E+02  0.35882125406E+02 -0.16713642251E+03  0.17933455153E+03  0.00000000000E+00 0.  1.
         11    1    1    2    0    0  0.12275468410E+02 -0.33984829053E+02 -0.26844816255E+02  0.45014440907E+02  0.00000000000E+00 0. -1.
</event>
<event>
 7    1  0.2873461E-009  0.9071481E+02  0.7561462E-02  0.1301130E+00
          1   -1    0    0  501    0  0.00000000000E+00  0.00000000000E+00  0.12138440770E+03  0.12138440770E+03  0.00000000000E+00 0. -1.
         -1   -1    0    0    0  501 -0.00000000000E+00 -0.00000000000E+00 -0.14480206361E+03  0.14480206361E+03  0.00000000000E+00 0.  1.
         25    2    1    2    0    0 -0.70239808375E+01  0.52037725789E+02  0.43410132056E+02  0.14242933342E+03  0.12507763285E+03 0.  0.
          5    1    3    3  502    0 -0.49839622618E+02  0.65719218609E+02  0.42945850862E+01  0.82697760177E+02  0.41800000000E+01 0.  1.
         -5    1    3    3    0  502  0.42815641781E+02 -0.13681492820E+02  0.39115546970E+02  0.59731573239E+02  0.41800000000E+01 0.  1.
        -11    1    1    2    0    0 -0.30787920053E+01 -0.14825268419E+02 -0.81204948318E+02  0.82604546941E+02  0.00000000000E+00 0.  1.
         11    1    1    2    0    0  0.10102772843E+02 -0.37212457369E+02  0.14377160356E+02  0.41152590957E+02  0.00000000000E+00 0. -1.
</event>
<event>
 7    1  0.2873461E-009  0.1349945E+03  0.7561462E-02  0.1220227E+00
         -1   -1    0    0    0  501 -0.00000000000E+00  0.00000000000E+00  0.58345790820E+02  0.58345790820E+02  0.00000000000E+00 0.  1.
          1   -1    0    0  501    0  0.00000000000E+00 -0.00000000000E+00 -0.40484941231E+03  0.40484941231E+03  0.00000000000E+00 0. -1.
         25    2    1    2    0    0  0.40823562983E+02  0.77200256286E+02 -0.89074439124E+02  0.17666085500E+03  0.12509340158E+03 0.  0.
          5    1    3    3  502    0  0.73045991204E+02  0.89113504997E+02 -0.53768486895E+02  0.12722207429E+03  0.41800000000E+01 0. -1.
         -5    1    3    3    0  502 -0.32222428222E+02 -0.11913248711E+02 -0.35305952229E+02  0.49438780710E+02  0.41800000000E+01 0. -1.
        -11    1    1    2    0    0 -0.35883525869E+02  0.63012558803E+01 -0.12229297087E+03  0.12760448260E+03  0.00000000000E+00 0. -1.
         11    1    1    2    0    0 -0.49400371135E+01 -0.83501512166E+02 -0.13513621150E+03  0.15892986553E+03  0.00000000000E+00 0.  1.
</event>
<event>
 7    1  0.2873461E-009  0.1030521E+03  0.7561462E-02  0.1274006E+00
          1   -1    0    0  501    0  0.00000000000E+00  0.00000000000E+00  0.36741112734E+02  0.36741112734E+02  0.00000000000E+00 0. -1.
         -1   -1    0    0    0  501 -0.00000000000E+00 -0.00000000000E+00 -0.54389800766E+03  0.54389800766E+03  0.00000000000E+00 0.  1.
         25    2    1    2    0    0 -0.63983064451E+02  0.49720723799E+02 -0.36174315865E+03  0.39124915184E+03  0.12510716637E+03 0.  0.
          5    1    3    3  502    0 -0.42207130294E+02  0.16148316819E+02 -0.34449897732E+03  0.34747550671E+03  0.41800000000E+01 0. -1.
         -5    1    3    3    0  502 -0.21775934156E+02  0.33572406980E+02 -0.17244181323E+02  0.43773645134E+02  0.41800000000E+01 0. -1.
        -11    1    1    2    0    0  0.50842841953E+02  0.16127959020E+02 -0.75630979678E+02  0.92548099532E+02  0.00000000000E+00 0.  1.
         11    1    1    2    0    0  0.13140222498E+02 -0.65848682819E+02 -0.69782756598E+02  0.96841869018E+02  0.00000000000E+00 0. -1.
</event>
<event>
 7    1  0.2873461E-009  0.1044617E+03  0.7561462E-02  0.1271184E+00
         -3   -1    0    0    0  501 -0.00000000000E+00  0.00000000000E+00  0.36822350595E+03  0.36822350595E+03  0.00000000000E+00 0.  1.
          3   -1    0    0  501    0  0.00000000000E+00 -0.00000000000E+00 -0.39485574310E+02  0.39485574310E+02  0.00000000000E+00 0. -1.
         25    2    1    2    0    0  0.84114194495E+01  0.27665514637E+02  0.11086796539E+03  0.16963077278E+03  0.12508701231E+03 0.  0.
          5    1    3    3  502    0  0.39017372702E+02 -0.38633297148E+02  0.52048356253E+02  0.75771965856E+02  0.41800000000E+01 0.  1.
         -5    1    3    3    0  502 -0.30605953253E+02  0.66298811785E+02  0.58819609134E+02  0.93858806925E+02  0.41800000000E+01 0.  1.
        -11    1    1    2    0    0  0.26070440582E+02  0.11533545028E+02  0.14875310165E+03  0.15146014586E+03  0.00000000000E+00 0.  1.
         11    1    1    2    0    0 -0.34481860031E+02 -0.39199059665E+02  0.69116864597E+02  0.86618161615E+02  0.00000000000E+00 0. -1.
</event>
<event>
 6    1  0.2873461E-009  0.8293157E+02  0.7561462E-02  0.1320932E+00
         -3   -1    0    0    0  501 -0.00000000000E+00  0.00000000000E+00  0.18329404493E+02  0.18329404493E+02  0.00000000000E+00 0.  1.
          3   -1    0    0  501    0  0.00000000000E+00 -0.00000000000E+00 -0.70772137657E+03  0.70772137657E+03  0.00000000000E+00 0. -1.
          5    1    1    2  502    0 -0.42811240229E+02 -0.87650240544E+01 -0.29942938689E+03  0.30263023324E+03  0.41800000000E+01 0. -1.
         -5    1    1    2    0  502  0.29713998325E+02 -0.15291070135E+02 -0.14524905645E+02  0.36676747489E+02  0.41800000000E+01 0. -1.
        -11    1    1    2    0    0  0.47436613203E+02  0.20099416657E+01 -0.14095150711E+03  0.14873331669E+03  0.00000000000E+00 0.  1.
         11    1    1    2    0    0 -0.34339371299E+02  0.22046152524E+02 -0.23448617243E+03  0.23801048364E+03  0.00000000000E+00 0. -1.
</event>
<event>
 7    1  0.2873461E-009  0.2042382E+03  0.7561462E-02  0.1146212E+00
         -4   -1    0    0    0  501 -0.00000000000E+00  0.00000000000E+00  0.44509832053E+03  0.44509832053E+03  0.00000000000E+00 0.  1.
          4   -1    0    0  501    0  0.00000000000E+00 -0.00000000000E+00 -0.10094875184E+03  0.10094875184E+03  0.00000000000E+00 0. -1.
         25    2    1    2    0    0 -0.17980795706E+03 -0.25051949907E+02  0.18568826422E+03  0.28825038850E+03  0.12509857469E+03 0.  0.
          5    1    3    3  502    0 -0.15076126832E+03 -0.57776972610E+02  0.94757397505E+02  0.18725270458E+03  0.41800000000E+01 0. -1.
         -5    1    3    3    0  502 -0.29046688739E+02  0.32725022703E+02  0.90930866711E+02  0.10099768393E+03  0.41800000000E+01 0. -1.
        -11    1    1    2    0    0  0.18216798885E+03  0.41137918298E+02  0.14956374914E+03  0.23926307601E+03  0.00000000000E+00 0.  1.
         11    1    1    2    0    0 -0.23600317925E+01 -0.16085968392E+02  0.88975553405E+01  0.18533607857E+02  0.00000000000E+00 0. -1.
</event>
<event>
 7    1  0.2891642E-009  0.1373045E+03  0.7561462E-02  0.1217003E+00
          2   -1    0    0  501    0  0.00000000000E+00  0.00000000000E+00  0.74142152060E+03  0.74142152060E+03  0.00000000000E+00 0.  1.
         -2   -1    0    0    0  501 -0.00000000000E+00 -0.00000000000E+00 -0.40249767874E+02  0.40249767874E+02  0.00000000000E+00 0. -1.
         25    2    1    2    0    0  0.91645732634E+02  0.89912074114E+02  0.28454136604E+03  0.33629492918E+03  0.12508944407E+03 0.  0.
          5    1    3    3  502    0  0.14230979028E+02  0.20482541729E+02 -0.74072963287E+01  0.26351389312E+02  0.41800000000E+01 0.  1.
         -5    1    3    3    0  502  0.77414753607E+02  0.69429532384E+02  0.29194866237E+03  0.30994353987E+03  0.41800000000E+01 0.  1.
        -11    1    1    2    0    0 -0.36284063517E+01 -0.47334695880E+02  0.22823602089E+03  0.23312104152E+03  0.00000000000E+00 0.  1.
         11    1    1    2    0    0 -0.88017326283E+02 -0.42577378233E+02  0.18839436579E+03  0.21225531777E+03  0.00000000000E+00 0. -1.
</event>
<event>
 7    1  0.2873461E-009  0.1444689E+03  0.7561462E-02  0.1207439E+00
          1   -1    0    0  501    0  0.00000000000E+00  0.00000000000E+00  0.27620392208E+03  0.27620392208E+03  0.00000000000E+00 0. -1.
         -1   -1    0    0    0  501 -0.00000000000E+00 -0.00000000000E+00 -0.87775875001E+02  0.87775875001E+02  0.00000000000E+00 0.  1.
         25    2    1    2    0    0 -0.10422929952E+03 -0.38684281411E+02  0.11068829928E+03  0.20064695216E+03  0.12508828605E+03 0.  0.
          5    1    3    3  502    0 -0.12143427493E+03 -0.20818760755E+02  0.12166466066E+03  0.17320353917E+03  0.41800000000E+01 0.  1.
         -5    1    3    3    0  502  0.17204975416E+02 -0.17865520655E+02 -0.10976361378E+02  0.27443412989E+02  0.41800000000E+01 0.  1.
        -11    1    1    2    0    0 -0.82723613753E+01  0.26011212798E+02  0.29733298815E+02  0.40361915370E+02  0.00000000000E+00 0. -1.
         11    1    1    2    0    0  0.11250166089E+03  0.12673068613E+02  0.48006448985E+02  0.12297092955E+03  0.00000000000E+00 0.  1.
</event>
<event>
 7    1  0.2873461E-009  0.2162112E+03  0.7561462E-02  0.1136740E+00
         -2   -1    0    0    0  501 -0.00000000000E+00  0.00000000000E+00  0.90193126906E+02  0.90193126906E+02  0.00000000000E+00 0.  1.
          2   -1    0    0  501    0  0.00000000000E+00 -0.00000000000E+00 -0.58451629090E+03  0.58451629090E+03  0.00000000000E+00 0. -1.
         25    2    1    2    0    0  0.10004230196E+03 -0.16920826361E+03 -0.32098081548E+03  0.39663095281E+03  0.12509008818E+03 0.  0.
          5    1    3    3  502    0  0.10773123616E+03 -0.61495939143E+02 -0.18800556156E+03  0.22528056586E+03  0.41800000000E+01 0.  1.
         -5    1    3    3    0  502 -0.76889342072E+01 -0.10771232447E+03 -0.13297525392E+03  0.17135038694E+03  0.41800000000E+01 0.  1.
        -11    1    1    2    0    0 -0.39684435698E+02  0.34342105611E+02 -0.10042074532E+03  0.11330737286E+03  0.00000000000E+00 0. -1.
         11    1    1    2    0    0 -0.60357866257E+02  0.13486615800E+03 -0.72921603195E+02  0.16477109214E+03  0.00000000000E+00 0.  1.
</event>
<event>
 7    1  0.2873461E-009  0.1331100E+03  0.7561462E-02  0.1222913E+00
          1   -1    0    0  501    0  0.00000000000E+00  0.00000000000E+00  0.84914091224E+03  0.84914091224E+03  0.00000000000E+00 0. -1.
         -1   -1    0    0    0  501 -0.00000000000E+00 -0.00000000000E+00 -0.29197090800E+02  0.29197090800E+02  0.00000000000E+00 0.  1.
         25    2    1    2    0    0  0.91465599470E+02  0.17048106962E+02  0.61220443923E+03  0.63174219067E+03  0.12508927303E+03 0.  0.
          5    1    3    3  502    0 -0.10437320035E+02 -0.24562058725E+02  0.28947871376E+03  0.29073635909E+03  0.41800000000E+01 0.  1.
         -5    1    3    3    0  502  0.10190291951E+03  0.41610165687E+02  0.32272572546E+03  0.34100583158E+03  0.41800000000E+01 0.  1.
        -11    1    1    2    0    0 -0.34213182673E+02 -0.51802796331E+02  0.70854406725E+02  0.94204132227E+02  0.00000000000E+00 0.  1.
         11    1    1    2    0    0 -0.57252416797E+02  0.34754689369E+02  0.13688497549E+03  0.15239168014E+03  0.00000000000E+00 0. -1.
</event>
<event>
 7    1  0.2873461E-009  0.1001605E+03  0.7561462E-02  0.1279959E+00
         -2   -1    0    0    0  501 -0.00000000000E+00  0.00000000000E+00  0.43581966947E+02  0.43581966947E+02  0.00000000000E+00 0.  1.
          2   -1    0    0  501    0  0.00000000000E+00 -0.00000000000E+00 -0.34072084473E+03  0.34072084473E+03  0.00000000000E+00 0. -1.
         25    2    1    2    0    0  0.37145344339E+01  0.40714191858E+02 -0.10659168787E+03  0.16934987384E+03  0.12508456605E+03 0.  0.
          5    1    3    3  502    0 -0.13827298805E+02  0.67252809119E+02 -0.11691085309E+03  0.13564569472E+03  0.41800000000E+01 0.  1.
         -5    1    3    3    0  502  0.17541833239E+02 -0.26538617261E+02  0.10319165220E+02  0.33704179123E+02  0.41800000000E+01 0.  1.
        -11    1    1    2    0    0 -0.18499220534E+02  0.25556223404E+02 -0.63036665045E+02  0.70490870721E+02  0.00000000000E+00 0.  1.
         11    1    1    2    0    0  0.14784686100E+02 -0.66270415262E+02 -0.12751052488E+03  0.14446206712E+03  0.00000000000E+00 0. -1.
</event>
<event>
 7    1  0.2873461E-009  0.1293451E+03  0.7561462E-02  0.1228431E+00
          1   -1    0    0  501    0  0.00000000000E+00  0.00000000000E+00  0.25568030698E+03  0.25568030698E+03  0.00000000000E+00 0. -1.
         -1   -1    0    0    0  501 -0.00000000000E+00 -0.00000000000E+00 -0.10188395667E+03  0.10188395667E+03  0.00000000000E+00 0.  1.
         25    2    1    2    0    0  0.19389369131E+02 -0.91186751194E+02  0.16050179835E+03  0.22382839591E+03  0.12508937730E+03 0.  0.
          5    1    3    3  502    0  0.54698655118E+02 -0.52551028996E+01  0.27636876384E+02  0.61650858181E+02  0.41800000000E+01 0.  1.
         -5    1    3    3    0  502 -0.35309285987E+02 -0.85931648295E+02  0.13286492196E+03  0.16217753773E+03  0.41800000000E+01 0.  1.
        -11    1    1    2    0    0 -0.87007968763E+01 -0.73983633217E+01 -0.29804822587E+02  0.31918131141E+02  0.00000000000E+00 0.  1.
         11    1    1    2    0    0 -0.10688572255E+02  0.98585114516E+02  0.23099374543E+02  0.10181773659E+03  0.00000000000E+00 0. -1.
</event>
<event>
 7    1  0.2873461E-009  0.1142301E+03  0.7561462E-02  0.1252931E+00
          2   -1    0    0  501    0  0.00000000000E+00  0.00000000000E+00  0.93744576130E+03  0.93744576130E+03  0.00000000000E+00 0.  1.
         -2   -1    0    0    0  501 -0.00000000000E+00 -0.00000000000E+00 -0.14778606499E+02  0.14778606499E+02  0.00000000000E+00 0. -1.
         25    2    1    2    0    0  0.40937899787E+02 -0.46388526843E+01  0.42248049516E+03  0.44253071995E+03  0.12508492604E+03 0.  0.
          5    1    3    3  502    0 -0.41878183205E+01  0.55162602497E+02  0.20941816921E+03  0.21664231473E+03  0.41800000000E+01 0. -1.
         -5    1    3    3    0  502  0.45125718107E+02 -0.59801455182E+02  0.21306232595E+03  0.22588840523E+03  0.41800000000E+01 0. -1.
        -11    1    1    2    0    0  0.13030398444E+02  0.34069422608E+02  0.17958421238E+03  0.18325121057E+03  0.00000000000E+00 0. -1.
         11    1    1    2    0    0 -0.53968298230E+02 -0.29430569923E+02  0.32060244727E+03  0.32644243728E+03  0.00000000000E+00 0.  1.
</event>
<event>
 7    1  0.2873461E-009  0.1493171E+03  0.7561462E-02  0.1201315E+00
         -1   -1    0    0    0  501 -0.00000000000E+00  0.00000000000E+00  0.50367949780E+02  0.50367949780E+02  0.00000000000E+00 0.  1.
          1   -1    0    0  501    0  0.00000000000E+00 -0.00000000000E+00 -0.49308071669E+03  0.49308071669E+03  0.00000000000E+00 0. -1.
         25    2    1    2    0    0 -0.11222621512E+03 -0.44674244567E+01 -0.21243928349E+03  0.27090936622E+03  0.12508698691E+03 0.  0.
          5    1    3    3  502    0 -0.78016847925E+02 -0.61842388575E+02 -0.14463637493E+03  0.17563673573E+03  0.41800000000E+01 0.  1.
         -5    1    3    3    0  502 -0.34209367195E+02  0.57374964118E+02 -0.67802908556E+02  0.95272630488E+02  0.41800000000E+01 0.  1.
        -11    1    1    2    0    0  0.51415162996E+02  0.36763633861E+02 -0.53429181699E+02  0.82763284236E+02  0.00000000000E+00 0.  1.
         11    1    1    2    0    0  0.60811052124E+02 -0.32296209405E+02 -0.17684430173E+03  0.18977601602E+03  0.00000000000E+00 0. -1.
</event>
<event>
 7    1  0.2873461E-009  0.1063620E+03  0.7561462E-02  0.1267459E+00
          1   -1    0    0  501    0  0.00000000000E+00  0.00000000000E+00  0.46471228510E+03  0.46471228510E+03  0.00000000000E+00 0. -1.
         -1   -1    0    0    0  501 -0.00000000000E+00 -0.00000000000E+00 -0.43771899944E+02  0.43771899944E+02  0.00000000000E+00 0.  1.
         25    2    1    2    0    0  0.43990322761E+01  0.85189612925E+02  0.16502275716E+03  0.22395735970E+03  0.12509103464E+03 0.  0.
          5    1    3    3  502    0 -0.12260257318E+02  0.55856675894E+02  0.17843041626E+03  0.18741709633E+03  0.41800000000E+01 0. -1.
         -5    1    3    3    0  502  0.16659289594E+02  0.29332937030E+02 -0.13407659095E+02  0.36540263368E+02  0.41800000000E+01 0. -1.
        -11    1    1    2    0    0  0.22782714567E+02  0.81345027395E+01  0.29667727975E+02  0.38280495047E+02  0.00000000000E+00 0. -1.
         11    1    1    2    0    0 -0.27181746843E+02 -0.93324115664E+02  0.22624990002E+03  0.24624633030E+03  0.00000000000E+00 0.  1.
</event>
<event>
 7    1  0.2873461E-009  0.1062328E+03  0.7561462E-02  0.1267710E+00
         -2   -1    0    0    0  501 -0.00000000000E+00  0.00000000000E+00  0.27682299768E+02  0.27682299768E+02  0.00000000000E+00 0.  1.
          2   -1    0    0  501    0  0.00000000000E+00 -0.00000000000E+00 -0.61447218536E+03  0.61447218536E+03  0.00000000000E+00 0. -1.
         25    2    1    2    0    0 -0.68210690023E+02 -0.25440447438E+02 -0.32946662344E+03  0.35985235430E+03  0.12508215832E+03 0.  0.
          5    1    3    3  502    0 -0.59417999384E+01 -0.57955604248E+02 -0.70798121089E+02  0.91782369767E+02  0.41800000000E+01 0.  1.
         -5    1    3    3    0  502 -0.62268890085E+02  0.32515156810E+02 -0.25866850236E+03  0.26806998453E+03  0.41800000000E+01 0.  1.
        -11    1    1    2    0    0  0.23893427633E+02  0.30869941937E+02 -0.26455453989E+02  0.47156550393E+02  0.00000000000E+00 0.  1.
         11    1    1    2    0    0  0.44317262390E+02 -0.54294944984E+01 -0.23086780816E+03  0.23514558044E+03  0.00000000000E+00 0. -1.
</event>
<event>
 7    1  0.2873461E-009  0.1330011E+03  0.7561462E-02  0.1223069E+00
          2   -1    0    0  501    0  0.00000000000E+00  0.00000000000E+00  0.24068395009E+02  0.24068395009E+02  0.00000000000E+00 0. -1.
         -2   -1    0    0    0  501 -0.00000000000E+00 -0.00000000000E+00 -0.88776492286E+03  0.88776492286E+03  0.00000000000E+00 0.  1.
         25    2    1    2    0    0 -0.12764478697E+01  0.77585169818E+02 -0.65402736230E+03  0.67038877385E+03  0.12509288378E+03 0.  0.
          5    1    3    3  502    0  0.19805263579E+02 -0.30711599677E+02 -0.15944835149E+03  0.16363587630E+03  0.41800000000E+01 0.  1.
         -5    1    3    3    0  502 -0.21081711449E+02  0.10829676949E+03 -0.49457901081E+03  0.50675289755E+03  0.41800000000E+01 0.  1.
        -11    1    1    2    0    0  0.43515345953E+02 -0.57309438598E+02 -0.14121172408E+03  0.15848882643E+03  0.00000000000E+00 0.  1.
         11    1    1    2    0    0 -0.42238898083E+02 -0.20275731221E+02 -0.68457441472E+02  0.82955717589E+02  0.00000000000E+00 0. -1.
</event>
<event>
 7    1  0.2873461E-009  0.1957845E+03  0.7561462E-02  0.1153345E+00
         -1   -1    0    0    0  501 -0.00000000000E+00  0.00000000000E+00  0.84886687930E+02  0.84886687930E+02  0.00000000000E+00 0.  1.
          1   -1    0    0  501    0  0.00000000000E+00 -0.00000000000E+00 -0.52623942382E+03  0.52623942382E+03  0.00000000000E+00 0. -1.
         25    2    1    2    0    0 -0.19062741776E+02 -0.17461421393E+03 -0.29315805852E+03  0.36393482275E+03  0.12511353288E+03 0.  0.
          5    1    3    3  502    0  0.31239729542E+02 -0.83992873696E+00 -0.68915283352E+02  0.75785320885E+02  0.41800000000E+01 0. -1.
         -5    1    3    3    0  502 -0.50302471318E+02 -0.17377428519E+03 -0.22424277516E+03  0.28814950187E+03  0.41800000000E+01 0. -1.
        -11    1    1    2    0    0  0.26940779528E+02  0.86041465945E+02 -0.12704844491E+03  0.15578911007E+03  0.00000000000E+00 0. -1.
         11    1    1    2    0    0 -0.78780377522E+01  0.88572747981E+02 -0.21146232461E+02  0.91402178919E+02  0.00000000000E+00 0.  1.
</event>
<event>
 7    1  0.2873461E-009  0.1097454E+03  0.7561462E-02  0.1261042E+00
          2   -1    0    0  501    0  0.00000000000E+00  0.00000000000E+00  0.18218271644E+03  0.18218271644E+03  0.00000000000E+00 0. -1.
         -2   -1    0    0    0  501 -0.00000000000E+00 -0.00000000000E+00 -0.71254179764E+02  0.71254179764E+02  0.00000000000E+00 0.  1.
         25    2    1    2    0    0 -0.11275644005E+01 -0.27028760898E+02  0.90355379560E+02  0.15666533518E+03  0.12509239511E+03 0.  0.
          5    1    3    3  502    0  0.61909313780E+01  0.48636489379E+02  0.20383316817E+02  0.53261503311E+02  0.41800000000E+01 0. -1.
         -5    1    3    3    0  502 -0.73184957786E+01 -0.75665250277E+02  0.69972062744E+02  0.10340383187E+03  0.41800000000E+01 0. -1.
        -11    1    1    2    0    0  0.39074570494E+02  0.38147814012E+02  0.74830999132E+01  0.55118731457E+02  0.00000000000E+00 0.  1.
         11    1    1    2    0    0 -0.37947006093E+02 -0.11119053114E+02  0.13090057202E+02  0.41652829569E+02  0.00000000000E+00 0. -1.
</event>
<event>
 7    1  0.2873461E-009  0.1162041E+03  0.7561462E-02  0.1249494E+00
          2   -1    0    0  501    0  0.00000000000E+00  0.00000000000E+00  0.48268835263E+03  0.48268835263E+03  0.00000000000E+00 0. -1.
         -2   -1    0    0    0  501 -0.00000000000E+00 -0.00000000000E+00 -0.54344466040E+02  0.54344466040E+02  0.00000000000E+00 0.  1.
         25    2    1    2    0    0 -0.56269192514E+02  0.68770423522E+02  0.95743387908E+02  0.18086382147E+03  0.12509729179E+03 0.  0.
          5    1    3    3  502    0 -0.39409846163E+02  0.80537527618E+02  0.11931453689E+03  0.14930793831E+03  0.41800000000E+01 0. -1.
         -5    1    3    3    0  502 -0.16859346351E+02 -0.11767104096E+02 -0.23571148979E+02  0.31555883165E+02  0.41800000000E+01 0. -1.
        -11    1    1    2    0    0  0.62292837239E+02 -0.84410743158E+02  0.31433595250E+03  0.33137993627E+03  0.00000000000E+00 0.  1.
         11    1    1    2    0    0 -0.60236447249E+01  0.15640319636E+02  0.18264546178E+02  0.24789060918E+02  0.00000000000E+00 0. -1.
</event>
<event>
 7    1  0.2873461E-009  0.9728105E+02  0.7561462E-02  0.1286120E+00
         -2   -1    0    0    0  501 -0.00000000000E+00  0.00000000000E+00  0.22887618401E+02  0.22887618401E+02  0.00000000000E+00 0.  1.
          2   -1    0    0  501    0  0.00000000000E+00 -0.00000000000E+00 -0.10020626562E+04  0.10020626562E+04  0.00000000000E+00 0. -1.
         25    2    1    2    0    0  0.95453760648E+01 -0.69703359180E+02 -0.78605370964E+03  0.79904787927E+03  0.12508959368E+03 0.  0.
          5    1    3    3  502    0 -0.15605798003E+02 -0.62305504788E+02 -0.16042159984E+03  0.17285276669E+03  0.41800000000E+01 0. -1.
         -5    1    3    3    0  502  0.25151174068E+02 -0.73978543918E+01 -0.62563210980E+03  0.62619511258E+03  0.41800000000E+01 0. -1.
        -11    1    1    2    0    0 -0.35238608588E+02  0.70576266544E+01 -0.12416230477E+03  0.12925883937E+03  0.00000000000E+00 0. -1.
         11    1    1    2    0    0  0.25693232524E+02  0.62645732526E+02 -0.68959023386E+02  0.96643555955E+02  0.00000000000E+00 0.  1.
</event>
<event>
 7    1  0.2873461E-009  0.1055186E+03  0.7561462E-02  0.1269101E+00
         -2   -1    0    0    0  501 -0.00000000000E+00  0.00000000000E+00  0.10611836862E+02  0.10611836862E+02  0.00000000000E+00 0.  1.
          2   -1    0    0  501    0  0.00000000000E+00 -0.00000000000E+00 -0.13059449765E+04  0.13059449765E+04  0.00000000000E+00 0. -1.
         25    2    1    2    0    0  0.48248222254E+02 -0.22872506266E+02 -0.82550272655E+03  0.83663231425E+03  0.12509130747E+03 0.  0.
          5    1    3    3  502    0 -0.19232185113E+02 -0.39315691791E+02 -0.57401742223E+03  0.57569877019E+03  0.41800000000E+01 0.  1.
         -5    1    3    3    0  502  0.67480407367E+02  0.16443185524E+02 -0.25148530432E+03  0.26093354406E+03  0.41800000000E+01 0.  1.
        -11    1    1    2    0    0 -0.27339323522E+02  0.53689361717E+02 -0.31153266725E+03  0.31730519841E+03  0.00000000000E+00 0. -1.
         11    1    1    2    0    0 -0.20908898731E+02 -0.30816855451E+02 -0.15829774586E+03  0.16261930073E+03  0.00000000000E+00 0.  1.
</event>
<event>
 7    1  0.2873461E-009  0.1211989E+03  0.7561462E-02  0.1241132E+00
         -1   -1    0    0    0  501 -0.00000000000E+00  0.00000000000E+00  0.48045831195E+02  0.48045831195E+02  0.00000000000E+00 0.  1.
          1   -1    0    0  501    0  0.00000000000E+00 -0.00000000000E+00 -0.36958627612E+03  0.36958627612E+03  0.00000000000E+00 0. -1.
         25    2    1    2    0    0  0.58157141330E+02 -0.39451145615E+02 -0.23169191792E+03  0.27252063175E+03  0.12509078272E+03 0.  0.
          5    1    3    3  502    0  0.82978081120E+02  0.13138889182E+02 -0.15279938934E+03  0.17442224095E+03  0.41800000000E+01 0.  1.
         -5    1    3    3    0  502 -0.24820939790E+02 -0.52590034797E+02 -0.78892528577E+02  0.98098390799E+02  0.41800000000E+01 0.  1.
        -11    1    1    2    0    0 -0.12185438915E+02 -0.20851707242E+02 -0.58073807295E+02  0.62895514230E+02  0.00000000000E+00 0. -1.
         11    1    1    2    0    0 -0.45971702415E+02  0.60302852857E+02 -0.31774719711E+02  0.82215961336E+02  0.00000000000E+00 0.  1.
</event>
<event>
 7    1  0.2873461E-009  0.1119985E+03  0.7561462E-02  0.1256913E+00
          2   -1    0    0  501    0  0.00000000000E+00  0.00000000000E+00  0.54069716608E+03  0.54069716608E+03  0.00000000000E+00 0. -1.
         -2   -1    0    0    0  501 -0.00000000000E+00 -0.00000000000E+00 -0.36541512858E+02  0.36541512858E+02  0.00000000000E+00 0.  1.
         25    2    1    2    0    0  0.74173202017E+02  0.45304845459E+02  0.31198460797E+03  0.34718343323E+03  0.12509095802E+03 0.  0.
          5    1    3    3  502    0  0.48714752845E+01  0.30606449744E+02  0.44745196720E+01  0.31590817712E+02  0.41800000000E+01 0. -1.
         -5    1    3    3    0  502  0.69301726733E+02  0.14698395715E+02  0.30751008829E+03  0.31559261552E+03  0.41800000000E+01 0. -1.
        -11    1    1    2    0    0 -0.26226274740E+02 -0.64871555812E+02  0.78592284663E+02  0.10522776938E+03  0.00000000000E+00 0.  1.
         11    1    1    2    0    0 -0.47946927277E+02  0.19566710353E+02  0.11357876059E+03  0.12482747633E+03  0.00000000000E+00 0. -1.
</event>
<event>
 7    1  0.2873461E-009  0.9680675E+02  0.7561462E-02  0.1287158E+00
          2   -1    0    0  501    0  0.00000000000E+00  0.00000000000E+00  0.25800975641E+03  0.25800975641E+03  0.00000000000E+00 0. -1.
         -2   -1    0    0    0  501 -0.00000000000E+00 -0.00000000000E+00 -0.17998156928E+03  0.17998156928E+03  0.00000000000E+00 0.  1.
         25    2    1    2    0    0 -0.96670598530E+01 -0.65682278055E+02 -0.13492565139E+03  0.19560083763E+03  0.12508853897E+03 0.  0.
          5    1    3    3  502    0  0.18297220343E+02 -0.12625512294E+02 -0.13356283070E+03  0.13546473333E+03  0.41800000000E+01 0.  1.
         -5    1    3    3    0  502 -0.27964280197E+02 -0.53056765761E+02 -0.13628206919E+01  0.60136104298E+02  0.41800000000E+01 0.  1.
        -11    1    1    2    0    0  0.46858347330E+02  0.17529775658E+02  0.62213386772E+02  0.79834223506E+02  0.00000000000E+00 0.  1.
         11    1    1    2    0    0 -0.37191287477E+02  0.48152502397E+02  0.15074045175E+03  0.16255626455E+03  0.00000000000E+00 0. -1.
</event>
<event>
 7    1  0.2873461E-009  0.1021123E+03  0.7561462E-02  0.1275916E+00
         -1   -1    0    0    0  501 -0.00000000000E+00  0.00000000000E+00  0.13178089992E+03  0.13178089992E+03  0.00000000000E+00 0.  1.
          1   -1    0    0  501    0  0.00000000000E+00 -0.00000000000E+00 -0.88029528830E+02  0.88029528830E+02  0.00000000000E+00 0. -1.
         25    2    1    2    0    0 -0.18569006499E+02  0.75158390169E+01  0.53629177024E+02  0.13756072757E+03  0.12508225015E+03 0.  0.
          5    1    3    3  502    0  0.69702240640E+01 -0.56784483504E+02  0.24135208271E+02  0.62233771126E+02  0.41800000000E+01 0.  1.
         -5    1    3    3    0  502 -0.25539230563E+02  0.64300322520E+02  0.29493968753E+02  0.75326956442E+02  0.41800000000E+01 0.  1.
        -11    1    1    2    0    0  0.29237052814E+02 -0.36440480367E+02 -0.18481839178E+02  0.50242335197E+02  0.00000000000E+00 0. -1.
         11    1    1    2    0    0 -0.10668046315E+02  0.28924641351E+02  0.86040332476E+01  0.32007365989E+02  0.00000000000E+00 0.  1.
</event>
<event>
 7    1  0.2873461E-009  0.1238442E+03  0.7561462E-02  0.1236887E+00
          2   -1    0    0  501    0  0.00000000000E+00  0.00000000000E+00  0.47843913772E+03  0.47843913772E+03  0.00000000000E+00 0. -1.
         -2   -1    0    0    0  501 -0.00000000000E+00 -0.00000000000E+00 -0.43340531849E+02  0.43340531849E+02  0.00000000000E+00 0.  1.
         25    2    1    2    0    0 -0.71356796984E+02 -0.59671004149E+02  0.20529635183E+03  0.25777109386E+03  0.12508766343E+03 0.  0.
          5    1    3    3  502    0 -0.40540290191E+02  0.11036950085E+02  0.42986017454E+01  0.42441486459E+02  0.41800000000E+01 0. -1.
         -5    1    3    3    0  502 -0.30816506794E+02 -0.70707954234E+02  0.20099775008E+03  0.21532960740E+03  0.41800000000E+01 0. -1.
        -11    1    1    2    0    0 -0.12579895071E+01 -0.20220488751E+02  0.22490536831E+02  0.30270033859E+02  0.00000000000E+00 0. -1.
         11    1    1    2    0    0  0.72614786491E+02  0.79891492900E+02  0.20731171721E+03  0.23373854185E+03  0.00000000000E+00 0.  1.
</event>
<event>
 7    1  0.2873461E-009  0.1186906E+03  0.7561462E-02  0.1245273E+00
          2   -1    0    0  501    0  0.00000000000E+00  0.00000000000E+00  0.41582440425E+03  0.41582440425E+03  0.00000000000E+00 0. -1.
         -2   -1    0    0    0  501 -0.00000000000E+00 -0.00000000000E+00 -0.57655409886E+02  0.57655409886E+02  0.00000000000E+00 0.  1.
         25    2    1    2    0    0  0.51054477070E+02  0.22040152200E+02  0.31747068427E+03  0.34572912082E+03  0.12509461087E+03 0.  0.
          5    1    3    3  502    0  0.23328499067E+02 -0.41338940602E+02  0.48571900275E+02  0.68042845143E+02  0.41800000000E+01 0.  1.
         -5    1    3    3    0  502  0.27725978003E+02  0.63379092803E+02  0.26889878400E+03  0.27768627567E+03  0.41800000000E+01 0.  1.
        -11    1    1    2    0    0  0.81140649681E+01  0.36381478946E+02  0.64787527946E+01  0.37834168398E+02  0.00000000000E+00 0. -1.
         11    1    1    2    0    0 -0.59168542038E+02 -0.58421631147E+02  0.34219557298E+02  0.89916524924E+02  0.00000000000E+00 0.  1.
</event>
<event>
 7    1  0.2873461E-009  0.4205609E+03  0.7561462E-02  0.1036884E+00
         -1   -1    0    0    0  501 -0.00000000000E+00  0.00000000000E+00  0.10168453320E+03  0.10168453320E+03  0.00000000000E+00 0.  1.
          1   -1    0    0  501    0  0.00000000000E+00 -0.00000000000E+00 -0.23143681755E+04  0.23143681755E+04  0.00000000000E+00 0. -1.
         25    2    1    2    0    0 -0.14971911545E+03 -0.38802117835E+03 -0.16753853480E+04  0.17307628665E+04  0.12509111522E+03 0.  0.
          5    1    3    3  502    0 -0.77449887822E+02 -0.15339651651E+03 -0.93661738390E+03  0.95225971910E+03  0.41800000000E+01 0. -1.
         -5    1    3    3    0  502 -0.72269227626E+02 -0.23462466184E+03 -0.73876796415E+03  0.77850314736E+03  0.41800000000E+01 0. -1.
        -11    1    1    2    0    0  0.89126963313E+02  0.12338637349E+03 -0.22272289110E+03  0.26976526643E+03  0.00000000000E+00 0.  1.
         11    1    1    2    0    0  0.60592152135E+02  0.26463480485E+03 -0.31457540318E+03  0.41552457584E+03  0.00000000000E+00 0. -1.
</event>
<event>
 7    1  0.2873461E-009  0.1036705E+03  0.7561462E-02  0.1272761E+00
         -1   -1    0    0    0  501 -0.00000000000E+00  0.00000000000E+00  0.15825839588E+03  0.15825839588E+03  0.00000000000E+00 0.  1.
          1   -1    0    0  501    0  0.00000000000E+00 -0.00000000000E+00 -0.88703940924E+02  0.88703940924E+02  0.00000000000E+00 0. -1.
         25    2    1    2    0    0 -0.31879281189E+02  0.30019765472E+02  0.58136856154E+02  0.14472123516E+03  0.12508743732E+03 0.  0.
          5    1    3    3  502    0  0.43488015482E+02 -0.12071445513E+02  0.12656491329E+02  0.47059392900E+02  0.41800000000E+01 0. -1.
         -5    1    3    3    0  502 -0.75367296671E+02  0.42091210986E+02  0.45480364825E+02  0.97661842264E+02  0.41800000000E+01 0. -1.
        -11    1    1    2    0    0 -0.13905081066E+02 -0.26181588606E+02 -0.28688746243E+02  0.41253739496E+02  0.00000000000E+00 0. -1.
         11    1    1    2    0    0  0.45784362255E+02 -0.38381768668E+01  0.40106345050E+02  0.60987362150E+02  0.00000000000E+00 0.  1.
</event>
<event>
 7    1  0.2873461E-009  0.1196122E+03  0.7561462E-02  0.1243738E+00
         -1   -1    0    0    0  501 -0.00000000000E+00  0.00000000000E+00  0.21455670661E+02  0.21455670661E+02  0.00000000000E+00 0.  1.
          1   -1    0    0  501    0  0.00000000000E+00 -0.00000000000E+00 -0.92852803345E+03  0.92852803345E+03  0.00000000000E+00 0. -1.
         25    2    1    2    0    0 -0.67317192856E+02  0.37063441863E+02 -0.33438265749E+03  0.36519142593E+03  0.12509081809E+03 0.  0.
          5    1    3    3  502    0 -0.59103555230E+02 -0.20941094311E+02 -0.68752618664E+02  0.93145878304E+02  0.41800000000E+01 0.  1.
         -5    1    3    3    0  502 -0.82136376256E+01  0.58004536174E+02 -0.26563003882E+03  0.27204554763E+03  0.41800000000E+01 0.  1.
        -11    1    1    2    0    0  0.49324552759E+02  0.23379685203E+02 -0.23409565181E+03  0.24037532191E+03  0.00000000000E+00 0.  1.
         11    1    1    2    0    0  0.17992640097E+02 -0.60443127066E+02 -0.33859405349E+03  0.34441695627E+03  0.00000000000E+00 0. -1.
</event>
<event>
 7    1  0.2873461E-009  0.9710783E+02  0.7561462E-02  0.1286498E+00
          2   -1    0    0  501    0  0.00000000000E+00  0.00000000000E+00  0.91986656938E+02  0.91986656938E+02  0.00000000000E+00 0. -1.
         -2   -1    0    0    0  501 -0.00000000000E+00 -0.00000000000E+00 -0.17083587234E+03  0.17083587234E+03  0.00000000000E+00 0.  1.
         25    2    1    2    0    0 -0.57956214690E+02  0.84791130904E+01 -0.32483560923E+02  0.14189244303E+03  0.12508982964E+03 0.  0.
          5    1    3    3  502    0  0.16739163229E+02 -0.41758624559E+02  0.24366837552E+01  0.45248117512E+02  0.41800000000E+01 0.  1.
         -5    1    3    3    0  502 -0.74695377918E+02  0.50237737650E+02 -0.34920244678E+02  0.96644325518E+02  0.41800000000E+01 0.  1.
        -11    1    1    2    0    0  0.27498757218E+02 -0.81272307726E+00 -0.74092388079E+02  0.79034955169E+02  0.00000000000E+00 0.  1.
         11    1    1    2    0    0  0.30457457472E+02 -0.76663900132E+01  0.27726733604E+02  0.41895131075E+02  0.00000000000E+00 0. -1.
</event>
<event>
 7    1  0.2873461E-009  0.1317428E+03  0.7561462E-02  0.1224892E+00
          1   -1    0    0  501    0  0.00000000000E+00  0.00000000000E+00  0.83969774644E+03  0.83969774644E+03  0.00000000000E+00 0. -1.
         -1   -1    0    0    0  501 -0.00000000000E+00 -0.00000000000E+00 -0.30891180495E+02  0.30891180495E+02  0.00000000000E+00 0.  1.
         25    2    1    2    0    0 -0.82637627454E+02  0.27234318927E+02  0.65133021496E+03  0.66891512261E+03  0.12508279954E+03 0.  0.
          5    1    3    3  502    0 -0.31549720294E+02 -0.41320583529E+02  0.40048543599E+03  0.40386734494E+03  0.41800000000E+01 0.  1.
         -5    1    3    3    0  502 -0.51087907160E+02  0.68554902456E+02  0.25084477897E+03  0.26504777767E+03  0.41800000000E+01 0.  1.
        -11    1    1    2    0    0 -0.14112041283E+02 -0.25290358395E+02  0.30994067924E+02  0.42419148782E+02  0.00000000000E+00 0.  1.
         11    1    1    2    0    0  0.96749668737E+02 -0.19439605317E+01  0.12648228306E+03  0.15925465554E+03  0.00000000000E+00 0. -1.
</event>
<event>
 7    1  0.2873461E-009  0.1386392E+03  0.7561462E-02  0.1215172E+00
         -1   -1    0    0    0  501 -0.00000000000E+00  0.00000000000E+00  0.59329302897E+03  0.59329302897E+03  0.00000000000E+00 0.  1.
          1   -1    0    0  501    0  0.00000000000E+00 -0.00000000000E+00 -0.39937939985E+02  0.39937939985E+02  0.00000000000E+00 0. -1.
         25    2    1    2    0    0 -0.23756552833E+02  0.82635141078E+02  0.16187334009E+03  0.22190853264E+03  0.12508988081E+03 0.  0.
          5    1    3    3  502    0  0.38416197832E+02  0.80569445249E+02  0.99008594266E+02  0.13336946390E+03  0.41800000000E+01 0.  1.
         -5    1    3    3    0  502 -0.62172750665E+02  0.20656958283E+01  0.62864745820E+02  0.88539068730E+02  0.41800000000E+01 0.  1.
        -11    1    1    2    0    0 -0.24238300154E+02  0.58285063169E+01  0.62438339116E+02  0.67231040984E+02  0.00000000000E+00 0.  1.
         11    1    1    2    0    0  0.47994852987E+02 -0.88463647395E+02  0.32904340978E+03  0.34409139533E+03  0.00000000000E+00 0. -1.
</event>
<event>
 7    1  0.2873461E-009  0.1120566E+03  0.7561462E-02  0.1256808E+00
         -2   -1    0    0    0  501 -0.00000000000E+00  0.00000000000E+00  0.12605115789E+03  0.12605115789E+03  0.00000000000E+00 0. -1.
          2   -1    0    0  501    0  0.00000000000E+00 -0.00000000000E+00 -0.11497108641E+03  0.11497108641E+03  0.00000000000E+00 0.  1.
         25    2    1    2    0    0  0.43581891425E+02  0.37220139948E+01 -0.28998942068E+02  0.13565329923E+03  0.12509054441E+03 0.  0.
          5    1    3    3  502    0  0.71740315340E+02  0.43026293412E+02 -0.22190271886E+02  0.86647650495E+02  0.41800000000E+01 0.  1.
         -5    1    3    3    0  502 -0.28158423915E+02 -0.39304279417E+02 -0.68086701824E+01  0.49005648731E+02  0.41800000000E+01 0.  1.
        -11    1    1    2    0    0 -0.58961489826E+02 -0.26255612283E+02  0.10961151753E+02  0.65467253697E+02  0.00000000000E+00 0.  1.
         11    1    1    2    0    0  0.15379598401E+02  0.22533598288E+02  0.29117861797E+02  0.39901691373E+02  0.00000000000E+00 0. -1.
</event>
<event>
 7    1  0.2873461E-009  0.9462916E+02  0.7561462E-02  0.1292014E+00
          3   -1    0    0  501    0  0.00000000000E+00  0.00000000000E+00  0.13252814321E+04  0.13252814321E+04  0.00000000000E+00 0. -1.
         -3   -1    0    0    0  501 -0.00000000000E+00 -0.00000000000E+00 -0.15537518082E+02  0.15537518082E+02  0.00000000000E+00 0.  1.
         25    2    1    2    0    0  0.40874355006E+02  0.36600637752E+02  0.10685239656E+04  0.10772194204E+04  0.12509154611E+03 0.  0.
          5    1    3    3  502    0 -0.88017743863E+01 -0.20189916720E+02  0.39451549273E+02  0.45376217444E+02  0.41800000000E+01 0. -1.
         -5    1    3    3    0  502  0.49676129393E+02  0.56790554473E+02  0.10290724164E+04  0.10318432029E+04  0.41800000000E+01 0. -1.
        -11    1    1    2    0    0  0.14241423991E+02  0.11355722994E+02  0.93141039527E+01  0.20457837971E+02  0.00000000000E+00 0.  1.
         11    1    1    2    0    0 -0.55115778997E+02 -0.47956360746E+02  0.23190584445E+03  0.24314169186E+03  0.00000000000E+00 0. -1.
</event>
<event>
 7    1  0.2873461E-009  0.1466138E+03  0.7561462E-02  0.1204697E+00
          3   -1    0    0  501    0  0.00000000000E+00  0.00000000000E+00  0.31779863169E+03  0.31779863169E+03  0.00000000000E+00 0. -1.
         -3   -1    0    0    0  501 -0.00000000000E+00 -0.00000000000E+00 -0.28438186361E+03  0.28438186361E+03  0.00000000000E+00 0.  1.
         25    2    1    2    0    0 -0.40885824723E+02 -0.12167072889E+03  0.26652223824E+03  0.32117906121E+03  0.12508584634E+03 0.  0.
          5    1    3    3  502    0  0.57675869933E+01  0.79899772587E+01 -0.84136839305E+01  0.13614965061E+02  0.41800000000E+01 0. -1.
         -5    1    3    3    0  502 -0.46653411717E+02 -0.12966070615E+03  0.27493592217E+03  0.30756409615E+03  0.41800000000E+01 0. -1.
        -11    1    1    2    0    0  0.58276234720E+02  0.10729041797E+03 -0.22679142227E+03  0.25756883068E+03  0.00000000000E+00 0.  1.
         11    1    1    2    0    0 -0.17390409996E+02  0.14380310921E+02 -0.63140478867E+01  0.23432603414E+02  0.00000000000E+00 0. -1.
</event>
<event>
 7    1  0.2873461E-009  0.1250277E+03  0.7561462E-02  0.1235026E+00
          1   -1    0    0  501    0  0.00000000000E+00  0.00000000000E+00  0.11358887343E+03  0.11358887343E+03  0.00000000000E+00 0. -1.
         -1   -1    0    0    0  501 -0.00000000000E+00 -0.00000000000E+00 -0.16709969988E+03  0.16709969988E+03  0.00000000000E+00 0.  1.
         25    2    1    2    0    0  0.41686261629E+02 -0.68849441133E+02 -0.49647932413E+02  0.15680957469E+03  0.12508531316E+03 0.  0.
          5    1    3    3  502    0 -0.25832665174E+02  0.50992946799E+01 -0.49911669047E+02  0.56586009784E+02  0.41800000000E+01 0.  1.
         -5    1    3    3    0  502  0.67518926803E+02 -0.73948735813E+02  0.26373663482E+00  0.10022356490E+03  0.41800000000E+01 0.  1.
        -11    1    1    2    0    0  0.10790410753E+02  0.69856612619E+02 -0.84705780048E+01  0.71190799845E+02  0.00000000000E+00 0.  1.
         11    1    1    2    0    0 -0.52476672382E+02 -0.10071714856E+01  0.46076839699E+01  0.52688198776E+02  0.00000000000E+00 0. -1.
</event>
<event>
 7    1  0.2873461E-009  0.1160067E+03  0.7561462E-02  0.1249834E+00
         -2   -1    0    0    0  501 -0.00000000000E+00  0.00000000000E+00  0.36743424054E+02  0.36743424054E+02  0.00000000000E+00 0.  1.
          2   -1    0    0  501    0  0.00000000000E+00 -0.00000000000E+00 -0.43493348753E+03  0.43493348753E+03  0.00000000000E+00 0. -1.
         25    2    1    2    0    0  0.32042100026E+01  0.69170475974E+02 -0.22584167571E+03  0.26731504282E+03  0.12513212185E+03 0.  0.
          5    1    3    3  502    0  0.43276210675E+02  0.79807697066E+00 -0.15483608459E+03  0.16082646806E+03  0.41800000000E+01 0. -1.
         -5    1    3    3    0  502 -0.40072000672E+02  0.68372399003E+02 -0.71005591128E+02  0.10648857476E+03  0.41800000000E+01 0. -1.
        -11    1    1    2    0    0 -0.41261572483E+02 -0.17081222030E+02 -0.59778646162E+02  0.74617504962E+02  0.00000000000E+00 0.  1.
         11    1    1    2    0    0  0.38057362480E+02 -0.52089253943E+02 -0.11256974160E+03  0.12974436380E+03  0.00000000000E+00 0. -1.
</event>
<event>
 7    1  0.2873461E-009  0.1879581E+03  0.7561462E-02  0.1160316E+00
          1   -1    0    0  501    0  0.00000000000E+00  0.00000000000E+00  0.11436213176E+03  0.11436213176E+03  0.00000000000E+00 0. -1.
         -1   -1    0    0    0  501 -0.00000000000E+00 -0.00000000000E+00 -0.38519911101E+03  0.38519911101E+03  0.00000000000E+00 0.  1.
         25    2    1    2    0    0 -0.12524738010E+03  0.11206044752E+03 -0.21359170581E+03  0.29918829040E+03  0.12509103166E+03 0.  0.
          5    1    3    3  502    0 -0.12196353473E+03  0.51513007601E+02 -0.19479874626E+03  0.23556892347E+03  0.41800000000E+01 0.  1.
         -5    1    3    3    0  502 -0.32838453688E+01  0.60547439914E+02 -0.18792959541E+02  0.63619366932E+02  0.41800000000E+01 0.  1.
        -11    1    1    2    0    0  0.68302387115E+02 -0.10504519262E+03 -0.67136068282E+02  0.14215118797E+03  0.00000000000E+00 0. -1.
         11    1    1    2    0    0  0.56944992986E+02 -0.70152548970E+01  0.98907948322E+01  0.58221764400E+02  0.00000000000E+00 0.  1.
</event>
<event>
 7    1  0.2873461E-009  0.2275591E+03  0.7561462E-02  0.1128370E+00
         -2   -1    0    0    0  501 -0.00000000000E+00  0.00000000000E+00  0.70347623340E+02  0.70347623340E+02  0.00000000000E+00 0.  1.
          2   -1    0    0  501    0  0.00000000000E+00 -0.00000000000E+00 -0.89960897148E+03  0.89960897148E+03  0.00000000000E+00 0. -1.
         25    2    1    2    0    0  0.13677936760E+03 -0.17420456415E+03 -0.51789843595E+03  0.57700057813E+03  0.12512014875E+03 0.  0.
          5    1    3    3  502    0 -0.96355956192E+00 -0.40992767954E+02 -0.25139911840E+02  0.48278598146E+02  0.41800000000E+01 0.  1.
         -5    1    3    3    0  502  0.13774292716E+03 -0.13321179619E+03 -0.49275852411E+03  0.52872197998E+03  0.41800000000E+01 0.  1.
        -11    1    1    2    0    0 -0.95621538878E+02  0.13467471655E+03 -0.28651675017E+03  0.33071529463E+03  0.00000000000E+00 0.  1.
         11    1    1    2    0    0 -0.41157828725E+02  0.39529847592E+02 -0.24846162020E+02  0.62240722064E+02  0.00000000000E+00 0. -1.
</event>
<event>
 7    1  0.2873461E-009  0.2859294E+03  0.7561462E-02  0.1092494E+00
          1   -1    0    0  501    0  0.00000000000E+00  0.00000000000E+00  0.34446262469E+03  0.34446262469E+03  0.00000000000E+00 0. -1.
         -1   -1    0    0    0  501 -0.00000000000E+00 -0.00000000000E+00 -0.24269231998E+03  0.24269231998E+03  0.00000000000E+00 0.  1.
         25    2    1    2    0    0  0.26054496000E+03  0.59263949020E+02  0.53163802124E+02  0.29978332779E+03  0.12509101458E+03 0.  0.
          5    1    3    3  502    0 -0.49422400040E+01 -0.12612868602E+02 -0.10247093543E+02  0.17492441703E+02  0.41800000000E+01 0.  1.
         -5    1    3    3    0  502  0.26548720000E+03  0.71876817622E+02  0.63410895667E+02  0.28229088609E+03  0.41800000000E+01 0.  1.
        -11    1    1    2    0    0 -0.20871015498E+03 -0.67518698342E+01  0.27472852853E+02  0.21061878877E+03  0.00000000000E+00 0.  1.
         11    1    1    2    0    0 -0.51834805018E+02 -0.52512079186E+02  0.21133649731E+02  0.76752828108E+02  0.00000000000E+00 0. -1.
</event>
<event>
 7    1  0.2873461E-009  0.9898595E+02  0.7561462E-02  0.1282443E+00
          2   -1    0    0  501    0  0.00000000000E+00  0.00000000000E+00  0.27921938868E+03  0.27921938868E+03  0.00000000000E+00 0. -1.
         -2   -1    0    0    0  501 -0.00000000000E+00 -0.00000000000E+00 -0.51749881012E+02  0.51749881012E+02  0.00000000000E+00 0.  1.
         25    2    1    2    0    0 -0.39436635030E+02 -0.26139029363E+02  0.94056525511E+02  0.16350082588E+03  0.12508954007E+03 0.  0.
          5    1    3    3  502    0 -0.64236058373E+02 -0.38935179416E+02  0.10832081599E+03  0.13188286837E+03  0.41800000000E+01 0. -1.
         -5    1    3    3    0  502  0.24799423343E+02  0.12796150054E+02 -0.14264290483E+02  0.31617957514E+02  0.41800000000E+01 0. -1.
        -11    1    1    2    0    0 -0.10919639167E+02 -0.22187798847E+02  0.65804637409E+02  0.70297846636E+02  0.00000000000E+00 0. -1.
         11    1    1    2    0    0  0.50356274196E+02  0.48326828209E+02  0.67608344750E+02  0.97170597176E+02  0.00000000000E+00 0.  1.
</event>
<event>
 7    1  0.2873461E-009  0.1264105E+03  0.7561462E-02  0.1232881E+00
          1   -1    0    0  501    0  0.00000000000E+00  0.00000000000E+00  0.29523870487E+03  0.29523870487E+03  0.00000000000E+00 0.  1.
         -1   -1    0    0    0  501 -0.00000000000E+00 -0.00000000000E+00 -0.56090326839E+02  0.56090326839E+02  0.00000000000E+00 0. -1.
         25    2    1    2    0    0 -0.41511860939E+02  0.57238334992E+02  0.12736267394E+03  0.19200976838E+03  0.12508812434E+03 0.  0.
          5    1    3    3  502    0  0.10971224736E+02  0.82159743596E+02  0.91832639060E+02  0.12377922781E+03  0.41800000000E+01 0. -1.
         -5    1    3    3    0  502 -0.52483085675E+02 -0.24921408604E+02  0.35530034879E+02  0.68230540576E+02  0.41800000000E+01 0. -1.
        -11    1    1    2    0    0  0.35314289458E+02  0.15506414849E+02  0.25245729071E+02  0.46096580977E+02  0.00000000000E+00 0. -1.
         11    1    1    2    0    0  0.61975714808E+01 -0.72744749841E+02  0.86539975024E+02  0.11322268235E+03  0.00000000000E+00 0.  1.
</event>
<event>
 7    1  0.3426691E-009  0.1072726E+03  0.7561462E-02  0.1265706E+00
          1   -1    0    0  501    0  0.00000000000E+00  0.00000000000E+00  0.47356410845E+03  0.47356410845E+03  0.00000000000E+00 0. -1.
         -1   -1    0    0    0  501 -0.00000000000E+00 -0.00000000000E+00 -0.40413935899E+02  0.40413935899E+02  0.00000000000E+00 0.  1.
         25    2    1    2    0    0  0.37589659206E+02  0.28154693707E+01  0.95101091089E+02  0.16158122268E+03  0.12507343703E+03 0.  0.
          5    1    3    3  502    0  0.37062899181E+02 -0.52760644173E+02  0.81872502106E+02  0.10429728218E+03  0.41800000000E+01 0. -1.
         -5    1    3    3    0  502  0.52676002472E+00  0.55576113544E+02  0.13228588984E+02  0.57283940500E+02  0.41800000000E+01 0. -1.
        -11    1    1    2    0    0 -0.60873005413E+02 -0.21275008213E+02  0.17158763482E+03  0.18330429669E+03  0.00000000000E+00 0.  1.
         11    1    1    2    0    0  0.23283346207E+02  0.18459538842E+02  0.16646144664E+03  0.16909252498E+03  0.00000000000E+00 0. -1.
</event>
<event>
 7    1  0.2873461E-009  0.1069727E+03  0.7561462E-02  0.1266281E+00
         -2   -1    0    0    0  501 -0.00000000000E+00  0.00000000000E+00  0.14136248681E+02  0.14136248681E+02  0.00000000000E+00 0.  1.
          2   -1    0    0  501    0  0.00000000000E+00 -0.00000000000E+00 -0.88982260134E+03  0.88982260134E+03  0.00000000000E+00 0. -1.
         25    2    1    2    0    0  0.13235135226E+01 -0.27206354649E+02 -0.55923726930E+03  0.57370480915E+03  0.12509575229E+03 0.  0.
          5    1    3    3  502    0 -0.43349893625E+02 -0.55625721693E+02 -0.38940284529E+03  0.39575937451E+03  0.41800000000E+01 0. -1.
         -5    1    3    3    0  502  0.44673407147E+02  0.28419367044E+02 -0.16983442401E+03  0.17794543464E+03  0.41800000000E+01 0. -1.
        -11    1    1    2    0    0 -0.19291222225E+02  0.54329493504E+02 -0.24584354336E+03  0.25251315398E+03  0.00000000000E+00 0.  1.
         11    1    1    2    0    0  0.17967708703E+02 -0.27123138855E+02 -0.70605540002E+02  0.77740886902E+02  0.00000000000E+00 0. -1.
</event>
<event>
 7    1  0.2873461E-009  0.1028817E+03  0.7561462E-02  0.1274350E+00
         -2   -1    0    0    0  501 -0.00000000000E+00  0.00000000000E+00  0.26693122797E+02  0.26693122797E+02  0.00000000000E+00 0.  1.
          2   -1    0    0  501    0  0.00000000000E+00 -0.00000000000E+00 -0.80154254986E+03  0.80154254986E+03  0.00000000000E+00 0. -1.
         25    2    1    2    0    0 -0.43694911353E+02 -0.13376984313E+02 -0.66260733830E+03  0.67585754259E+03  0.12508694623E+03 0.  0.
          5    1    3    3  502    0  0.31453978155E+02 -0.11162976879E+02 -0.43115328597E+03  0.43246340099E+03  0.41800000000E+01 0. -1.
         -5    1    3    3    0  502 -0.75148889508E+02 -0.22140074344E+01 -0.23145405233E+03  0.24339414160E+03  0.41800000000E+01 0. -1.
        -11    1    1    2    0    0  0.12967414376E+02  0.48475759435E+02 -0.83997728509E+02  0.97845140314E+02  0.00000000000E+00 0. -1.
         11    1    1    2    0    0  0.30727496977E+02 -0.35098775122E+02 -0.28244360254E+02  0.54532989756E+02  0.00000000000E+00 0.  1.
</event>
<event>
 7    1  0.2873461E-009  0.1040527E+03  0.7561462E-02  0.1271997E+00
          1   -1    0    0  501    0  0.00000000000E+00  0.00000000000E+00  0.87959255096E+02  0.87959255096E+02  0.00000000000E+00 0. -1.
         -1   -1    0    0    0  501 -0.00000000000E+00 -0.00000000000E+00 -0.17405677556E+03  0.17405677556E+03  0.00000000000E+00 0.  1.
         25    2    1    2    0    0 -0.45591456718E+01  0.18219828777E+02  0.11858257732E+02  0.12705106906E+03  0.12509439597E+03 0.  0.
          5    1    3    3  502    0 -0.27764442847E+02 -0.47332941559E+02  0.15854316301E+02  0.57272186868E+02  0.41800000000E+01 0. -1.
         -5    1    3    3    0  502  0.23205297176E+02  0.65552770336E+02 -0.39960585691E+01  0.69778882191E+02  0.41800000000E+01 0. -1.
        -11    1    1    2    0    0 -0.15717249122E+01 -0.50512808929E+02 -0.28247939282E+02  0.57896116094E+02  0.00000000000E+00 0. -1.
         11    1    1    2    0    0  0.61308705840E+01  0.32292980152E+02 -0.69707838916E+02  0.77068845505E+02  0.00000000000E+00 0.  1.
</event>
<event>
 7    1  0.2873461E-009  0.8069985E+02  0.7561462E-02  0.1327077E+00
         -1   -1    0    0    0  501 -0.00000000000E+00  0.00000000000E+00  0.49634806530E+02  0.49634806530E+02  0.00000000000E+00 0.  1.
          1   -1    0    0  501    0  0.00000000000E+00 -0.00000000000E+00 -0.25008679367E+03  0.25008679367E+03  0.00000000000E+00 0. -1.
         25    2    1    2    0    0  0.20186655361E+02 -0.98888916699E+01 -0.13298418880E+03  0.18395049378E+03  0.12509076088E+03 0.  0.
          5    1    3    3  502    0  0.58103774581E+02  0.76203395788E+01 -0.17846960012E+02  0.61401177330E+02  0.41800000000E+01 0. -1.
         -5    1    3    3    0  502 -0.37917119220E+02 -0.17509231249E+02 -0.11513722878E+03  0.12254931644E+03  0.41800000000E+01 0. -1.
        -11    1    1    2    0    0  0.53049002968E+01  0.28578911752E+02  0.11075728722E+02  0.31105753982E+02  0.00000000000E+00 0.  1.
         11    1    1    2    0    0 -0.25491555658E+02 -0.18690020082E+02 -0.78543527068E+02  0.84665352446E+02  0.00000000000E+00 0. -1.
</event>
<event>
 7    1  0.2873461E-009  0.1342493E+03  0.7561462E-02  0.1221283E+00
         -1   -1    0    0    0  501 -0.00000000000E+00  0.00000000000E+00  0.32523807734E+02  0.32523807734E+02  0.00000000000E+00 0.  1.
          1   -1    0    0  501    0  0.00000000000E+00 -0.00000000000E+00 -0.62309759488E+03  0.62309759488E+03  0.00000000000E+00 0. -1.
         25    2    1    2    0    0 -0.71954427482E+02  0.59051218401E+02 -0.44540689719E+03  0.47190884037E+03  0.12508462546E+03 0.  0.
          5    1    3    3  502    0  0.53425468148E+01  0.76307253398E+02 -0.21817793195E+03  0.23123672311E+03  0.41800000000E+01 0. -1.
         -5    1    3    3    0  502 -0.77296974297E+02 -0.17256034996E+02 -0.22722896524E+03  0.24067211726E+03  0.41800000000E+01 0. -1.
        -11    1    1    2    0    0  0.53496023153E+02 -0.30133312502E+01 -0.67797185895E+02  0.86413905558E+02  0.00000000000E+00 0.  1.
         11    1    1    2    0    0  0.18458404329E+02 -0.56037887151E+02 -0.77369704065E+02  0.97298656691E+02  0.00000000000E+00 0. -1.
</event>
<event>
 7    1  0.2873461E-009  0.1041919E+03  0.7561462E-02  0.1271720E+00
         -1   -1    0    0    0  501 -0.00000000000E+00  0.00000000000E+00  0.30785544472E+02  0.30785544472E+02  0.00000000000E+00 0.  1.
          1   -1    0    0  501    0  0.00000000000E+00 -0.00000000000E+00 -0.44764696224E+03  0.44764696224E+03  0.00000000000E+00 0. -1.
         25    2    1    2    0    0 -0.29250023570E+02  0.32572256939E+01 -0.30698224958E+03  0.33279574708E+03  0.12509490125E+03 0.  0.
          5    1    3    3  502    0 -0.53407897039E+02 -0.45245562190E+02 -0.21282994305E+03  0.22408396065E+03  0.41800000000E+01 0.  1.
         -5    1    3    3    0  502  0.24157873469E+02  0.48502787884E+02 -0.94152306534E+02  0.10871178643E+03  0.41800000000E+01 0.  1.
        -11    1    1    2    0    0  0.24306500058E+02  0.36499562866E+02 -0.22011162591E+02  0.49066437746E+02  0.00000000000E+00 0.  1.
         11    1    1    2    0    0  0.49435235117E+01 -0.39756788560E+02 -0.87868005597E+02  0.96570321885E+02  0.00000000000E+00 0. -1.
</event>
<event>
 7    1  0.2873461E-009  0.3010873E+03  0.7561462E-02  0.1084698E+00
         -2   -1    0    0    0  501 -0.00000000000E+00  0.00000000000E+00  0.87229913272E+02  0.87229913272E+02  0.00000000000E+00 0.  1.
          2   -1    0    0  501    0  0.00000000000E+00 -0.00000000000E+00 -0.12191804939E+04  0.12191804939E+04  0.00000000000E+00 0. -1.
         25    2    1    2    0    0 -0.28947933899E+03  0.44027303705E+02 -0.76434974969E+03  0.82801845971E+03  0.12508932247E+03 0.  0.
          5    1    3    3  502    0 -0.45945440034E+02  0.31689536302E+02 -0.57344877520E+02  0.80131875984E+02  0.41800000000E+01 0.  1.
         -5    1    3    3    0  502 -0.24353389896E+03  0.12337767403E+02 -0.70700487217E+03  0.74788658372E+03  0.41800000000E+01 0.  1.
        -11    1    1    2    0    0  0.50999298371E+02 -0.38289299591E+02 -0.11114733908E+03  0.12814339578E+03  0.00000000000E+00 0. -1.
         11    1    1    2    0    0  0.23848004062E+03 -0.57380041135E+01 -0.25645349185E+03  0.35024855167E+03  0.00000000000E+00 0.  1.
</event>
<event>
 7    1  0.2873461E-009  0.1277926E+03  0.7561462E-02  0.1230768E+00
         -2   -1    0    0    0  501 -0.00000000000E+00  0.00000000000E+00  0.72768684149E+02  0.72768684149E+02  0.00000000000E+00 0.  1.
          2   -1    0    0  501    0  0.00000000000E+00 -0.00000000000E+00 -0.35695966957E+03  0.35695966957E+03  0.00000000000E+00 0. -1.
         25    2    1    2    0    0 -0.44343147422E+02  0.75136827361E+02 -0.43781016603E+02  0.15867179935E+03  0.12509238563E+03 0.  0.
          5    1    3    3  502    0  0.36878829602E+02  0.13933625199E+02 -0.40733050097E+02  0.56840546744E+02  0.41800000000E+01 0.  1.
         -5    1    3    3    0  502 -0.81221977024E+02  0.61203202162E+02 -0.30479665060E+01  0.10183125260E+03  0.41800000000E+01 0.  1.
        -11    1    1    2    0    0 -0.15398945101E+02 -0.44349642904E+02 -0.15738839878E+03  0.16424106188E+03  0.00000000000E+00 0. -1.
         11    1    1    2    0    0  0.59742092522E+02 -0.30787184457E+02 -0.83021570039E+02  0.10681549250E+03  0.00000000000E+00 0.  1.
</event>
<event>
 7    1  0.2873461E-009  0.1715081E+03  0.7561462E-02  0.1176284E+00
          1   -1    0    0  501    0  0.00000000000E+00  0.00000000000E+00  0.82344387093E+02  0.82344387093E+02  0.00000000000E+00 0. -1.
         -1   -1    0    0    0  501 -0.00000000000E+00 -0.00000000000E+00 -0.46390175237E+03  0.46390175237E+03  0.00000000000E+00 0.  1.
         25    2    1    2    0    0 -0.68862165342E+02  0.11320202722E+03 -0.33054768808E+03  0.37744650210E+03  0.12508953221E+03 0.  0.
          5    1    3    3  502    0 -0.52791344403E+02  0.14054792375E+03 -0.26971052497E+03  0.30871003319E+03  0.41800000000E+01 0.  1.
         -5    1    3    3    0  502 -0.16070820939E+02 -0.27345896526E+02 -0.60837163118E+02  0.68736468913E+02  0.41800000000E+01 0.  1.
        -11    1    1    2    0    0  0.79879880448E+02 -0.12261436703E+03 -0.44885706824E+02  0.15306797503E+03  0.00000000000E+00 0. -1.
         11    1    1    2    0    0 -0.11017715106E+02  0.94123398007E+01 -0.61239703683E+01  0.15731662332E+02  0.00000000000E+00 0.  1.
</event>
<event>
 7    1  0.2873461E-009  0.1147332E+03  0.7561462E-02  0.1252048E+00
         -1   -1    0    0    0  501 -0.00000000000E+00  0.00000000000E+00  0.22965013649E+03  0.22965013649E+03  0.00000000000E+00 0.  1.
          1   -1    0    0  501    0  0.00000000000E+00 -0.00000000000E+00 -0.60316085198E+02  0.60316085198E+02  0.00000000000E+00 0. -1.
         25    2    1    2    0    0 -0.37353361631E+02  0.15108419640E+02  0.65100482638E+02  0.14666206166E+03  0.12509256381E+03 0.  0.
          5    1    3    3  502    0 -0.17296679872E+02  0.70163245785E+02  0.31046403984E+02  0.78761715281E+02  0.41800000000E+01 0.  1.
         -5    1    3    3    0  502 -0.20056681759E+02 -0.55054826145E+02  0.34054078654E+02  0.67900346376E+02  0.41800000000E+01 0.  1.
        -11    1    1    2    0    0  0.57473962460E+02  0.17450026525E+02  0.64367475417E+02  0.88039375725E+02  0.00000000000E+00 0.  1.
         11    1    1    2    0    0 -0.20120600828E+02 -0.32558446165E+02  0.39866093237E+02  0.55264784306E+02  0.00000000000E+00 0. -1.
</event>
<event>
 7    1  0.2873461E-009  0.8868212E+02  0.7561462E-02  0.1306075E+00
          2   -1    0    0  501    0  0.00000000000E+00  0.00000000000E+00  0.43321523074E+03  0.43321523074E+03  0.00000000000E+00 0. -1.
         -2   -1    0    0    0  501 -0.00000000000E+00 -0.00000000000E+00 -0.32120226944E+02  0.32120226944E+02  0.00000000000E+00 0.  1.
         25    2    1    2    0    0  0.25698125597E+02  0.15312066671E+02  0.29947827262E+03  0.32592832390E+03  0.12508870254E+03 0.  0.
          5    1    3    3  502    0 -0.46519974865E+02 -0.95041457571E+01  0.75835336012E+02  0.89570684022E+02  0.41800000000E+01 0.  1.
         -5    1    3    3    0  502  0.72218100463E+02  0.24816212429E+02  0.22364293661E+03  0.23635763988E+03  0.41800000000E+01 0.  1.
        -11    1    1    2    0    0 -0.93336257746E+01  0.15638436855E+02  0.10277638352E+03  0.10437749895E+03  0.00000000000E+00 0. -1.
         11    1    1    2    0    0 -0.16364499823E+02 -0.30950503526E+02 -0.11596523479E+01  0.35029634833E+02  0.00000000000E+00 0.  1.
</event>
<event>
 7    1  0.2873461E-009  0.2739944E+03  0.7561462E-02  0.1099015E+00
         -1   -1    0    0    0  501 -0.00000000000E+00  0.00000000000E+00  0.18875115036E+03  0.18875115036E+03  0.00000000000E+00 0.  1.
          1   -1    0    0  501    0  0.00000000000E+00 -0.00000000000E+00 -0.41224829378E+03  0.41224829378E+03  0.00000000000E+00 0. -1.
         25    2    1    2    0    0  0.13007227243E+03 -0.22023066835E+03 -0.82720744350E+02  0.29649786513E+03  0.12509164299E+03 0.  0.
          5    1    3    3  502    0  0.10084203562E+02 -0.13640482224E+03 -0.54935483349E+02  0.14745625257E+03  0.41800000000E+01 0.  1.
         -5    1    3    3    0  502  0.11998806887E+03 -0.83825846112E+02 -0.27785261000E+02  0.14904161256E+03  0.41800000000E+01 0.  1.
        -11    1    1    2    0    0 -0.77604165144E+02  0.66222788180E+02 -0.84093326207E+02  0.13221025541E+03  0.00000000000E+00 0.  1.
         11    1    1    2    0    0 -0.52468107285E+02  0.15400788017E+03 -0.56683072863E+02  0.17229132359E+03  0.00000000000E+00 0. -1.
</event>
<event>
 7    1  0.2873461E-009  0.1232187E+03  0.7561462E-02  0.1237880E+00
         -2   -1    0    0    0  501 -0.00000000000E+00  0.00000000000E+00  0.18251907354E+02  0.18251907354E+02  0.00000000000E+00 0.  1.
          2   -1    0    0  501    0  0.00000000000E+00 -0.00000000000E+00 -0.14051061825E+04  0.14051061825E+04  0.00000000000E+00 0. -1.
         25    2    1    2    0    0  0.73027793792E+01  0.11727940257E+03 -0.75781668444E+03  0.77700836986E+03  0.12509232896E+03 0.  0.
          5    1    3    3  502    0 -0.14801783946E+02  0.76018510115E+02 -0.69089070498E+03  0.69523042606E+03  0.41800000000E+01 0. -1.
         -5    1    3    3    0  502  0.22104563325E+02  0.41260892456E+02 -0.66925979460E+02  0.81777943803E+02  0.41800000000E+01 0. -1.
        -11    1    1    2    0    0  0.82748311635E+01 -0.80353484543E+01 -0.48995828792E+01  0.12531782314E+02  0.00000000000E+00 0.  1.
         11    1    1    2    0    0 -0.15577610543E+02 -0.10924405412E+03 -0.62413800786E+03  0.63381793771E+03  0.00000000000E+00 0. -1.
</event>
<event>
 7    1  0.2873461E-009  0.8836786E+02  0.7561462E-02  0.1306853E+00
          3   -1    0    0  501    0  0.00000000000E+00  0.00000000000E+00  0.15073468800E+03  0.15073468800E+03  0.00000000000E+00 0. -1.
         -3   -1    0    0    0  501 -0.00000000000E+00 -0.00000000000E+00 -0.92092390638E+02  0.92092390638E+02  0.00000000000E+00 0.  1.
         25    2    1    2    0    0  0.37327689843E+02  0.19890923475E+02  0.10569256651E+02  0.13248114362E+03  0.12510211414E+03 0.  0.
          5    1    3    3  502    0 -0.35704633462E+02  0.79699925489E+00 -0.29867321704E+02  0.46743827017E+02  0.41800000000E+01 0.  1.
         -5    1    3    3    0  502  0.73032323305E+02  0.19093924220E+02  0.40436578355E+02  0.85737316604E+02  0.41800000000E+01 0.  1.
        -11    1    1    2    0    0 -0.11900986597E+02  0.16767862405E+02  0.60611071576E+02  0.64003880266E+02  0.00000000000E+00 0. -1.
         11    1    1    2    0    0 -0.25426703246E+02 -0.36658785879E+02 -0.12538030867E+02  0.46342054747E+02  0.00000000000E+00 0.  1.
</event>
<event>
 7    1  0.2873461E-009  0.1886843E+03  0.7561462E-02  0.1159653E+00
          3   -1    0    0  501    0  0.00000000000E+00  0.00000000000E+00  0.87088219717E+02  0.87088219717E+02  0.00000000000E+00 0. -1.
         -3   -1    0    0    0  501 -0.00000000000E+00 -0.00000000000E+00 -0.44371876344E+03  0.44371876344E+03  0.00000000000E+00 0.  1.
         25    2    1    2    0    0  0.51892878573E+02 -0.11196488824E+03 -0.10900761120E+03  0.20678341678E+03  0.12509082745E+03 0.  0.
          5    1    3    3  502    0 -0.37859357726E+02 -0.62233495483E+02 -0.47922224827E+02  0.87294621597E+02  0.41800000000E+01 0.  1.
         -5    1    3    3    0  502  0.89752236298E+02 -0.49731392756E+02 -0.61085386377E+02  0.11948879519E+03  0.41800000000E+01 0.  1.
        -11    1    1    2    0    0  0.33415952112E+02  0.11149996309E+03 -0.99688856264E+02  0.15325382765E+03  0.00000000000E+00 0.  1.
         11    1    1    2    0    0 -0.85308830685E+02  0.46492514742E+00 -0.14793407625E+03  0.17076973873E+03  0.00000000000E+00 0. -1.
</event>
<event>
 7    1  0.2873461E-009  0.3495729E+03  0.7561462E-02  0.1062790E+00
         -2   -1    0    0    0  501 -0.00000000000E+00  0.00000000000E+00  0.37190531088E+03  0.37190531088E+03  0.00000000000E+00 0.  1.
          2   -1    0    0  501    0  0.00000000000E+00 -0.00000000000E+00 -0.36034041171E+03  0.36034041171E+03  0.00000000000E+00 0. -1.
         25    2    1    2    0    0 -0.16489830508E+03 -0.30623675450E+03 -0.26819384720E+02  0.37059973770E+03  0.12510989313E+03 0.  0.
          5    1    3    3  502    0 -0.99180863605E+02 -0.17186776255E+03  0.46671475203E+02  0.20388984895E+03  0.41800000000E+01 0.  1.
         -5    1    3    3    0  502 -0.65717441474E+02 -0.13436899195E+03 -0.73490859923E+02  0.16670988874E+03  0.41800000000E+01 0.  1.
        -11    1    1    2    0    0  0.13757799273E+03  0.21048320880E+03  0.62676233913E+02  0.25915091273E+03  0.00000000000E+00 0.  1.
         11    1    1    2    0    0  0.27320312350E+02  0.95753545700E+02 -0.24291950022E+02  0.10249507216E+03  0.00000000000E+00 0. -1.
</event>
<event>
 7    1  0.2873461E-009  0.1451000E+03  0.7561462E-02  0.1206627E+00
         -1   -1    0    0    0  501 -0.00000000000E+00  0.00000000000E+00  0.10421450394E+03  0.10421450394E+03  0.00000000000E+00 0.  1.
          1   -1    0    0  501    0  0.00000000000E+00 -0.00000000000E+00 -0.24397275601E+03  0.24397275601E+03  0.00000000000E+00 0. -1.
         25    2    1    2    0    0  0.68263825866E+02 -0.89557412276E+02 -0.10716850703E+03  0.19953385485E+03  0.12509272688E+03 0.  0.
          5    1    3    3  502    0  0.95587922874E+02 -0.46610535467E+02 -0.36856174664E+02  0.11262967205E+03  0.41800000000E+01 0. -1.
         -5    1    3    3    0  502 -0.27324097008E+02 -0.42946876808E+02 -0.70312332368E+02  0.86904182799E+02  0.41800000000E+01 0. -1.
        -11    1    1    2    0    0 -0.58680474038E+02  0.19275173750E+02  0.14587848796E+02  0.63464444289E+02  0.00000000000E+00 0.  1.
         11    1    1    2    0    0 -0.95833518278E+01  0.70282238526E+02 -0.47177593829E+02  0.85188960810E+02  0.00000000000E+00 0. -1.
</event>
<event>
 7    1  0.2873461E-009  0.1107942E+03  0.7561462E-02  0.1259106E+00
         -1   -1    0    0    0  501 -0.00000000000E+00  0.00000000000E+00  0.33559826796E+03  0.33559826796E+03  0.00000000000E+00 0.  1.
          1   -1    0    0  501    0  0.00000000000E+00 -0.00000000000E+00 -0.50047192848E+02  0.50047192848E+02  0.00000000000E+00 0. -1.
         25    2    1    2    0    0  0.38114480444E+02  0.54875580037E+02  0.18189300602E+03  0.23064196297E+03  0.12508639629E+03 0.  0.
          5    1    3    3  502    0  0.14732443892E+02  0.75743964879E+02  0.43490863712E+02  0.88674239467E+02  0.41800000000E+01 0.  1.
         -5    1    3    3    0  502  0.23382036552E+02 -0.20868384842E+02  0.13840214231E+03  0.14196772350E+03  0.41800000000E+01 0.  1.
        -11    1    1    2    0    0 -0.67544854199E+02 -0.46806374341E+02  0.60056986095E+02  0.10178401440E+03  0.00000000000E+00 0.  1.
         11    1    1    2    0    0  0.29430373755E+02 -0.80692056966E+01  0.43601082991E+02  0.53219483443E+02  0.00000000000E+00 0. -1.
</event>
<event>
 7    1  0.2873461E-009  0.1651496E+03  0.7561462E-02  0.1183003E+00
         -2   -1    0    0    0  501 -0.00000000000E+00  0.00000000000E+00  0.40478333700E+02  0.40478333700E+02  0.00000000000E+00 0.  1.
          2   -1    0    0  501    0  0.00000000000E+00 -0.00000000000E+00 -0.87710798595E+03  0.87710798595E+03  0.00000000000E+00 0. -1.
         25    2    1    2    0    0 -0.11773035925E+03 -0.96188660493E+02 -0.48996195561E+03  0.52803531428E+03  0.12508348923E+03 0.  0.
          5    1    3    3  502    0 -0.63081520926E+02 -0.15458911500E+02 -0.64878723007E+02  0.91896557749E+02  0.41800000000E+01 0.  1.
         -5    1    3    3    0  502 -0.54648838320E+02 -0.80729748992E+02 -0.42508323261E+03  0.43613875653E+03  0.41800000000E+01 0.  1.
        -11    1    1    2    0    0  0.10071674432E+03  0.39050389788E+02 -0.28000110541E+03  0.30011566863E+03  0.00000000000E+00 0. -1.
         11    1    1    2    0    0  0.17013614924E+02  0.57138270705E+02 -0.66666591232E+02  0.89435336743E+02  0.00000000000E+00 0.  1.
</event>
<event>
 7    1  0.2873461E-009  0.1305552E+03  0.7561462E-02  0.1226634E+00
          2   -1    0    0  501    0  0.00000000000E+00  0.00000000000E+00  0.60963188507E+03  0.60963188507E+03  0.00000000000E+00 0. -1.
         -2   -1    0    0    0  501 -0.00000000000E+00 -0.00000000000E+00 -0.29192264651E+02  0.29192264651E+02  0.00000000000E+00 0.  1.
         25    2    1    2    0    0 -0.52341172513E+02  0.54948274819E+02  0.36571100759E+03  0.39388991807E+03  0.12508323323E+03 0.  0.
          5    1    3    3  502    0 -0.89200234112E+02  0.14543455652E+02  0.24913215518E+03  0.26505187608E+03  0.41800000000E+01 0.  1.
         -5    1    3    3    0  502  0.36859061599E+02  0.40404819167E+02  0.11657885242E+03  0.12883804199E+03  0.41800000000E+01 0.  1.
        -11    1    1    2    0    0 -0.70864880763E-01 -0.62789601609E+02  0.93483325446E+02  0.11261292656E+03  0.00000000000E+00 0.  1.
         11    1    1    2    0    0  0.52412037394E+02  0.78413267895E+01  0.12124528737E+03  0.13232130509E+03  0.00000000000E+00 0. -1.
</event>
<event>
 7    1  0.2873461E-009  0.5868693E+02  0.7561462E-02  0.1403426E+00
          2   -1    0    0  501    0  0.00000000000E+00  0.00000000000E+00  0.13225345108E+03  0.13225345108E+03  0.00000000000E+00 0. -1.
         -2   -1    0    0    0  501 -0.00000000000E+00 -0.00000000000E+00 -0.95817017699E+02  0.95817017699E+02  0.00000000000E+00 0.  1.
         25    2    1    2    0    0  0.20162686214E+02  0.17442456865E+02  0.15253769740E+02  0.12880600169E+03  0.12509010898E+03 0.  0.
          5    1    3    3  502    0 -0.26267440541E+02 -0.63926749232E+01 -0.42695331076E+02  0.50707084524E+02  0.41800000000E+01 0. -1.
         -5    1    3    3    0  502  0.46430126755E+02  0.23835131788E+02  0.57949100815E+02  0.78098917170E+02  0.41800000000E+01 0. -1.
        -11    1    1    2    0    0 -0.17252927198E+02  0.25651274369E+01 -0.35244508633E+02  0.39324531332E+02  0.00000000000E+00 0.  1.
         11    1    1    2    0    0 -0.29097590161E+01 -0.20007584302E+02  0.56427172277E+02  0.59939935755E+02  0.00000000000E+00 0. -1.
</event>
<event>
 7    1  0.2873461E-009  0.8907823E+02  0.7561462E-02  0.1305099E+00
          1   -1    0    0  501    0  0.00000000000E+00  0.00000000000E+00  0.24964309732E+03  0.24964309732E+03  0.00000000000E+00 0. -1.
         -1   -1    0    0    0  501 -0.00000000000E+00 -0.00000000000E+00 -0.59509480745E+02  0.59509480745E+02  0.00000000000E+00 0.  1.
         25    2    1    2    0    0 -0.19055157541E+02 -0.47182431487E+02  0.86927219413E+02  0.16060246417E+03  0.12509008415E+03 0.  0.
          5    1    3    3  502    0 -0.33092632040E+02 -0.59622835572E+02 -0.32541142926E+01  0.68396392280E+02  0.41800000000E+01 0. -1.
         -5    1    3    3    0  502  0.14037474499E+02  0.12440404085E+02  0.90181333706E+02  0.92206071889E+02  0.41800000000E+01 0. -1.
        -11    1    1    2    0    0 -0.24227328474E+02  0.39972993025E+02  0.13443842906E+02  0.48636822763E+02  0.00000000000E+00 0.  1.
         11    1    1    2    0    0  0.43282486015E+02  0.72094384616E+01  0.89762554253E+02  0.99913291131E+02  0.00000000000E+00 0. -1.
</event>
<event>
 7    1  0.2873461E-009  0.1245181E+03  0.7561462E-02  0.1235824E+00
          3   -1    0    0  501    0  0.00000000000E+00  0.00000000000E+00  0.37898702467E+02  0.37898702467E+02  0.00000000000E+00 0. -1.
         -3   -1    0    0    0  501 -0.00000000000E+00 -0.00000000000E+00 -0.58763745195E+03  0.58763745195E+03  0.00000000000E+00 0.  1.
         25    2    1    2    0    0 -0.12171038724E+01 -0.13413906082E+02 -0.10485447640E+03  0.16377471832E+03  0.12508510271E+03 0.  0.
          5    1    3    3  502    0 -0.22623050010E+02 -0.65289752656E+02 -0.63520217033E+02  0.93951288259E+02  0.41800000000E+01 0. -1.
         -5    1    3    3    0  502  0.21405946137E+02  0.51875846575E+02 -0.41334259367E+02  0.69823430060E+02  0.41800000000E+01 0. -1.
        -11    1    1    2    0    0  0.37155510192E+02 -0.42887383430E+02 -0.21617100751E+03  0.22349443860E+03  0.00000000000E+00 0.  1.
         11    1    1    2    0    0 -0.35938406320E+02  0.56301289512E+02 -0.22871326557E+03  0.23826699750E+03  0.00000000000E+00 0. -1.
</event>
<event>
 7    1  0.2873461E-009  0.2194055E+03  0.7561462E-02  0.1134327E+00
          2   -1    0    0  501    0  0.00000000000E+00  0.00000000000E+00  0.10625465528E+03  0.10625465528E+03  0.00000000000E+00 0.  1.
         -2   -1    0    0    0  501 -0.00000000000E+00 -0.00000000000E+00 -0.54007912674E+03  0.54007912674E+03  0.00000000000E+00 0. -1.
         25    2    1    2    0    0 -0.16237144435E+03  0.13661406220E+03 -0.19795587543E+03  0.31600962240E+03  0.12509062674E+03 0.  0.
          5    1    3    3  502    0 -0.13281491366E+03  0.62763009093E+02 -0.18343312545E+03  0.23504080606E+03  0.41800000000E+01 0. -1.
         -5    1    3    3    0  502 -0.29556530688E+02  0.73851053110E+02 -0.14522749979E+02  0.80968816336E+02  0.41800000000E+01 0. -1.
        -11    1    1    2    0    0  0.94691287814E+02 -0.79837367895E+02 -0.69672778809E+02  0.14210820317E+03  0.00000000000E+00 0.  1.
         11    1    1    2    0    0  0.67680156537E+02 -0.56776694309E+02 -0.16619581721E+03  0.18821595645E+03  0.00000000000E+00 0. -1.
</event>
<event>
 7    1  0.2873461E-009  0.8315628E+02  0.7561462E-02  0.1320326E+00
         -1   -1    0    0    0  501 -0.00000000000E+00  0.00000000000E+00  0.32435176829E+02  0.32435176829E+02  0.00000000000E+00 0.  1.
          1   -1    0    0  501    0  0.00000000000E+00 -0.00000000000E+00 -0.46831350251E+03  0.46831350251E+03  0.00000000000E+00 0. -1.
         25    2    1    2    0    0 -0.14869768836E+02 -0.19793659779E+02 -0.33720760662E+03  0.36051230909E+03  0.12508899255E+03 0.  0.
          5    1    3    3  502    0  0.22707872277E+02 -0.61501328748E+02 -0.23284754690E+03  0.24193700296E+03  0.41800000000E+01 0. -1.
         -5    1    3    3    0  502 -0.37577641113E+02  0.41707668968E+02 -0.10436005971E+03  0.11857530614E+03  0.41800000000E+01 0. -1.
        -11    1    1    2    0    0  0.11644275331E+02 -0.93932261692E+01  0.15976873738E+02  0.21887949659E+02  0.00000000000E+00 0.  1.
         11    1    1    2    0    0  0.32254935055E+01  0.29186885949E+02 -0.11464759280E+03  0.11834842058E+03  0.00000000000E+00 0. -1.
</event>
<event>
 7    1  0.2873461E-009  0.1633719E+03  0.7561462E-02  0.1184942E+00
         -1   -1    0    0    0  501 -0.00000000000E+00  0.00000000000E+00  0.14020150047E+03  0.14020150047E+03  0.00000000000E+00 0. -1.
          1   -1    0    0  501    0  0.00000000000E+00 -0.00000000000E+00 -0.25949560789E+03  0.25949560789E+03  0.00000000000E+00 0.  1.
         25    2    1    2    0    0  0.14193741417E+03  0.24514559316E+02  0.45556692033E+01  0.19082785304E+03  0.12508925700E+03 0.  0.
          5    1    3    3  502    0 -0.12394565076E+02 -0.18222320054E+02  0.19786687003E+02  0.29910927336E+02  0.41800000000E+01 0.  1.
         -5    1    3    3    0  502  0.15433197924E+03  0.42736879369E+02 -0.15231017800E+02  0.16091692571E+03  0.41800000000E+01 0.  1.
        -11    1    1    2    0    0 -0.12664935159E+03 -0.23370397080E+02 -0.13746245225E+03  0.18836708708E+03  0.00000000000E+00 0.  1.
         11    1    1    2    0    0 -0.15288062582E+02 -0.11441622357E+01  0.13612675631E+02  0.20502168241E+02  0.00000000000E+00 0. -1.
</event>
<event>
 7    1  0.2873461E-009  0.9039844E+02  0.7561462E-02  0.1301890E+00
          2   -1    0    0  501    0  0.00000000000E+00  0.00000000000E+00  0.29123405344E+03  0.29123405344E+03  0.00000000000E+00 0. -1.
         -2   -1    0    0    0  501 -0.00000000000E+00 -0.00000000000E+00 -0.11640532667E+03  0.11640532667E+03  0.00000000000E+00 0.  1.
         25    2    1    2    0    0  0.84712083402E+02 -0.19796093609E+02  0.22249368627E+03  0.26967230710E+03  0.12510671600E+03 0.  0.
          5    1    3    3  502    0  0.66777471955E+02 -0.85784232836E+00  0.26602108096E+02  0.72007716318E+02  0.41800000000E+01 0.  1.
         -5    1    3    3    0  502  0.17934611447E+02 -0.18938251280E+02  0.19589157817E+03  0.19766459078E+03  0.41800000000E+01 0.  1.
        -11    1    1    2    0    0 -0.37813826195E+02  0.42107494129E+01  0.28246271293E+02  0.47386366226E+02  0.00000000000E+00 0. -1.
         11    1    1    2    0    0 -0.46898257207E+02  0.15585344196E+02 -0.75911230786E+02  0.90580706788E+02  0.00000000000E+00 0.  1.
</event>
<event>
 7    1  0.2873461E-009  0.9413818E+02  0.7561462E-02  0.1293129E+00
         -1   -1    0    0    0  501 -0.00000000000E+00  0.00000000000E+00  0.11536778465E+03  0.11536778465E+03  0.00000000000E+00 0.  1.
          1   -1    0    0  501    0  0.00000000000E+00 -0.00000000000E+00 -0.18125299244E+03  0.18125299244E+03  0.00000000000E+00 0. -1.
         25    2    1    2    0    0 -0.19114389599E+02 -0.67574521340E+02  0.24387607475E+02  0.14551119661E+03  0.12508827729E+03 0.  0.
          5    1    3    3  502    0 -0.24054795716E+02 -0.42003228626E+02 -0.48104221856E+02  0.68369532485E+02  0.41800000000E+01 0.  1.
         -5    1    3    3    0  502  0.49404061171E+01 -0.25571292715E+02  0.72491829331E+02  0.77141664122E+02  0.41800000000E+01 0.  1.
        -11    1    1    2    0    0  0.21149594443E+02 -0.17966048925E+02 -0.48534024326E+02  0.55907385704E+02  0.00000000000E+00 0. -1.
         11    1    1    2    0    0 -0.20352048441E+01  0.85540570265E+02 -0.41738790941E+02  0.95202194771E+02  0.00000000000E+00 0.  1.
</event>
<event>
 7    1  0.2873461E-009  0.6927522E+02  0.7561462E-02  0.1362575E+00
          2   -1    0    0  501    0  0.00000000000E+00  0.00000000000E+00  0.17233093706E+03  0.17233093706E+03  0.00000000000E+00 0. -1.
         -2   -1    0    0    0  501 -0.00000000000E+00 -0.00000000000E+00 -0.87826510706E+02  0.87826510706E+02  0.00000000000E+00 0.  1.
         25    2    1    2    0    0 -0.27962827413E+02 -0.31591837690E+02  0.85328555174E+02  0.15719286224E+03  0.12509464292E+03 0.  0.
          5    1    3    3  502    0 -0.20427172017E+02 -0.28921786913E+02  0.11801555760E+03  0.12328375136E+03  0.41800000000E+01 0. -1.
         -5    1    3    3    0  502 -0.75356553962E+01 -0.26700507769E+01 -0.32687002422E+02  0.33909110881E+02  0.41800000000E+01 0. -1.
        -11    1    1    2    0    0  0.19582371076E+02 -0.27739214086E+02 -0.20780084612E+02  0.39808857954E+02  0.00000000000E+00 0.  1.
         11    1    1    2    0    0  0.83804563370E+01  0.59331051776E+02  0.19955955793E+02  0.63155727570E+02  0.00000000000E+00 0. -1.
</event>
<event>
 7    1  0.2873461E-009  0.1724588E+03  0.7561462E-02  0.1175308E+00
         -1   -1    0    0    0  501 -0.00000000000E+00  0.00000000000E+00  0.28024056001E+02  0.28024056001E+02  0.00000000000E+00 0.  1.
          1   -1    0    0  501    0  0.00000000000E+00 -0.00000000000E+00 -0.11174374177E+04  0.11174374177E+04  0.00000000000E+00 0. -1.
         25    2    1    2    0    0 -0.95163216456E+02  0.98492217763E+02 -0.64613350065E+03  0.67222968226E+03  0.12508992898E+03 0.  0.
          5    1    3    3  502    0  0.26650434274E+02  0.42333927808E+02 -0.20997496407E+03  0.21589202168E+03  0.41800000000E+01 0. -1.
         -5    1    3    3    0  502 -0.12181365073E+03  0.56158289955E+02 -0.43615853658E+03  0.45633766058E+03  0.41800000000E+01 0. -1.
        -11    1    1    2    0    0  0.51573107551E+02 -0.10448351872E+03 -0.26291526017E+03  0.28757785926E+03  0.00000000000E+00 0.  1.
         11    1    1    2    0    0  0.43590108905E+02  0.59913009540E+01 -0.18036460084E+03  0.18565393213E+03  0.00000000000E+00 0. -1.
</event>
<event>
 7    1  0.2873461E-009  0.1474509E+03  0.7561462E-02  0.1203641E+00
         -2   -1    0    0    0  501 -0.00000000000E+00  0.00000000000E+00  0.22673145740E+02  0.22673145740E+02  0.00000000000E+00 0.  1.
          2   -1    0    0  501    0  0.00000000000E+00 -0.00000000000E+00 -0.12000691411E+04  0.12000691411E+04  0.00000000000E+00 0. -1.
         25    2    1    2    0    0  0.97343284536E+02  0.75760995145E+02 -0.61293442004E+03  0.63761339701E+03  0.12508715904E+03 0.  0.
          5    1    3    3  502    0 -0.21842202838E+02  0.81565112906E+01 -0.22356112104E+03  0.22481249463E+03  0.41800000000E+01 0. -1.
         -5    1    3    3    0  502  0.11918548737E+03  0.67604483855E+02 -0.38937329900E+03  0.41280090239E+03  0.41800000000E+01 0. -1.
        -11    1    1    2    0    0 -0.16425948935E+02  0.74703491405E+01 -0.14784009409E+02  0.23327769909E+02  0.00000000000E+00 0.  1.
         11    1    1    2    0    0 -0.80917335601E+02 -0.83231344286E+02 -0.54967756596E+03  0.56180111997E+03  0.00000000000E+00 0. -1.
</event>
<event>
 7    1  0.2873461E-009  0.2897273E+03  0.7561462E-02  0.1090492E+00
          1   -1    0    0  501    0  0.00000000000E+00  0.00000000000E+00  0.95378774945E+03  0.95378774945E+03  0.00000000000E+00 0. -1.
         -1   -1    0    0    0  501 -0.00000000000E+00 -0.00000000000E+00 -0.10864934553E+03  0.10864934553E+03  0.00000000000E+00 0.  1.
         25    2    1    2    0    0  0.77660662743E+02  0.27157776804E+03  0.24977026496E+03  0.39726422738E+03  0.12509203997E+03 0.  0.
          5    1    3    3  502    0 -0.92309585827E+01  0.76033862276E+02  0.12479579437E+02  0.77714677583E+02  0.41800000000E+01 0. -1.
         -5    1    3    3    0  502  0.86891621325E+02  0.19554390577E+03  0.23729068552E+03  0.31954954979E+03  0.41800000000E+01 0. -1.
        -11    1    1    2    0    0 -0.27426264588E+01 -0.11618778954E+03  0.16781280470E+03  0.20412805260E+03  0.00000000000E+00 0.  1.
         11    1    1    2    0    0 -0.74918036284E+02 -0.15538997851E+03  0.42755533427E+03  0.46104481500E+03  0.00000000000E+00 0. -1.
</event>
<event>
 7    1  0.2873461E-009  0.1162651E+03  0.7561462E-02  0.1249389E+00
          1   -1    0    0  501    0  0.00000000000E+00  0.00000000000E+00  0.21199536027E+03  0.21199536027E+03  0.00000000000E+00 0. -1.
         -1   -1    0    0    0  501 -0.00000000000E+00 -0.00000000000E+00 -0.10143897718E+03  0.10143897718E+03  0.00000000000E+00 0.  1.
         25    2    1    2    0    0  0.79617995715E+02 -0.57010829078E+02  0.59626252206E+02  0.16968152539E+03  0.12508904921E+03 0.  0.
          5    1    3    3  502    0  0.25200328727E+02 -0.19403538234E+02  0.90899630223E+02  0.96393822616E+02  0.41800000000E+01 0.  1.
         -5    1    3    3    0  502  0.54417666988E+02 -0.37607290844E+02 -0.31273378017E+02  0.73287702773E+02  0.41800000000E+01 0.  1.
        -11    1    1    2    0    0 -0.25879424925E+02 -0.25091324393E+02  0.97881378110E+01  0.37351396708E+02  0.00000000000E+00 0.  1.
         11    1    1    2    0    0 -0.53738570790E+02  0.82102153471E+02  0.41141993079E+02  0.10640141536E+03  0.00000000000E+00 0. -1.
</event>
<event>
 7    1  0.2873461E-009  0.9741651E+02  0.7561462E-02  0.1285824E+00
         -2   -1    0    0    0  501 -0.00000000000E+00  0.00000000000E+00  0.24664603184E+03  0.24664603184E+03  0.00000000000E+00 0.  1.
          2   -1    0    0  501    0  0.00000000000E+00 -0.00000000000E+00 -0.72267226943E+02  0.72267226943E+02  0.00000000000E+00 0. -1.
         25    2    1    2    0    0  0.87033993479E+01  0.28606040079E+02  0.90313143684E+01  0.12892821356E+03  0.12508742912E+03 0.  0.
          5    1    3    3  502    0  0.48609645115E+02 -0.28323802703E+02 -0.86399397342E+01  0.57072378226E+02  0.41800000000E+01 0.  1.
         -5    1    3    3    0  502 -0.39906245767E+02  0.56929842782E+02  0.17671254103E+02  0.71855835337E+02  0.41800000000E+01 0.  1.
        -11    1    1    2    0    0 -0.61991692263E+01 -0.48411219904E+02  0.16268134817E+03  0.16984492031E+03  0.00000000000E+00 0.  1.
         11    1    1    2    0    0 -0.25042301216E+01  0.19805179825E+02  0.26661423578E+01  0.20140124912E+02  0.00000000000E+00 0. -1.
</event>
<event>
 7    1  0.2873461E-009  0.9305415E+02  0.7561462E-02  0.1295620E+00
          2   -1    0    0  501    0  0.00000000000E+00  0.00000000000E+00  0.28082408300E+03  0.28082408300E+03  0.00000000000E+00 0. -1.
         -2   -1    0    0    0  501 -0.00000000000E+00 -0.00000000000E+00 -0.48784772972E+02  0.48784772972E+02  0.00000000000E+00 0.  1.
         25    2    1    2    0    0  0.20835437534E+01  0.41704177225E+02  0.12667896927E+03  0.18285968487E+03  0.12508606455E+03 0.  0.
          5    1    3    3  502    0 -0.23874459309E+02 -0.14031302684E+02 -0.12483781235E+02  0.30662427436E+02  0.41800000000E+01 0. -1.
         -5    1    3    3    0  502  0.25958003063E+02  0.55735479909E+02  0.13916275051E+03  0.15219725744E+03  0.41800000000E+01 0. -1.
        -11    1    1    2    0    0 -0.44539930845E+02 -0.21537807940E+02  0.77989043989E+02  0.92357856151E+02  0.00000000000E+00 0. -1.
         11    1    1    2    0    0  0.42456387091E+02 -0.20166369285E+02  0.27371296773E+02  0.54391314950E+02  0.00000000000E+00 0.  1.
</event>
<event>
 7    1  0.2873461E-009  0.1453672E+03  0.7561462E-02  0.1206284E+00
          1   -1    0    0  501    0  0.00000000000E+00  0.00000000000E+00  0.36523464847E+03  0.36523464847E+03  0.00000000000E+00 0. -1.
         -1   -1    0    0    0  501 -0.00000000000E+00 -0.00000000000E+00 -0.70682221313E+02  0.70682221313E+02  0.00000000000E+00 0.  1.
         25    2    1    2    0    0 -0.57282175085E+02  0.88897175847E+02  0.10015345380E+03  0.19199398854E+03  0.12508805647E+03 0.  0.
          5    1    3    3  502    0 -0.78312716549E+02  0.93244105018E+02  0.11337651435E+03  0.16643031905E+03  0.41800000000E+01 0. -1.
         -5    1    3    3    0  502  0.21030541464E+02 -0.43469291709E+01 -0.13223060549E+02  0.25563669489E+02  0.41800000000E+01 0. -1.
        -11    1    1    2    0    0 -0.29763021925E+02 -0.18271334854E+02  0.53213707758E+02  0.63650434757E+02  0.00000000000E+00 0.  1.
         11    1    1    2    0    0  0.87045197010E+02 -0.70625840993E+02  0.14118526560E+03  0.18027244648E+03  0.00000000000E+00 0. -1.
</event>
<event>
 7    1  0.2873461E-009  0.1696142E+03  0.7561462E-02  0.1178251E+00
         -1   -1    0    0    0  501 -0.00000000000E+00  0.00000000000E+00  0.12877091716E+03  0.12877091716E+03  0.00000000000E+00 0.  1.
          1   -1    0    0  501    0  0.00000000000E+00 -0.00000000000E+00 -0.38119685308E+03  0.38119685308E+03  0.00000000000E+00 0. -1.
         25    2    1    2    0    0  0.13187065224E+03  0.51827303370E+02  0.16153072147E+02  0.18967570359E+03  0.12506003557E+03 0.  0.
          5    1    3    3  502    0  0.12425078151E+03 -0.10057703824E+02 -0.15057059394E+01  0.12473633658E+03  0.41800000000E+01 0.  1.
         -5    1    3    3    0  502  0.76198707329E+01  0.61885007194E+02  0.17658778086E+02  0.64939367019E+02  0.41800000000E+01 0.  1.
        -11    1    1    2    0    0 -0.12109801530E+03 -0.25766021307E+02 -0.26417764487E+03  0.29175065590E+03  0.00000000000E+00 0. -1.
         11    1    1    2    0    0 -0.10772636938E+02 -0.26061282062E+02 -0.44013631978E+01  0.28541410745E+02  0.00000000000E+00 0.  1.
</event>
<event>
 7    1  0.3408226E-009  0.1380294E+03  0.7561462E-02  0.1216005E+00
          1   -1    0    0  501    0  0.00000000000E+00  0.00000000000E+00  0.65236690430E+03  0.65236690430E+03  0.00000000000E+00 0. -1.
         -1   -1    0    0    0  501 -0.00000000000E+00 -0.00000000000E+00 -0.32013123745E+02  0.32013123745E+02  0.00000000000E+00 0.  1.
         25    2    1    2    0    0 -0.64995306532E+02  0.56979265463E+02  0.43232869503E+03  0.45828011733E+03  0.12506613785E+03 0.  0.
          5    1    3    3  502    0  0.37376265517E+02  0.19006654618E+02  0.13968210352E+03  0.14589996775E+03  0.41800000000E+01 0.  1.
         -5    1    3    3    0  502 -0.10237157205E+03  0.37972610846E+02  0.29264659150E+03  0.31238014959E+03  0.41800000000E+01 0.  1.
        -11    1    1    2    0    0  0.76312325432E+02 -0.10759384815E+02  0.12918283562E+03  0.15042453388E+03  0.00000000000E+00 0.  1.
         11    1    1    2    0    0 -0.11317018900E+02 -0.46219880648E+02  0.58842249899E+02  0.75675376822E+02  0.00000000000E+00 0. -1.
</event>
<event>
 7    1  0.2873461E-009  0.7834295E+02  0.7561462E-02  0.1333821E+00
         -2   -1    0    0    0  501 -0.00000000000E+00  0.00000000000E+00  0.61741773476E+02  0.61741773476E+02  0.00000000000E+00 0.  1.
          2   -1    0    0  501    0  0.00000000000E+00 -0.00000000000E+00 -0.20749635763E+03  0.20749635763E+03  0.00000000000E+00 0. -1.
         25    2    1    2    0    0  0.25381647142E+02  0.18558733858E+01 -0.56547209556E+02  0.13961511139E+03  0.12508844927E+03 0.  0.
          5    1    3    3  502    0  0.48764526978E+01 -0.28917167652E+02  0.31975747380E+02  0.43587879008E+02  0.41800000000E+01 0. -1.
         -5    1    3    3    0  502  0.20505194444E+02  0.30773041038E+02 -0.88522956936E+02  0.96027232381E+02  0.41800000000E+01 0. -1.
        -11    1    1    2    0    0  0.32205704206E+02  0.57681236564E+00 -0.14655490092E+02  0.35388182855E+02  0.00000000000E+00 0.  1.
         11    1    1    2    0    0 -0.57587351348E+02 -0.24326857515E+01 -0.74551884506E+02  0.94234836864E+02  0.00000000000E+00 0. -1.
</event>
<event>
 7    1  0.2873461E-009  0.9110801E+02  0.7561462E-02  0.1300190E+00
         -2   -1    0    0    0  501 -0.00000000000E+00  0.00000000000E+00  0.23907263487E+03  0.23907263487E+03  0.00000000000E+00 0.  1.
          2   -1    0    0  501    0  0.00000000000E+00 -0.00000000000E+00 -0.56654638265E+02  0.56654638265E+02  0.00000000000E+00 0. -1.
         25    2    1    2    0    0  0.24481737986E+02  0.25184352973E+02  0.12632073356E+03  0.18120955471E+03  0.12508544225E+03 0.  0.
          5    1    3    3  502    0  0.16178264753E+02  0.61338446028E+02  0.17169650134E+02  0.65851427450E+02  0.41800000000E+01 0.  1.
         -5    1    3    3    0  502  0.83034732329E+01 -0.36154093055E+02  0.10915108343E+03  0.11535812726E+03  0.41800000000E+01 0.  1.
        -11    1    1    2    0    0 -0.16017341493E+02  0.25397810071E+02  0.55645842640E+02  0.63230244251E+02  0.00000000000E+00 0.  1.
         11    1    1    2    0    0 -0.84643964927E+01 -0.50582163044E+02  0.45142040003E+00  0.51287474168E+02  0.00000000000E+00 0. -1.
</event>
<event>
 7    1  0.2873461E-009  0.1449220E+03  0.7561462E-02  0.1206855E+00
         -2   -1    0    0    0  501 -0.00000000000E+00  0.00000000000E+00  0.17535387227E+02  0.17535387227E+02  0.00000000000E+00 0.  1.
          2   -1    0    0  501    0  0.00000000000E+00 -0.00000000000E+00 -0.12683041179E+04  0.12683041179E+04  0.00000000000E+00 0. -1.
         25    2    1    2    0    0  0.17999157263E+02  0.10047424942E+03 -0.74796812870E+03  0.76519325016E+03  0.12508134983E+03 0.  0.
          5    1    3    3  502    0  0.55213790069E+02  0.71657099976E+01 -0.18227439617E+03  0.19063404185E+03  0.41800000000E+01 0. -1.
         -5    1    3    3    0  502 -0.37214632806E+02  0.93308539425E+02 -0.56569373254E+03  0.57455920831E+03  0.41800000000E+01 0. -1.
        -11    1    1    2    0    0  0.34138599189E+02 -0.27802825618E+02 -0.12946465411E+03  0.13674625308E+03  0.00000000000E+00 0. -1.
         11    1    1    2    0    0 -0.52137756452E+02 -0.72671423804E+02 -0.37333594782E+03  0.38390000185E+03  0.00000000000E+00 0.  1.
</event>
<event>
 7    1  0.2873461E-009  0.1552054E+03  0.7561462E-02  0.1194219E+00
          2   -1    0    0  501    0  0.00000000000E+00  0.00000000000E+00  0.54299658746E+03  0.54299658746E+03  0.00000000000E+00 0. -1.
         -2   -1    0    0    0  501 -0.00000000000E+00 -0.00000000000E+00 -0.10946760027E+03  0.10946760027E+03  0.00000000000E+00 0.  1.
         25    2    1    2    0    0 -0.14331088755E+03 -0.21980532054E+02  0.44007935986E+03  0.47993524318E+03  0.12508733107E+03 0.  0.
          5    1    3    3  502    0 -0.78226978329E+02 -0.44034715150E+02  0.37350899954E+03  0.38416788181E+03  0.41800000000E+01 0.  1.
         -5    1    3    3    0  502 -0.65083909217E+02  0.22054183096E+02  0.66570360318E+02  0.95767361370E+02  0.41800000000E+01 0.  1.
        -11    1    1    2    0    0  0.74289849965E+02 -0.11176866371E+02 -0.44239405108E+02  0.87183881044E+02  0.00000000000E+00 0.  1.
         11    1    1    2    0    0  0.69021037581E+02  0.33157398425E+02  0.37689032432E+02  0.85345063506E+02  0.00000000000E+00 0. -1.
</event>
<event>
 7    1  0.2873461E-009  0.1319573E+03  0.7561462E-02  0.1224580E+00
          1   -1    0    0  501    0  0.00000000000E+00  0.00000000000E+00  0.15348926870E+03  0.15348926870E+03  0.00000000000E+00 0. -1.
         -1   -1    0    0    0  501 -0.00000000000E+00 -0.00000000000E+00 -0.11460676217E+03  0.11460676217E+03  0.00000000000E+00 0.  1.
         25    2    1    2    0    0 -0.69197267664E+02  0.34214807634E+02  0.15932631110E+02  0.14785327746E+03  0.12509127871E+03 0.  0.
          5    1    3    3  502    0 -0.34366132563E+02 -0.46443974693E+02 -0.25166822912E+01  0.57981720761E+02  0.41800000000E+01 0. -1.
         -5    1    3    3    0  502 -0.34831135102E+02  0.80658782327E+02  0.18449313401E+02  0.89871556701E+02  0.41800000000E+01 0. -1.
        -11    1    1    2    0    0  0.35664286097E+02 -0.63943282915E+02  0.14590372726E+02  0.74656303881E+02  0.00000000000E+00 0.  1.
         11    1    1    2    0    0  0.33532981567E+02  0.29728475282E+02  0.83595026949E+01  0.45586449529E+02  0.00000000000E+00 0. -1.
</event>
<event>
 7    1  0.2873461E-009  0.1195364E+03  0.7561462E-02  0.1243864E+00
          3   -1    0    0  501    0  0.00000000000E+00  0.00000000000E+00  0.34954257760E+03  0.34954257760E+03  0.00000000000E+00 0. -1.
         -3   -1    0    0    0  501 -0.00000000000E+00 -0.00000000000E+00 -0.87346433109E+02  0.87346433109E+02  0.00000000000E+00 0.  1.
         25    2    1    2    0    0 -0.66682158802E+00 -0.75724173455E+02 -0.29882691811E+01  0.14625232442E+03  0.12508484140E+03 0.  0.
          5    1    3    3  502    0  0.50776524578E+02 -0.23570933866E+02 -0.35048250099E+02  0.66179276262E+02  0.41800000000E+01 0. -1.
         -5    1    3    3    0  502 -0.51443346166E+02 -0.52153239589E+02  0.32059980918E+02  0.80073048155E+02  0.41800000000E+01 0. -1.
        -11    1    1    2    0    0  0.35804308200E+02  0.13817420051E+02  0.44537835880E+02  0.58791907670E+02  0.00000000000E+00 0.  1.
         11    1    1    2    0    0 -0.35137486612E+02  0.61906753404E+02  0.22064657779E+03  0.23184477862E+03  0.00000000000E+00 0. -1.
</event>
<event>
 7    1  0.2873461E-009  0.2371845E+03  0.7561462E-02  0.1121683E+00
         -2   -1    0    0    0  501 -0.00000000000E+00  0.00000000000E+00  0.29382845151E+02  0.29382845151E+02  0.00000000000E+00 0.  1.
          2   -1    0    0  501    0  0.00000000000E+00 -0.00000000000E+00 -0.19501929109E+04  0.19501929109E+04  0.00000000000E+00 0. -1.
         25    2    1    2    0    0 -0.16846001261E+03 -0.13058260327E+03 -0.93014236902E+03  0.96241474927E+03  0.12508689310E+03 0.  0.
          5    1    3    3  502    0 -0.18643946974E+03 -0.10460298430E+03 -0.84067185967E+03  0.86743766822E+03  0.41800000000E+01 0. -1.
         -5    1    3    3    0  502  0.17979457130E+02 -0.25979618967E+02 -0.89470509351E+02  0.94977081045E+02  0.41800000000E+01 0. -1.
        -11    1    1    2    0    0  0.44134457008E+02  0.85888604213E+02 -0.35428096951E+03  0.36720526682E+03  0.00000000000E+00 0. -1.
         11    1    1    2    0    0  0.12432555560E+03  0.44693999056E+02 -0.63638672719E+03  0.64995573993E+03  0.00000000000E+00 0.  1.
</event>
<event>
 7    1  0.2873461E-009  0.1124214E+03  0.7561462E-02  0.1256150E+00
         -1   -1    0    0    0  501 -0.00000000000E+00  0.00000000000E+00  0.16496962502E+03  0.16496962502E+03  0.00000000000E+00 0.  1.
          1   -1    0    0  501    0  0.00000000000E+00 -0.00000000000E+00 -0.79404895198E+02  0.79404895198E+02  0.00000000000E+00 0. -1.
         25    2    1    2    0    0 -0.24944001403E+02  0.25044220716E+02  0.54639707394E+02  0.14100156251E+03  0.12508607760E+03 0.  0.
          5    1    3    3  502    0  0.49394140539E+02  0.25019829275E+02  0.23713009801E+02  0.60378408478E+02  0.41800000000E+01 0.  1.
         -5    1    3    3    0  502 -0.74338141942E+02  0.24391440428E-01  0.30926697593E+02  0.80623154034E+02  0.41800000000E+01 0.  1.
        -11    1    1    2    0    0  0.56843410213E+02 -0.26940950819E+02  0.33581253754E+02  0.71307003299E+02  0.00000000000E+00 0.  1.
         11    1    1    2    0    0 -0.31899408810E+02  0.18967301031E+01 -0.26562313216E+01  0.32065954412E+02  0.00000000000E+00 0. -1.
</event>
<event>
 7    1  0.2873461E-009  0.1151784E+03  0.7561462E-02  0.1251270E+00
          1   -1    0    0  501    0  0.00000000000E+00  0.00000000000E+00  0.60713348078E+03  0.60713348078E+03  0.00000000000E+00 0. -1.
         -1   -1    0    0    0  501 -0.00000000000E+00 -0.00000000000E+00 -0.28616773124E+02  0.28616773124E+02  0.00000000000E+00 0.  1.
         25    2    1    2    0    0  0.15294643503E+02  0.39231713053E+02  0.47063414858E+03  0.48879014467E+03  0.12508497225E+03 0.  0.
          5    1    3    3  502    0 -0.46713160788E+02 -0.13939650166E+02  0.14460001504E+03  0.15265343097E+03  0.41800000000E+01 0. -1.
         -5    1    3    3    0  502  0.62007804292E+02  0.53171363219E+02  0.32603413355E+03  0.33613671370E+03  0.41800000000E+01 0. -1.
        -11    1    1    2    0    0  0.33689056646E+02 -0.37800812188E+02  0.58898552419E+02  0.77671702806E+02  0.00000000000E+00 0.  1.
         11    1    1    2    0    0 -0.48983700149E+02 -0.14309008647E+01  0.48984006650E+02  0.69288406426E+02  0.00000000000E+00 0. -1.
</event>
<event>
 6    1  0.2873461E-009  0.1170113E+03  0.7561462E-02  0.1248110E+00
         -1   -1    0    0    0  501 -0.00000000000E+00  0.00000000000E+00  0.11786112094E+03  0.11786112094E+03  0.00000000000E+00 0.  1.
          1   -1    0    0  501    0  0.00000000000E+00 -0.00000000000E+00 -0.22715190649E+03  0.22715190649E+03  0.00000000000E+00 0. -1.
          5    1    1    2  502    0  0.77454648559E+01  0.16015103310E+02 -0.10599491082E+03  0.10755867831E+03  0.41800000000E+01 0. -1.
         -5    1    1    2    0  502  0.65831258081E+02 -0.72989051887E+02 -0.39507126264E+02  0.10601623301E+03  0.41800000000E+01 0. -1.
        -11    1    1    2    0    0 -0.86502995493E+02  0.58388865745E+02  0.13455010696E+02  0.10522863291E+03  0.00000000000E+00 0.  1.
         11    1    1    2    0    0  0.12926272556E+02 -0.14149171678E+01  0.22756240836E+02  0.26209483203E+02  0.00000000000E+00 0. -1.
</event>
<event>
 7    1  0.2873461E-009  0.1355725E+03  0.7561462E-02  0.1219414E+00
         -1   -1    0    0    0  501 -0.00000000000E+00  0.00000000000E+00  0.32663841415E+02  0.32663841415E+02  0.00000000000E+00 0.  1.
          1   -1    0    0  501    0  0.00000000000E+00 -0.00000000000E+00 -0.64556536832E+03  0.64556536832E+03  0.00000000000E+00 0. -1.
         25    2    1    2    0    0 -0.87763908189E+02  0.39426495665E+02 -0.35600901606E+03  0.38941850366E+03  0.12508956525E+03 0.  0.
          5    1    3    3  502    0 -0.52339187679E+02  0.73647445114E+02 -0.30606011836E+03  0.31914511619E+03  0.41800000000E+01 0. -1.
         -5    1    3    3    0  502 -0.35424720510E+02 -0.34220949450E+02 -0.49948897701E+02  0.70273387466E+02  0.41800000000E+01 0. -1.
        -11    1    1    2    0    0  0.97509167479E+02 -0.55700696161E+02 -0.22937165844E+03  0.25538590993E+03  0.00000000000E+00 0. -1.
         11    1    1    2    0    0 -0.97452592896E+01  0.16274200497E+02 -0.27520852404E+02  0.33424796147E+02  0.00000000000E+00 0.  1.
</event>
<event>
 7    1  0.2873461E-009  0.1411205E+03  0.7561462E-02  0.1211829E+00
         -1   -1    0    0    0  501 -0.00000000000E+00  0.00000000000E+00  0.11861007953E+03  0.11861007953E+03  0.00000000000E+00 0.  1.
          1   -1    0    0  501    0  0.00000000000E+00 -0.00000000000E+00 -0.20979520026E+03  0.20979520026E+03  0.00000000000E+00 0. -1.
         25    2    1    2    0    0  0.86186442458E+02 -0.56447015348E+02  0.32100854599E+01  0.16207812769E+03  0.12507856099E+03 0.  0.
          5    1    3    3  502    0  0.47296533368E+02 -0.91508481693E+02 -0.19378875576E+02  0.10489889184E+03  0.41800000000E+01 0. -1.
         -5    1    3    3    0  502  0.38889909090E+02  0.35061466345E+02  0.22588961036E+02  0.57179235847E+02  0.41800000000E+01 0. -1.
        -11    1    1    2    0    0  0.12367438350E+02 -0.12308100368E+01  0.64307954051E+01  0.13993696946E+02  0.00000000000E+00 0.  1.
         11    1    1    2    0    0 -0.98553880808E+02  0.57677825385E+02 -0.10082600160E+03  0.15233345516E+03  0.00000000000E+00 0. -1.
</event>
<event>
 7    1  0.2873461E-009  0.1107083E+03  0.7561462E-02  0.1259264E+00
         -1   -1    0    0    0  501 -0.00000000000E+00  0.00000000000E+00  0.19487899680E+03  0.19487899680E+03  0.00000000000E+00 0.  1.
          1   -1    0    0  501    0  0.00000000000E+00 -0.00000000000E+00 -0.97444963155E+02  0.97444963155E+02  0.00000000000E+00 0. -1.
         25    2    1    2    0    0 -0.76530755629E+02  0.61739854921E+01  0.16238948373E+02  0.14767046690E+03  0.12509112157E+03 0.  0.
          5    1    3    3  502    0 -0.81538500040E+02  0.49509496932E+02  0.32594835273E+02  0.10089406802E+03  0.41800000000E+01 0.  1.
         -5    1    3    3    0  502  0.50077444112E+01 -0.43335511440E+02 -0.16355886899E+02  0.46776398879E+02  0.41800000000E+01 0.  1.
        -11    1    1    2    0    0  0.31261137240E+02 -0.16969480045E+02  0.90459271664E+02  0.97201346619E+02  0.00000000000E+00 0.  1.
         11    1    1    2    0    0  0.45269618389E+02  0.10795494553E+02 -0.92641863947E+01  0.47452146435E+02  0.00000000000E+00 0. -1.
</event>
<event>
 7    1  0.3997791E-009  0.1259383E+03  0.7561462E-02  0.1233610E+00
          2   -1    0    0  501    0  0.00000000000E+00  0.00000000000E+00  0.98625182681E+03  0.98625182681E+03  0.00000000000E+00 0.  1.
         -2   -1    0    0    0  501 -0.00000000000E+00 -0.00000000000E+00 -0.19269800147E+02  0.19269800147E+02  0.00000000000E+00 0. -1.
         25    2    1    2    0    0 -0.77529841234E+02  0.30012900312E+02  0.59298755109E+03  0.61171803581E+03  0.12511222611E+03 0.  0.
          5    1    3    3  502    0  0.23219666191E+02  0.13262318948E+02  0.30367836671E+03  0.30488205065E+03  0.41800000000E+01 0.  1.
         -5    1    3    3    0  502 -0.10074950742E+03  0.16750581364E+02  0.28930918438E+03  0.30683598516E+03  0.41800000000E+01 0.  1.
        -11    1    1    2    0    0  0.85984981695E+02  0.54299013633E+01  0.24232326568E+03  0.25718372031E+03  0.00000000000E+00 0. -1.
         11    1    1    2    0    0 -0.84551404608E+01 -0.35442801675E+02  0.13167120990E+03  0.13661987083E+03  0.00000000000E+00 0.  1.
</event>
<event>
 7    1  0.6686181E-009  0.1337106E+03  0.7561462E-02  0.1222051E+00
          1   -1    0    0  501    0  0.00000000000E+00  0.00000000000E+00  0.16001224922E+03  0.16001224922E+03  0.00000000000E+00 0. -1.
         -1   -1    0    0    0  501 -0.00000000000E+00 -0.00000000000E+00 -0.16537071705E+03  0.16537071705E+03  0.00000000000E+00 0.  1.
         25    2    1    2    0    0 -0.80290249590E+02 -0.85228559579E+02 -0.31905780567E+02  0.17428617751E+03  0.12508901347E+03 0.  0.
          5    1    3    3  502    0 -0.28985271783E+02  0.14208222611E+02  0.31763368725E+02  0.45479704956E+02  0.41800000000E+01 0.  1.
         -5    1    3    3    0  502 -0.51304977807E+02 -0.99436782190E+02 -0.63669149292E+02  0.12880647255E+03  0.41800000000E+01 0.  1.
        -11    1    1    2    0    0  0.31993503175E+02  0.60969765818E+02 -0.27980345732E+02  0.74322246579E+02  0.00000000000E+00 0.  1.
         11    1    1    2    0    0  0.48296746415E+02  0.24258793762E+02  0.54527658467E+02  0.76774542180E+02  0.00000000000E+00 0. -1.
</event>
<event>
 7    1  0.2873461E-009  0.1022678E+03  0.7561462E-02  0.1275598E+00
         -1   -1    0    0    0  501 -0.00000000000E+00  0.00000000000E+00  0.72234481982E+02  0.72234481982E+02  0.00000000000E+00 0.  1.
          1   -1    0    0  501    0  0.00000000000E+00 -0.00000000000E+00 -0.18354238117E+03  0.18354238117E+03  0.00000000000E+00 0. -1.
         25    2    1    2    0    0 -0.38600870689E+02 -0.14313839136E+01 -0.72102442083E+02  0.14945767971E+03  0.12508700889E+03 0.  0.
          5    1    3    3  502    0  0.39718494401E+02  0.85894737414E+01 -0.55083440875E+02  0.68578391023E+02  0.41800000000E+01 0. -1.
         -5    1    3    3    0  502 -0.78319365090E+02 -0.10020857655E+02 -0.17019001208E+02  0.80879288686E+02  0.41800000000E+01 0. -1.
        -11    1    1    2    0    0  0.29296667880E+00 -0.33064333564E+02  0.10515862617E+02  0.34697540981E+02  0.00000000000E+00 0.  1.
         11    1    1    2    0    0  0.38307904010E+02  0.34495717478E+02 -0.49721319723E+02  0.71621642462E+02  0.00000000000E+00 0. -1.
</event>
<event>
 7    1  0.2873461E-009  0.1227211E+03  0.7561462E-02  0.1238674E+00
         -1   -1    0    0    0  501 -0.00000000000E+00  0.00000000000E+00  0.20819381672E+03  0.20819381672E+03  0.00000000000E+00 0.  1.
          1   -1    0    0  501    0  0.00000000000E+00 -0.00000000000E+00 -0.10477626995E+03  0.10477626995E+03  0.00000000000E+00 0. -1.
         25    2    1    2    0    0  0.30307746783E+02  0.85526127285E+02  0.11065421239E+02  0.15497717957E+03  0.12514873023E+03 0.  0.
          5    1    3    3  502    0 -0.10837065927E+02 -0.27405450365E+02 -0.12741087107E+02  0.32377591144E+02  0.41800000000E+01 0. -1.
         -5    1    3    3    0  502  0.41144812710E+02  0.11293157765E+03  0.23806508346E+02  0.12259958843E+03  0.41800000000E+01 0. -1.
        -11    1    1    2    0    0 -0.33223048889E+02 -0.51668791577E+02  0.19993407397E+01  0.61460819746E+02  0.00000000000E+00 0. -1.
         11    1    1    2    0    0  0.29153021064E+01 -0.33857335708E+02  0.90352784792E+02  0.96532087346E+02  0.00000000000E+00 0.  1.
</event>
<event>
 7    1  0.2873461E-009  0.8991093E+02  0.7561462E-02  0.1303068E+00
         -4   -1    0    0    0  501 -0.00000000000E+00  0.00000000000E+00  0.25725892215E+03  0.25725892215E+03  0.00000000000E+00 0. -1.
          4   -1    0    0  501    0  0.00000000000E+00 -0.00000000000E+00 -0.66364979464E+02  0.66364979464E+02  0.00000000000E+00 0.  1.
         25    2    1    2    0    0 -0.50457380687E+02  0.52405655913E+02  0.81221583861E+02  0.16594309318E+03  0.12509142437E+03 0.  0.
          5    1    3    3  502    0  0.18909596567E+02  0.24465762130E+02 -0.22166976579E+02  0.38275234938E+02  0.41800000000E+01 0. -1.
         -5    1    3    3    0  502 -0.69366977254E+02  0.27939893783E+02  0.10338856044E+03  0.12766785824E+03  0.41800000000E+01 0. -1.
        -11    1    1    2    0    0  0.14883773315E+02 -0.23803540995E+02 -0.98398836779E+01  0.29748253441E+02  0.00000000000E+00 0.  1.
         11    1    1    2    0    0  0.35573607372E+02 -0.28602114917E+02  0.11951224250E+03  0.12793255499E+03  0.00000000000E+00 0. -1.
</event>
<event>
 7    1  0.2873461E-009  0.1040512E+03  0.7561462E-02  0.1272000E+00
         -1   -1    0    0    0  501 -0.00000000000E+00  0.00000000000E+00  0.20719589812E+02  0.20719589812E+02  0.00000000000E+00 0.  1.
          1   -1    0    0  501    0  0.00000000000E+00 -0.00000000000E+00 -0.64505443924E+03  0.64505443924E+03  0.00000000000E+00 0. -1.
         25    2    1    2    0    0  0.25465049688E+02 -0.20023457131E+02 -0.29546800513E+03  0.32248450880E+03  0.12508200818E+03 0.  0.
          5    1    3    3  502    0  0.59202853053E+02  0.15956035903E+02 -0.24174123749E+03  0.24943109508E+03  0.41800000000E+01 0. -1.
         -5    1    3    3    0  502 -0.33737803365E+02 -0.35979493034E+02 -0.53726767636E+02  0.73053413715E+02  0.41800000000E+01 0. -1.
        -11    1    1    2    0    0  0.21420563863E+02  0.40629895366E+02 -0.12781097583E+03  0.13581338114E+03  0.00000000000E+00 0.  1.
         11    1    1    2    0    0 -0.46885613551E+02 -0.20606438235E+02 -0.20105586847E+03  0.20747613911E+03  0.00000000000E+00 0. -1.
</event>
<event>
 7    1  0.2873461E-009  0.1465127E+03  0.7561462E-02  0.1204825E+00
         -2   -1    0    0    0  501 -0.00000000000E+00  0.00000000000E+00  0.19761807421E+02  0.19761807421E+02  0.00000000000E+00 0.  1.
          2   -1    0    0  501    0  0.00000000000E+00 -0.00000000000E+00 -0.11991966183E+04  0.11991966183E+04  0.00000000000E+00 0. -1.
         25    2    1    2    0    0 -0.90997289382E+02 -0.56492927172E+02 -0.71894869404E+03  0.73756904697E+03  0.12509563097E+03 0.  0.
          5    1    3    3  502    0 -0.10771592823E+03 -0.78916416049E+02 -0.53331605473E+03  0.54979451484E+03  0.41800000000E+01 0.  1.
         -5    1    3    3    0  502  0.16718638848E+02  0.22423488877E+02 -0.18563263931E+03  0.18777453212E+03  0.41800000000E+01 0.  1.
        -11    1    1    2    0    0  0.48070735891E+02 -0.12701205623E+02 -0.26496936133E+03  0.26959391447E+03  0.00000000000E+00 0. -1.
         11    1    1    2    0    0  0.42926553492E+02  0.69194132795E+02 -0.19551675552E+03  0.21179546430E+03  0.00000000000E+00 0.  1.
</event>
<event>
 7    1  0.2873461E-009  0.1192088E+03  0.7561462E-02  0.1244408E+00
          2   -1    0    0  501    0  0.00000000000E+00  0.00000000000E+00  0.72123588922E+02  0.72123588922E+02  0.00000000000E+00 0.  1.
         -2   -1    0    0    0  501 -0.00000000000E+00 -0.00000000000E+00 -0.31876181273E+03  0.31876181273E+03  0.00000000000E+00 0. -1.
         25    2    1    2    0    0  0.70129126841E+02  0.18085121945E+02 -0.23214396941E+03  0.27344738546E+03  0.12504992610E+03 0.  0.
          5    1    3    3  502    0  0.10032805279E+03 -0.11365680855E+02 -0.14771791354E+03  0.17897751607E+03  0.41800000000E+01 0.  1.
         -5    1    3    3    0  502 -0.30198925947E+02  0.29450802800E+02 -0.84426055864E+02  0.94469869391E+02  0.41800000000E+01 0.  1.
        -11    1    1    2    0    0  0.77093663143E+01 -0.15243675424E+02  0.24865468192E+02  0.30167788746E+02  0.00000000000E+00 0.  1.
         11    1    1    2    0    0 -0.77838493156E+02 -0.28414465206E+01 -0.39359722588E+02  0.87270227439E+02  0.00000000000E+00 0. -1.
</event>
<event>
 7    1  0.2873461E-009  0.1069550E+03  0.7561462E-02  0.1266315E+00
          2   -1    0    0  501    0  0.00000000000E+00  0.00000000000E+00  0.56757422116E+03  0.56757422116E+03  0.00000000000E+00 0.  1.
         -2   -1    0    0    0  501 -0.00000000000E+00 -0.00000000000E+00 -0.24086281166E+02  0.24086281166E+02  0.00000000000E+00 0. -1.
         25    2    1    2    0    0 -0.25812660379E+01  0.15176571040E+02  0.20429425936E+03  0.24004339713E+03  0.12509075448E+03 0.  0.
          5    1    3    3  502    0  0.22763649199E+02 -0.50465082691E+02  0.92462378168E+02  0.10785022982E+03  0.41800000000E+01 0.  1.
         -5    1    3    3    0  502 -0.25344915236E+02  0.65641653731E+02  0.11183188119E+03  0.13219316731E+03  0.41800000000E+01 0.  1.
        -11    1    1    2    0    0 -0.31823162984E+02 -0.35713048808E+02  0.23839913074E+03  0.24315073739E+03  0.00000000000E+00 0.  1.
         11    1    1    2    0    0  0.34404429022E+02  0.20536477768E+02  0.10079454989E+03  0.10846636780E+03  0.00000000000E+00 0. -1.
</event>
<event>
 7    1  0.2873461E-009  0.3191699E+03  0.7561462E-02  0.1076032E+00
         -2   -1    0    0    0  501 -0.00000000000E+00  0.00000000000E+00  0.20298574016E+03  0.20298574016E+03  0.00000000000E+00 0.  1.
          2   -1    0    0  501    0  0.00000000000E+00 -0.00000000000E+00 -0.51770147926E+03  0.51770147926E+03  0.00000000000E+00 0. -1.
         25    2    1    2    0    0 -0.16914376812E+03 -0.25437099309E+03 -0.16128362705E+03  0.36738801862E+03  0.12508929392E+03 0.  0.
          5    1    3    3  502    0 -0.57989202819E+02 -0.18603478733E+03 -0.66049195904E+02  0.20579518561E+03  0.41800000000E+01 0. -1.
         -5    1    3    3    0  502 -0.11115456530E+03 -0.68336205763E+02 -0.95234431148E+02  0.16159283302E+03  0.41800000000E+01 0. -1.
        -11    1    1    2    0    0  0.30103559586E+02  0.10317219452E+03 -0.22789666167E+02  0.10986398366E+03  0.00000000000E+00 0.  1.
         11    1    1    2    0    0  0.13904020854E+03  0.15119879857E+03 -0.13064244588E+03  0.24343521714E+03  0.00000000000E+00 0. -1.
</event>
<event>
 7    1  0.2873461E-009  0.1834856E+03  0.7561462E-02  0.1164472E+00
          2   -1    0    0  501    0  0.00000000000E+00  0.00000000000E+00  0.70244645286E+03  0.70244645286E+03  0.00000000000E+00 0.  1.
         -2   -1    0    0    0  501 -0.00000000000E+00 -0.00000000000E+00 -0.12596196442E+03  0.12596196442E+03  0.00000000000E+00 0. -1.
         25    2    1    2    0    0 -0.71429425119E+01 -0.16603772849E+03  0.60284996072E+03  0.63772646558E+03  0.12508965125E+03 0.  0.
          5    1    3    3  502    0 -0.34056969506E+02 -0.13247005284E+03  0.27632286830E+03  0.30835043703E+03  0.41800000000E+01 0. -1.
         -5    1    3    3    0  502  0.26914026995E+02 -0.33567675645E+02  0.32652709242E+03  0.32937602855E+03  0.41800000000E+01 0. -1.
        -11    1    1    2    0    0  0.46344806190E+02  0.82581973704E+02 -0.27014031942E+02  0.98475283007E+02  0.00000000000E+00 0. -1.
         11    1    1    2    0    0 -0.39201863678E+02  0.83455754784E+02  0.64855966221E+00  0.92206668696E+02  0.00000000000E+00 0.  1.
</event>
<event>
 7    1  0.2873461E-009  0.1076022E+03  0.7561462E-02  0.1265076E+00
          2   -1    0    0  501    0  0.00000000000E+00  0.00000000000E+00  0.94198577655E+02  0.94198577655E+02  0.00000000000E+00 0. -1.
         -2   -1    0    0    0  501 -0.00000000000E+00 -0.00000000000E+00 -0.15247404193E+03  0.15247404193E+03  0.00000000000E+00 0.  1.
         25    2    1    2    0    0 -0.38438220935E+02 -0.20546311203E+02 -0.54404313785E+02  0.14320338002E+03  0.12509089079E+03 0.  0.
          5    1    3    3  502    0 -0.25761132069E+02 -0.72483232667E+02 -0.20356137579E+02  0.79682492935E+02  0.41800000000E+01 0.  1.
         -5    1    3    3    0  502 -0.12677088867E+02  0.51936921464E+02 -0.34048176206E+02  0.63520887086E+02  0.41800000000E+01 0.  1.
        -11    1    1    2    0    0 -0.14724813759E+02  0.27233265643E+02 -0.30652968988E+02  0.43566907230E+02  0.00000000000E+00 0.  1.
         11    1    1    2    0    0  0.53163034694E+02 -0.66869544398E+01  0.26781818494E+02  0.59902332337E+02  0.00000000000E+00 0. -1.
</event>
<event>
 7    1  0.2873461E-009  0.1200173E+03  0.7561462E-02  0.1243069E+00
         -1   -1    0    0    0  501 -0.00000000000E+00  0.00000000000E+00  0.15803335272E+03  0.15803335272E+03  0.00000000000E+00 0.  1.
          1   -1    0    0  501    0  0.00000000000E+00 -0.00000000000E+00 -0.15934941491E+03  0.15934941491E+03  0.00000000000E+00 0. -1.
         25    2    1    2    0    0 -0.40665866425E+02 -0.78387947578E+02  0.75379435296E+02  0.17066882982E+03  0.12508959664E+03 0.  0.
          5    1    3    3  502    0 -0.78058532089E+02 -0.81656030795E+02  0.68802265564E+02  0.13233316268E+03  0.41800000000E+01 0. -1.
         -5    1    3    3    0  502  0.37392665664E+02  0.32680832166E+01  0.65771697322E+01  0.38335667139E+02  0.41800000000E+01 0. -1.
        -11    1    1    2    0    0  0.12590000389E+02  0.38054060186E+02 -0.87635965732E+02  0.96367432757E+02  0.00000000000E+00 0. -1.
         11    1    1    2    0    0  0.28075866036E+02  0.40333887392E+02  0.10940468246E+02  0.50346505055E+02  0.00000000000E+00 0.  1.
</event>
<event>
 7    1  0.2873461E-009  0.1350419E+03  0.7561462E-02  0.1220161E+00
         -1   -1    0    0    0  501 -0.00000000000E+00  0.00000000000E+00  0.48119795962E+02  0.48119795962E+02  0.00000000000E+00 0.  1.
          1   -1    0    0  501    0  0.00000000000E+00 -0.00000000000E+00 -0.46835272145E+03  0.46835272145E+03  0.00000000000E+00 0. -1.
         25    2    1    2    0    0 -0.86963539605E+02 -0.43749435007E+02 -0.27926729812E+03  0.32111366826E+03  0.12508834423E+03 0.  0.
          5    1    3    3  502    0 -0.10488170491E+03 -0.57707623458E+02 -0.27149773643E+03  0.29674708948E+03  0.41800000000E+01 0.  1.
         -5    1    3    3    0  502  0.17918165301E+02  0.13958188451E+02 -0.77695616903E+01  0.24366578780E+02  0.41800000000E+01 0.  1.
        -11    1    1    2    0    0  0.15595435599E+02  0.52995161091E+02 -0.29350749568E+02  0.62555345182E+02  0.00000000000E+00 0.  1.
         11    1    1    2    0    0  0.71368104006E+02 -0.92457260842E+01 -0.11161487780E+03  0.13280350397E+03  0.00000000000E+00 0. -1.
</event>
<event>
 7    1  0.2873461E-009  0.1064438E+03  0.7561462E-02  0.1267301E+00
         -1   -1    0    0    0  501 -0.00000000000E+00  0.00000000000E+00  0.40463458623E+02  0.40463458623E+02  0.00000000000E+00 0.  1.
          1   -1    0    0  501    0  0.00000000000E+00 -0.00000000000E+00 -0.41800381767E+03  0.41800381767E+03  0.00000000000E+00 0. -1.
         25    2    1    2    0    0  0.67663770733E+02  0.17541999161E+02 -0.23988901322E+03  0.27944059781E+03  0.12511675122E+03 0.  0.
          5    1    3    3  502    0  0.30124016892E+02  0.64446005961E+02 -0.18385301615E+03  0.19718049605E+03  0.41800000000E+01 0. -1.
         -5    1    3    3    0  502  0.37539753841E+02 -0.46904006800E+02 -0.56035997071E+02  0.82260101751E+02  0.41800000000E+01 0. -1.
        -11    1    1    2    0    0 -0.65967053156E+02 -0.22366715883E+01 -0.14691140321E+03  0.16105780079E+03  0.00000000000E+00 0. -1.
         11    1    1    2    0    0 -0.16967175771E+01 -0.15305327573E+02  0.92600573879E+01  0.17968877691E+02  0.00000000000E+00 0.  1.
</event>
<event>
 7    1  0.2873461E-009  0.1175364E+03  0.7561462E-02  0.1247217E+00
         -1   -1    0    0    0  501 -0.00000000000E+00  0.00000000000E+00  0.32993866861E+02  0.32993866861E+02  0.00000000000E+00 0.  1.
          1   -1    0    0  501    0  0.00000000000E+00 -0.00000000000E+00 -0.69823725592E+03  0.69823725592E+03  0.00000000000E+00 0. -1.
         25    2    1    2    0    0  0.64450895027E+02 -0.14531680640E+02 -0.55897365947E+03  0.57659689026E+03  0.12508930518E+03 0.  0.
          5    1    3    3  502    0  0.16393888315E+02  0.46740152998E+02 -0.35065533724E+03  0.35416103599E+03  0.41800000000E+01 0. -1.
         -5    1    3    3    0  502  0.48057006712E+02 -0.61271833638E+02 -0.20831832223E+03  0.22243585428E+03  0.41800000000E+01 0. -1.
        -11    1    1    2    0    0 -0.28676316866E+02 -0.35651765499E+02 -0.68424994252E+02  0.82312571157E+02  0.00000000000E+00 0. -1.
         11    1    1    2    0    0 -0.35774578162E+02  0.50183446139E+02 -0.37844735335E+02  0.72321661358E+02  0.00000000000E+00 0.  1.
</event>
<event>
 7    1  0.2873461E-009  0.8772047E+02  0.7561462E-02  0.1308468E+00
         -2   -1    0    0    0  501 -0.00000000000E+00  0.00000000000E+00  0.12497837829E+03  0.12497837829E+03  0.00000000000E+00 0.  1.
          2   -1    0    0  501    0  0.00000000000E+00 -0.00000000000E+00 -0.10301179366E+03  0.10301179366E+03  0.00000000000E+00 0. -1.
         25    2    1    2    0    0 -0.18942902778E+02 -0.33296740308E+02  0.18199521953E+02  0.13208502116E+03  0.12509086191E+03 0.  0.
          5    1    3    3  502    0  0.36132344099E+02 -0.16431177842E+02 -0.35358329582E+02  0.53321794477E+02  0.41800000000E+01 0.  1.
         -5    1    3    3    0  502 -0.55075246877E+02 -0.16865562466E+02  0.53557851535E+02  0.78763226679E+02  0.41800000000E+01 0.  1.
        -11    1    1    2    0    0  0.29834933632E+02 -0.11274740902E+02  0.29374344303E+02  0.43360064004E+02  0.00000000000E+00 0.  1.
         11    1    1    2    0    0 -0.10892030854E+02  0.44571481210E+02 -0.25607281624E+02  0.52545086788E+02  0.00000000000E+00 0. -1.
</event>
<event>
 7    1  0.2873461E-009  0.1311635E+03  0.7561462E-02  0.1225740E+00
         -1   -1    0    0    0  501 -0.00000000000E+00  0.00000000000E+00  0.82640159792E+02  0.82640159792E+02  0.00000000000E+00 0. -1.
          1   -1    0    0  501    0  0.00000000000E+00 -0.00000000000E+00 -0.29707427321E+03  0.29707427321E+03  0.00000000000E+00 0.  1.
         25    2    1    2    0    0 -0.10639925387E+02 -0.10117261390E+03 -0.17175592248E+03  0.23557790581E+03  0.12509095485E+03 0.  0.
          5    1    3    3  502    0 -0.57611541013E+02 -0.13574784882E+02 -0.45147187298E+02  0.74559408283E+02  0.41800000000E+01 0. -1.
         -5    1    3    3    0  502  0.46971615626E+02 -0.87597829018E+02 -0.12660873518E+03  0.16101849753E+03  0.41800000000E+01 0. -1.
        -11    1    1    2    0    0 -0.31740400232E+01  0.59872516443E+02 -0.70431811489E+02  0.92495582732E+02  0.00000000000E+00 0.  1.
         11    1    1    2    0    0  0.13813965410E+02  0.41300097458E+02  0.27753620551E+02  0.51640944454E+02  0.00000000000E+00 0. -1.
</event>
<event>
 7    1  0.2873461E-009  0.1895719E+03  0.7561462E-02  0.1158848E+00
         -2   -1    0    0    0  501 -0.00000000000E+00  0.00000000000E+00  0.66591176037E+02  0.66591176037E+02  0.00000000000E+00 0.  1.
          2   -1    0    0  501    0  0.00000000000E+00 -0.00000000000E+00 -0.55246456449E+03  0.55246456449E+03  0.00000000000E+00 0. -1.
         25    2    1    2    0    0 -0.12734251004E+03 -0.88301938344E+02 -0.21063674899E+03  0.28987588835E+03  0.12508734326E+03 0.  0.
          5    1    3    3  502    0  0.13674472651E+02 -0.50669230456E+02 -0.47103027367E+02  0.70643681278E+02  0.41800000000E+01 0.  1.
         -5    1    3    3    0  502 -0.14101698269E+03 -0.37632707887E+02 -0.16353372162E+03  0.21923220707E+03  0.41800000000E+01 0.  1.
        -11    1    1    2    0    0  0.33755029615E+02  0.79637690432E+02 -0.13688227421E+03  0.16192072367E+03  0.00000000000E+00 0.  1.
         11    1    1    2    0    0  0.93587480425E+02  0.86642479110E+01 -0.13835436526E+03  0.16725912851E+03  0.00000000000E+00 0. -1.
</event>
<event>
 7    1  0.2873461E-009  0.1178890E+03  0.7561462E-02  0.1246621E+00
         -1   -1    0    0    0  501 -0.00000000000E+00  0.00000000000E+00  0.34971773691E+03  0.34971773691E+03  0.00000000000E+00 0.  1.
          1   -1    0    0  501    0  0.00000000000E+00 -0.00000000000E+00 -0.60030479457E+02  0.60030479457E+02  0.00000000000E+00 0. -1.
         25    2    1    2    0    0  0.48581830358E+02 -0.91945406468E+02  0.16065838371E+03  0.22863186950E+03  0.12508902223E+03 0.  0.
          5    1    3    3  502    0  0.50985289397E+02 -0.63570572169E+02  0.17744882714E+03  0.19531071664E+03  0.41800000000E+01 0. -1.
         -5    1    3    3    0  502 -0.24034590389E+01 -0.28374834299E+02 -0.16790443436E+02  0.33321152856E+02  0.41800000000E+01 0. -1.
        -11    1    1    2    0    0  0.12775328549E+02  0.48662094342E+02  0.66595203024E+02  0.83463342320E+02  0.00000000000E+00 0.  1.
         11    1    1    2    0    0 -0.61357158906E+02  0.43283312126E+02  0.62433670717E+02  0.97653004546E+02  0.00000000000E+00 0. -1.
</event>
<event>
 7    1  0.3715562E-009  0.1251355E+03  0.7561462E-02  0.1234858E+00
          2   -1    0    0  501    0  0.00000000000E+00  0.00000000000E+00  0.79284807220E+03  0.79284807220E+03  0.00000000000E+00 0. -1.
         -2   -1    0    0    0  501 -0.00000000000E+00 -0.00000000000E+00 -0.25457669689E+02  0.25457669689E+02  0.00000000000E+00 0.  1.
         25    2    1    2    0    0 -0.65568780528E+02 -0.61758770441E+02  0.37561401499E+03  0.40601404268E+03  0.12509238144E+03 0.  0.
          5    1    3    3  502    0  0.23472005602E+01  0.17420996899E+02  0.21074003315E+01  0.18191042289E+02  0.41800000000E+01 0.  1.
         -5    1    3    3    0  502 -0.67915981088E+02 -0.79179767340E+02  0.37350661465E+03  0.38782300039E+03  0.41800000000E+01 0.  1.
        -11    1    1    2    0    0 -0.47973631383E+01  0.57078981494E+02  0.19613764251E+03  0.20433061354E+03  0.00000000000E+00 0.  1.
         11    1    1    2    0    0  0.70366143666E+02  0.46797889469E+01  0.19563874502E+03  0.20796108567E+03  0.00000000000E+00 0. -1.
</event>
<event>
 7    1  0.2883681E-009  0.1440248E+03  0.7561462E-02  0.1208014E+00
         -3   -1    0    0    0  501 -0.00000000000E+00  0.00000000000E+00  0.32654380239E+02  0.32654380239E+02  0.00000000000E+00 0.  1.
          3   -1    0    0  501    0  0.00000000000E+00 -0.00000000000E+00 -0.66959521427E+03  0.66959521427E+03  0.00000000000E+00 0. -1.
         25    2    1    2    0    0 -0.71539066081E+02  0.64422624666E+02 -0.40477286936E+03  0.43446334334E+03  0.12509679609E+03 0.  0.
          5    1    3    3  502    0 -0.86273761718E+01  0.87515834229E+02 -0.26813024267E+03  0.28221401860E+03  0.41800000000E+01 0.  1.
         -5    1    3    3    0  502 -0.62911689909E+02 -0.23093209564E+02 -0.13664262668E+03  0.15224932473E+03  0.41800000000E+01 0.  1.
        -11    1    1    2    0    0  0.76282602796E+02 -0.85161397849E+01 -0.12163893726E+03  0.14383181562E+03  0.00000000000E+00 0.  1.
         11    1    1    2    0    0 -0.47435367148E+01 -0.55906484881E+02 -0.11052902741E+03  0.12395443555E+03  0.00000000000E+00 0. -1.
</event>
<event>
 7    1  0.2873461E-009  0.1373014E+03  0.7561462E-02  0.1217007E+00
         -1   -1    0    0    0  501 -0.00000000000E+00  0.00000000000E+00  0.14406914079E+03  0.14406914079E+03  0.00000000000E+00 0.  1.
          1   -1    0    0  501    0  0.00000000000E+00 -0.00000000000E+00 -0.18932030902E+03  0.18932030902E+03  0.00000000000E+00 0. -1.
         25    2    1    2    0    0  0.97200262668E+02  0.52299135938E+02  0.33110739318E+02  0.17007236759E+03  0.12508076782E+03 0.  0.
          5    1    3    3  502    0  0.47979387001E+02 -0.15336194882E+02  0.63335815953E+02  0.81031589105E+02  0.41800000000E+01 0. -1.
         -5    1    3    3    0  502  0.49220875668E+02  0.67635330819E+02 -0.30225076635E+02  0.89040778490E+02  0.41800000000E+01 0. -1.
        -11    1    1    2    0    0  0.11154423040E+02 -0.26744887880E+02 -0.35643997796E+01  0.29196149179E+02  0.00000000000E+00 0.  1.
         11    1    1    2    0    0 -0.10835468571E+03 -0.25554248058E+02 -0.74797507766E+02  0.13412093303E+03  0.00000000000E+00 0. -1.
</event>
<event>
 7    1  0.2873461E-009  0.1585174E+03  0.7561462E-02  0.1190381E+00
          1   -1    0    0  501    0  0.00000000000E+00  0.00000000000E+00  0.12704455182E+03  0.12704455182E+03  0.00000000000E+00 0. -1.
         -1   -1    0    0    0  501 -0.00000000000E+00 -0.00000000000E+00 -0.27521861468E+03  0.27521861468E+03  0.00000000000E+00 0.  1.
         25    2    1    2    0    0 -0.13044013624E+02  0.13998308494E+03 -0.13890095687E+03  0.23389619969E+03  0.12509414874E+03 0.  0.
          5    1    3    3  502    0  0.64536854369E+01 -0.15052006448E+02 -0.52799689260E+02  0.55439088555E+02  0.41800000000E+01 0.  1.
         -5    1    3    3    0  502 -0.19497699061E+02  0.15503509139E+03 -0.86101267608E+02  0.17845711114E+03  0.41800000000E+01 0.  1.
        -11    1    1    2    0    0  0.22950045447E+02 -0.91361357341E+02 -0.47717448860E+02  0.10559619845E+03  0.00000000000E+00 0.  1.
         11    1    1    2    0    0 -0.99060318226E+01 -0.48621727603E+02  0.38444342872E+02  0.62770768360E+02  0.00000000000E+00 0. -1.
</event>
<event>
 7    1  0.2873461E-009  0.9621859E+02  0.7561462E-02  0.1288455E+00
          2   -1    0    0  501    0  0.00000000000E+00  0.00000000000E+00  0.25882454772E+03  0.25882454772E+03  0.00000000000E+00 0. -1.
         -2   -1    0    0    0  501 -0.00000000000E+00 -0.00000000000E+00 -0.57095258341E+02  0.57095258341E+02  0.00000000000E+00 0.  1.
         25    2    1    2    0    0 -0.41577723437E+02 -0.25968002413E+02  0.14490532238E+03  0.19760721292E+03  0.12509202177E+03 0.  0.
          5    1    3    3  502    0 -0.73861640892E+02  0.93005667986E+01  0.45836201198E+02  0.87524123979E+02  0.41800000000E+01 0.  1.
         -5    1    3    3    0  502  0.32283917455E+02 -0.35268569212E+02  0.99069121178E+02  0.11008308894E+03  0.41800000000E+01 0.  1.
        -11    1    1    2    0    0  0.21473591337E+02 -0.13655182317E+02 -0.18083846684E+02  0.31218658522E+02  0.00000000000E+00 0.  1.
         11    1    1    2    0    0  0.20104132100E+02  0.39623184730E+02  0.74907813691E+02  0.87093934620E+02  0.00000000000E+00 0. -1.
</event>
<event>
 7    1  0.2873461E-009  0.2437447E+03  0.7561462E-02  0.1117323E+00
          2   -1    0    0  501    0  0.00000000000E+00  0.00000000000E+00  0.56327491475E+03  0.56327491475E+03  0.00000000000E+00 0.  1.
         -2   -1    0    0    0  501 -0.00000000000E+00 -0.00000000000E+00 -0.25585221345E+03  0.25585221345E+03  0.00000000000E+00 0. -1.
         25    2    1    2    0    0 -0.16516438015E+03  0.16043846432E+03  0.45872338360E+03  0.52829555936E+03  0.12509709057E+03 0.  0.
          5    1    3    3  502    0 -0.41733676177E+02  0.10593949057E+03  0.12960295834E+03  0.17256672507E+03  0.41800000000E+01 0.  1.
         -5    1    3    3    0  502 -0.12343070397E+03  0.54498973756E+02  0.32912042526E+03  0.35572883429E+03  0.41800000000E+01 0.  1.
        -11    1    1    2    0    0  0.71796631317E+02 -0.11287199529E+03 -0.12433646726E+03  0.18263187202E+03  0.00000000000E+00 0. -1.
         11    1    1    2    0    0  0.93367748831E+02 -0.47566469035E+02 -0.26964215052E+02  0.10819969682E+03  0.00000000000E+00 0.  1.
</event>
<event>
 7    1  0.2873461E-009  0.1493859E+03  0.7561462E-02  0.1201230E+00
          2   -1    0    0  501    0  0.00000000000E+00  0.00000000000E+00  0.26747793139E+03  0.26747793139E+03  0.00000000000E+00 0. -1.
         -2   -1    0    0    0  501 -0.00000000000E+00 -0.00000000000E+00 -0.11244804405E+03  0.11244804405E+03  0.00000000000E+00 0.  1.
         25    2    1    2    0    0 -0.55837926125E+02  0.11131566436E+03  0.13001184441E+03  0.21922583085E+03  0.12509130304E+03 0.  0.
          5    1    3    3  502    0 -0.81044392217E+02  0.64220229034E+02  0.33389163723E+02  0.10874162028E+03  0.41800000000E+01 0. -1.
         -5    1    3    3    0  502  0.25206466092E+02  0.47095435327E+02  0.96622680687E+02  0.11048421057E+03  0.41800000000E+01 0. -1.
        -11    1    1    2    0    0  0.47613132160E+02 -0.12038566814E+03  0.45175857655E+02  0.13711519814E+03  0.00000000000E+00 0. -1.
         11    1    1    2    0    0  0.82247939653E+01  0.90700037788E+01 -0.20157814727E+02  0.23584946447E+02  0.00000000000E+00 0.  1.
</event>
<event>
 7    1  0.2873461E-009  0.8619395E+02  0.7561462E-02  0.1312339E+00
          2   -1    0    0  501    0  0.00000000000E+00  0.00000000000E+00  0.38495104520E+03  0.38495104520E+03  0.00000000000E+00 0. -1.
         -2   -1    0    0    0  501 -0.00000000000E+00 -0.00000000000E+00 -0.37167721151E+02  0.37167721151E+02  0.00000000000E+00 0.  1.
         25    2    1    2    0    0  0.36142309461E+02  0.35764654931E+02  0.16362522495E+03  0.21215677164E+03  0.12510757147E+03 0.  0.
          5    1    3    3  502    0  0.29593386640E+02  0.67400479076E+02  0.39129481802E+02  0.83469646331E+02  0.41800000000E+01 0.  1.
         -5    1    3    3    0  502  0.65489228207E+01 -0.31635824145E+02  0.12449574315E+03  0.12868712531E+03  0.41800000000E+01 0.  1.
        -11    1    1    2    0    0 -0.65748046035E+01 -0.35917657771E+02  0.17122726379E+02  0.40329814703E+02  0.00000000000E+00 0.  1.
         11    1    1    2    0    0 -0.29567504857E+02  0.15300283978E+00  0.16703537272E+03  0.16963218001E+03  0.00000000000E+00 0. -1.
</event>
<event>
 7    1  0.2873461E-009  0.1324983E+03  0.7561462E-02  0.1223795E+00
          1   -1    0    0  501    0  0.00000000000E+00  0.00000000000E+00  0.56398757224E+03  0.56398757224E+03  0.00000000000E+00 0. -1.
         -1   -1    0    0    0  501 -0.00000000000E+00 -0.00000000000E+00 -0.38432373052E+02  0.38432373052E+02  0.00000000000E+00 0.  1.
         25    2    1    2    0    0 -0.70346074985E+02 -0.47024915882E+02  0.17885867269E+03  0.23408525713E+03  0.12508225226E+03 0.  0.
          5    1    3    3  502    0 -0.40264317408E+02  0.38423898436E+02  0.41753780428E+02  0.69702667147E+02  0.41800000000E+01 0.  1.
         -5    1    3    3    0  502 -0.30081757578E+02 -0.85448814318E+02  0.13710489226E+03  0.16438258998E+03  0.41800000000E+01 0.  1.
        -11    1    1    2    0    0  0.37490650913E+02 -0.20987516607E+02  0.18415048092E+03  0.18909633625E+03  0.00000000000E+00 0. -1.
         11    1    1    2    0    0  0.32855424072E+02  0.68012432489E+02  0.16254604558E+03  0.17923835192E+03  0.00000000000E+00 0.  1.
</event>
<event>
 7    1  0.2873461E-009  0.1206399E+03  0.7561462E-02  0.1242045E+00
          2   -1    0    0  501    0  0.00000000000E+00  0.00000000000E+00  0.63739163468E+03  0.63739163468E+03  0.00000000000E+00 0.  1.
         -2   -1    0    0    0  501 -0.00000000000E+00 -0.00000000000E+00 -0.54045453250E+02  0.54045453250E+02  0.00000000000E+00 0. -1.
         25    2    1    2    0    0 -0.45296761606E+02  0.34195604636E+02  0.49221760538E+02  0.14591660031E+03  0.12509091313E+03 0.  0.
          5    1    3    3  502    0  0.34868325150E+02  0.39576039815E+02  0.36941487056E+02  0.64530681789E+02  0.41800000000E+01 0.  1.
         -5    1    3    3    0  502 -0.80165086757E+02 -0.53804351786E+01  0.12280273482E+02  0.81385918525E+02  0.41800000000E+01 0.  1.
        -11    1    1    2    0    0  0.26057453492E+02  0.30676794712E+02  0.14172281018E+03  0.14732756545E+03  0.00000000000E+00 0. -1.
         11    1    1    2    0    0  0.19239308115E+02 -0.64872399349E+02  0.39240161071E+03  0.39819292217E+03  0.00000000000E+00 0.  1.
</event>
<event>
 7    1  0.2873461E-009  0.9181145E+02  0.7561462E-02  0.1298523E+00
         -2   -1    0    0    0  501 -0.00000000000E+00  0.00000000000E+00  0.44706843409E+02  0.44706843409E+02  0.00000000000E+00 0. -1.
          2   -1    0    0  501    0  0.00000000000E+00 -0.00000000000E+00 -0.35555925002E+03  0.35555925002E+03  0.00000000000E+00 0.  1.
         25    2    1    2    0    0  0.27742188647E+02 -0.53285752514E+02 -0.20413792663E+03  0.24683742152E+03  0.12508964435E+03 0.  0.
          5    1    3    3  502    0  0.54072727685E+02 -0.55785612278E+01 -0.25805815616E+02  0.60319091043E+02  0.41800000000E+01 0. -1.
         -5    1    3    3    0  502 -0.26330539038E+02 -0.47707191286E+02 -0.17833211101E+03  0.18651833048E+03  0.41800000000E+01 0. -1.
        -11    1    1    2    0    0  0.63663672043E+01  0.35342420806E+02 -0.10905677447E+03  0.11481723476E+03  0.00000000000E+00 0.  1.
         11    1    1    2    0    0 -0.34108555851E+02  0.17943331708E+02  0.23422944903E+01  0.38611437146E+02  0.00000000000E+00 0. -1.
</event>
<event>
 7    1  0.2873461E-009  0.1426749E+03  0.7561462E-02  0.1209774E+00
         -2   -1    0    0    0  501 -0.00000000000E+00  0.00000000000E+00  0.19038386159E+03  0.19038386159E+03  0.00000000000E+00 0.  1.
          2   -1    0    0  501    0  0.00000000000E+00 -0.00000000000E+00 -0.17189179825E+03  0.17189179825E+03  0.00000000000E+00 0. -1.
         25    2    1    2    0    0 -0.89043176539E+02  0.73598395483E+02  0.97030749157E+02  0.19597861914E+03  0.12508893545E+03 0.  0.
          5    1    3    3  502    0 -0.10559481878E+03  0.87644163868E+02  0.10461385482E+03  0.17260734699E+03  0.41800000000E+01 0.  1.
         -5    1    3    3    0  502  0.16551642240E+02 -0.14045768385E+02 -0.75831056649E+01  0.23371272150E+02  0.41800000000E+01 0.  1.
        -11    1    1    2    0    0  0.18744254167E+02 -0.47325614677E+02 -0.75665734923E+02  0.91194102388E+02  0.00000000000E+00 0. -1.
         11    1    1    2    0    0  0.70298922371E+02 -0.26272780806E+02 -0.28729508940E+01  0.75102938323E+02  0.00000000000E+00 0.  1.
</event>
<event>
 6    1  0.2873461E-009  0.1409204E+03  0.7561462E-02  0.1212096E+00
         -1   -1    0    0    0  501 -0.00000000000E+00  0.00000000000E+00  0.97814445998E+02  0.97814445998E+02  0.00000000000E+00 0.  1.
          1   -1    0    0  501    0  0.00000000000E+00 -0.00000000000E+00 -0.24776380004E+03  0.24776380004E+03  0.00000000000E+00 0. -1.
          5    1    1    2  502    0  0.19124458135E+02  0.44961904839E+02 -0.24205981246E+02  0.54687473098E+02  0.41800000000E+01 0.  1.
         -5    1    1    2    0  502  0.86687737657E+02 -0.80815804383E+02 -0.59303649233E+02  0.13259092469E+03  0.41800000000E+01 0.  1.
        -11    1    1    2    0    0 -0.35609374618E+02  0.24187298744E+02 -0.75147271241E+02  0.86603495057E+02  0.00000000000E+00 0. -1.
         11    1    1    2    0    0 -0.70202821173E+02  0.11666600800E+02  0.87075476758E+01  0.71696353195E+02  0.00000000000E+00 0.  1.
</event>
<event>
 7    1  0.2873461E-009  0.1707471E+03  0.7561462E-02  0.1177071E+00
          2   -1    0    0  501    0  0.00000000000E+00  0.00000000000E+00  0.13747627138E+03  0.13747627138E+03  0.00000000000E+00 0. -1.
         -2   -1    0    0    0  501 -0.00000000000E+00 -0.00000000000E+00 -0.35245009777E+03  0.35245009777E+03  0.00000000000E+00 0.  1.
         25    2    1    2    0    0 -0.10989560623E+03  0.99862136862E+02  0.21216642648E+02  0.19531514928E+03  0.12509344893E+03 0.  0.
          5    1    3    3  502    0 -0.12268490410E+03  0.10816657951E+03 -0.61290908607E+01  0.16372731224E+03  0.41800000000E+01 0. -1.
         -5    1    3    3    0  502  0.12789297875E+02 -0.83044426490E+01  0.27345733509E+02  0.31587837042E+02  0.41800000000E+01 0. -1.
        -11    1    1    2    0    0  0.31133920835E+02  0.43567262167E+01 -0.92698111740E+01  0.32775470844E+02  0.00000000000E+00 0. -1.
         11    1    1    2    0    0  0.78761685393E+02 -0.10421886308E+03 -0.22692065786E+03  0.26183574903E+03  0.00000000000E+00 0.  1.
</event>
<event>
 7    1  0.2873461E-009  0.1437446E+03  0.7561462E-02  0.1208377E+00
         -2   -1    0    0    0  501 -0.00000000000E+00  0.00000000000E+00  0.28413573549E+02  0.28413573549E+02  0.00000000000E+00 0.  1.
          2   -1    0    0  501    0  0.00000000000E+00 -0.00000000000E+00 -0.96703421769E+03  0.96703421769E+03  0.00000000000E+00 0. -1.
         25    2    1    2    0    0  0.97116877022E+02  0.80501221925E+02 -0.43332493852E+03  0.46832703342E+03  0.12509026085E+03 0.  0.
          5    1    3    3  502    0  0.51340481878E+02  0.76165419468E+02 -0.40236393098E+03  0.41273626150E+03  0.41800000000E+01 0.  1.
         -5    1    3    3    0  502  0.45776395144E+02  0.43358024571E+01 -0.30961007540E+02  0.55590771925E+02  0.41800000000E+01 0.  1.
        -11    1    1    2    0    0 -0.11034885850E+03 -0.79686138407E+02 -0.44340799611E+03  0.46382906576E+03  0.00000000000E+00 0. -1.
         11    1    1    2    0    0  0.13231981482E+02 -0.81508351731E+00 -0.61887709505E+02  0.63291692053E+02  0.00000000000E+00 0.  1.
</event>
<event>
 7    1  0.2873461E-009  0.1492137E+03  0.7561462E-02  0.1201442E+00
         -1   -1    0    0    0  501 -0.00000000000E+00  0.00000000000E+00  0.28869394911E+02  0.28869394911E+02  0.00000000000E+00 0.  1.
          1   -1    0    0  501    0  0.00000000000E+00 -0.00000000000E+00 -0.93919683505E+03  0.93919683505E+03  0.00000000000E+00 0. -1.
         25    2    1    2    0    0 -0.24664896658E+02  0.10878005500E+03 -0.63964323397E+03  0.66123504316E+03  0.12508740162E+03 0.  0.
          5    1    3    3  502    0  0.25106109784E+02 -0.14999636169E+02 -0.18709564757E+03  0.18941372593E+03  0.41800000000E+01 0.  1.
         -5    1    3    3    0  502 -0.49771006442E+02  0.12377969117E+03 -0.45254758640E+03  0.47182131723E+03  0.41800000000E+01 0.  1.
        -11    1    1    2    0    0  0.28007308799E+02 -0.12024607233E+03 -0.26727048002E+03  0.29440964106E+03  0.00000000000E+00 0. -1.
         11    1    1    2    0    0 -0.33424121415E+01  0.11466017335E+02 -0.34137261464E+01  0.12421545743E+02  0.00000000000E+00 0.  1.
</event>
<event>
 7    1  0.2873461E-009  0.1143300E+03  0.7561462E-02  0.1252755E+00
         -1   -1    0    0    0  501 -0.00000000000E+00  0.00000000000E+00  0.63570271771E+02  0.63570271771E+02  0.00000000000E+00 0.  1.
          1   -1    0    0  501    0  0.00000000000E+00 -0.00000000000E+00 -0.36456626093E+03  0.36456626093E+03  0.00000000000E+00 0. -1.
         25    2    1    2    0    0  0.77103136925E+02 -0.39146525044E+02 -0.24941004838E+03  0.29211213640E+03  0.12508710507E+03 0.  0.
          5    1    3    3  502    0 -0.15601593798E+02 -0.23607873854E+02 -0.15924610013E+03  0.16179472873E+03  0.41800000000E+01 0. -1.
         -5    1    3    3    0  502  0.92704730724E+02 -0.15538651190E+02 -0.90163948251E+02  0.13031740768E+03  0.41800000000E+01 0. -1.
        -11    1    1    2    0    0 -0.33295011347E+02  0.50703266150E+02 -0.64868682413E+02  0.88810612749E+02  0.00000000000E+00 0. -1.
         11    1    1    2    0    0 -0.43808125578E+02 -0.11556741106E+02  0.13282741635E+02  0.47213783549E+02  0.00000000000E+00 0.  1.
</event>
<event>
 7    1  0.4776001E-009  0.1713350E+03  0.7561462E-02  0.1176463E+00
         -1   -1    0    0    0  501 -0.00000000000E+00  0.00000000000E+00  0.35617610886E+02  0.35617610886E+02  0.00000000000E+00 0.  1.
          1   -1    0    0  501    0  0.00000000000E+00 -0.00000000000E+00 -0.86911603540E+03  0.86911603540E+03  0.00000000000E+00 0. -1.
         25    2    1    2    0    0  0.35143746577E+02 -0.13299915912E+03 -0.41749316864E+03  0.45702393097E+03  0.12508584401E+03 0.  0.
          5    1    3    3  502    0  0.59406671365E+02 -0.15472107063E+02 -0.19103565853E+03  0.20070035857E+03  0.41800000000E+01 0.  1.
         -5    1    3    3    0  502 -0.24262924789E+02 -0.11752705206E+03 -0.22645751011E+03  0.25632357240E+03  0.41800000000E+01 0.  1.
        -11    1    1    2    0    0  0.24552055783E+02  0.70412467836E+02 -0.14216669395E+03  0.16053687408E+03  0.00000000000E+00 0.  1.
         11    1    1    2    0    0 -0.59695802360E+02  0.62586691289E+02 -0.27383856193E+03  0.28717284124E+03  0.00000000000E+00 0. -1.
</event>
<event>
 7    1  0.2873461E-009  0.1070946E+03  0.7561462E-02  0.1266047E+00
         -2   -1    0    0    0  501 -0.00000000000E+00  0.00000000000E+00  0.94867943451E+02  0.94867943451E+02  0.00000000000E+00 0.  1.
          2   -1    0    0  501    0  0.00000000000E+00 -0.00000000000E+00 -0.14067608757E+03  0.14067608757E+03  0.00000000000E+00 0. -1.
         25    2    1    2    0    0  0.28565312327E+01 -0.25139444888E+02 -0.54438059238E+02  0.13874888959E+03  0.12509036977E+03 0.  0.
          5    1    3    3  502    0 -0.51615628991E+02  0.12313153185E+02 -0.34384795578E+00  0.53229479885E+02  0.41800000000E+01 0. -1.
         -5    1    3    3    0  502  0.54472160223E+02 -0.37452598072E+02 -0.54094211283E+02  0.85519409704E+02  0.41800000000E+01 0. -1.
        -11    1    1    2    0    0 -0.38172540183E+02  0.40991450382E+02  0.13941696477E+02  0.57721856598E+02  0.00000000000E+00 0.  1.
         11    1    1    2    0    0  0.35316008950E+02 -0.15852005494E+02 -0.53117813547E+01  0.39073284831E+02  0.00000000000E+00 0. -1.
</event>
<event>
 7    1  0.2873461E-009  0.1212054E+03  0.7561462E-02  0.1241122E+00
         -3   -1    0    0    0  501 -0.00000000000E+00  0.00000000000E+00  0.18276531079E+03  0.18276531079E+03  0.00000000000E+00 0.  1.
          3   -1    0    0  501    0  0.00000000000E+00 -0.00000000000E+00 -0.89779046047E+02  0.89779046047E+02  0.00000000000E+00 0. -1.
         25    2    1    2    0    0 -0.61057154629E+02 -0.17703882290E+02  0.25571671398E+02  0.14262824895E+03  0.12508998138E+03 0.  0.
          5    1    3    3  502    0  0.18825118716E+02 -0.49518692141E+02  0.18430964677E+02  0.56246411663E+02  0.41800000000E+01 0. -1.
         -5    1    3    3    0  502 -0.79882273346E+02  0.31814809851E+02  0.71407067209E+01  0.86381837288E+02  0.41800000000E+01 0. -1.
        -11    1    1    2    0    0  0.18734385431E+02 -0.32504614650E+02  0.25322947991E+01  0.37602389392E+02  0.00000000000E+00 0. -1.
         11    1    1    2    0    0  0.42322769198E+02  0.50208496940E+02  0.64882298547E+02  0.92313718495E+02  0.00000000000E+00 0.  1.
</event>
<event>
 7    1  0.2873461E-009  0.1175277E+03  0.7561462E-02  0.1247232E+00
          2   -1    0    0  501    0  0.00000000000E+00  0.00000000000E+00  0.80105873523E+03  0.80105873523E+03  0.00000000000E+00 0. -1.
         -2   -1    0    0    0  501 -0.00000000000E+00 -0.00000000000E+00 -0.26622053056E+02  0.26622053056E+02  0.00000000000E+00 0.  1.
         25    2    1    2    0    0  0.35489924825E+02  0.26789887809E+02  0.66331400269E+03  0.67646885327E+03  0.12508960957E+03 0.  0.
          5    1    3    3  502    0  0.77630185515E+02  0.41039346068E+02  0.42344560777E+03  0.43247465679E+03  0.41800000000E+01 0.  1.
         -5    1    3    3    0  502 -0.42140260689E+02 -0.14249458259E+02  0.23986839492E+03  0.24399419647E+03  0.41800000000E+01 0.  1.
        -11    1    1    2    0    0 -0.52588651608E+02 -0.50714611472E+02  0.81996133355E+02  0.10982214704E+03  0.00000000000E+00 0.  1.
         11    1    1    2    0    0  0.17098726782E+02  0.23924723663E+02  0.29126546134E+02  0.41389787987E+02  0.00000000000E+00 0. -1.
</event>
<event>
 7    1  0.2873461E-009  0.1004888E+03  0.7561462E-02  0.1279271E+00
          1   -1    0    0  501    0  0.00000000000E+00  0.00000000000E+00  0.25029777949E+03  0.25029777949E+03  0.00000000000E+00 0. -1.
         -1   -1    0    0    0  501 -0.00000000000E+00 -0.00000000000E+00 -0.55821013927E+02  0.55821013927E+02  0.00000000000E+00 0.  1.
         25    2    1    2    0    0 -0.48531670533E+02 -0.24506348627E+01  0.96863566997E+02  0.16550401525E+03  0.12509076623E+03 0.  0.
          5    1    3    3  502    0  0.11879949293E+02  0.43615336700E+02  0.41787254548E+01  0.45589087916E+02  0.41800000000E+01 0.  1.
         -5    1    3    3    0  502 -0.60411619825E+02 -0.46065971562E+02  0.92684841542E+02  0.11991492733E+03  0.41800000000E+01 0.  1.
        -11    1    1    2    0    0  0.58162815896E+01 -0.26994174763E+02 -0.26332674583E+01  0.27738938339E+02  0.00000000000E+00 0.  1.
         11    1    1    2    0    0  0.42715388943E+02  0.29444809625E+02  0.10024646603E+03  0.11287583983E+03  0.00000000000E+00 0. -1.
</event>
<event>
 7    1  0.2873461E-009  0.9180092E+02  0.7561462E-02  0.1298548E+00
         -1   -1    0    0    0  501 -0.00000000000E+00  0.00000000000E+00  0.12499134079E+03  0.12499134079E+03  0.00000000000E+00 0.  1.
          1   -1    0    0  501    0  0.00000000000E+00 -0.00000000000E+00 -0.13836836467E+03  0.13836836467E+03  0.00000000000E+00 0. -1.
         25    2    1    2    0    0  0.57985899029E+02  0.28823203701E+02 -0.44448262750E+02  0.14770229874E+03  0.12508868628E+03 0.  0.
          5    1    3    3  502    0  0.30783648274E+02 -0.15668949783E+02  0.37069669245E+02  0.50840749073E+02  0.41800000000E+01 0.  1.
         -5    1    3    3    0  502  0.27202250755E+02  0.44492153485E+02 -0.81517931995E+02  0.96861549670E+02  0.41800000000E+01 0.  1.
        -11    1    1    2    0    0 -0.48622390642E+02 -0.52183277756E+02  0.47417061585E+02  0.85648170316E+02  0.00000000000E+00 0.  1.
         11    1    1    2    0    0 -0.93635083865E+01  0.23360074054E+02 -0.16345822720E+02  0.30009236404E+02  0.00000000000E+00 0. -1.
</event>
<event>
 7    1  0.2873461E-009  0.7321589E+02  0.7561462E-02  0.1349487E+00
         -2   -1    0    0    0  501 -0.00000000000E+00  0.00000000000E+00  0.23016919578E+02  0.23016919578E+02  0.00000000000E+00 0.  1.
          2   -1    0    0  501    0  0.00000000000E+00 -0.00000000000E+00 -0.72382255867E+03  0.72382255867E+03  0.00000000000E+00 0. -1.
         25    2    1    2    0    0  0.17544269589E+02 -0.28769376107E+02 -0.56420460565E+03  0.57888710132E+03  0.12509180887E+03 0.  0.
          5    1    3    3  502    0  0.70510369117E+01  0.78698474061E+01 -0.52099779670E+03  0.52112170189E+03  0.41800000000E+01 0.  1.
         -5    1    3    3    0  502  0.10493232677E+02 -0.36639223513E+02 -0.43206808954E+02  0.57765399433E+02  0.41800000000E+01 0.  1.
        -11    1    1    2    0    0 -0.12569343396E+02 -0.32712878134E+02 -0.38414543393E+02  0.51998057015E+02  0.00000000000E+00 0.  1.
         11    1    1    2    0    0 -0.49749261932E+01  0.61482254241E+02 -0.98186490044E+02  0.11595431990E+03  0.00000000000E+00 0. -1.
</event>
<event>
 7    1  0.2873461E-009  0.1375843E+03  0.7561462E-02  0.1216617E+00
         -1   -1    0    0    0  501 -0.00000000000E+00  0.00000000000E+00  0.38032634498E+03  0.38032634498E+03  0.00000000000E+00 0.  1.
          1   -1    0    0  501    0  0.00000000000E+00 -0.00000000000E+00 -0.69709725017E+02  0.69709725017E+02  0.00000000000E+00 0. -1.
         25    2    1    2    0    0 -0.11931512418E+02 -0.92936611483E+02  0.27400881335E+03  0.31545822680E+03  0.12511390138E+03 0.  0.
          5    1    3    3  502    0  0.56560802864E+02 -0.41779783212E+02  0.11439205004E+03  0.13434168459E+03  0.41800000000E+01 0. -1.
         -5    1    3    3    0  502 -0.68492315282E+02 -0.51156828272E+02  0.15961676331E+03  0.18111654221E+03  0.41800000000E+01 0. -1.
        -11    1    1    2    0    0  0.42972863630E+02  0.60823288386E+02 -0.34920981902E+01  0.74554236422E+02  0.00000000000E+00 0. -1.
         11    1    1    2    0    0 -0.31041351212E+02  0.32113323097E+02  0.40099904800E+02  0.60023606776E+02  0.00000000000E+00 0.  1.
</event>
<event>
 7    1  0.2873461E-009  0.2037769E+03  0.7561462E-02  0.1146591E+00
          2   -1    0    0  501    0  0.00000000000E+00  0.00000000000E+00  0.44371597873E+03  0.44371597873E+03  0.00000000000E+00 0. -1.
         -2   -1    0    0    0  501 -0.00000000000E+00 -0.00000000000E+00 -0.10064534227E+03  0.10064534227E+03  0.00000000000E+00 0.  1.
         25    2    1    2    0    0  0.18004305129E+03 -0.36030917020E+01  0.15623421370E+03  0.26923109168E+03  0.12509104128E+03 0.  0.
          5    1    3    3  502    0  0.17415716213E+03 -0.31479347637E+02  0.93499291218E+02  0.20020303771E+03  0.41800000000E+01 0. -1.
         -5    1    3    3    0  502  0.58858891596E+01  0.27876255935E+02  0.62734922478E+02  0.69028053967E+02  0.41800000000E+01 0. -1.
        -11    1    1    2    0    0 -0.14366662611E+03  0.41157305515E+02  0.13251580657E+03  0.19973598135E+03  0.00000000000E+00 0. -1.
         11    1    1    2    0    0 -0.36376425181E+02 -0.37554213813E+02  0.54320616190E+02  0.75394247972E+02  0.00000000000E+00 0.  1.
</event>
<event>
 7    1  0.2873461E-009  0.1232001E+03  0.7561462E-02  0.1237909E+00
          2   -1    0    0  501    0  0.00000000000E+00  0.00000000000E+00  0.16437084803E+03  0.16437084803E+03  0.00000000000E+00 0.  1.
         -2   -1    0    0    0  501 -0.00000000000E+00 -0.00000000000E+00 -0.12009674157E+03  0.12009674157E+03  0.00000000000E+00 0. -1.
         25    2    1    2    0    0 -0.87120262995E+02 -0.19229590945E+02  0.15540472514E+02  0.15443274589E+03  0.12509296274E+03 0.  0.
          5    1    3    3  502    0 -0.44989930878E+02  0.50958829714E+02  0.23577045312E+02  0.72071115379E+02  0.41800000000E+01 0.  1.
         -5    1    3    3    0  502 -0.42130332117E+02 -0.70188420659E+02 -0.80365727985E+01  0.82361630516E+02  0.41800000000E+01 0.  1.
        -11    1    1    2    0    0  0.33345066902E+02  0.25786534728E+02  0.55432861574E+02  0.69639363884E+02  0.00000000000E+00 0.  1.
         11    1    1    2    0    0  0.53775196094E+02 -0.65569437830E+01 -0.26699227623E+02  0.60395479817E+02  0.00000000000E+00 0. -1.
</event>
<event>
 7    1  0.2873461E-009  0.2026381E+03  0.7561462E-02  0.1147532E+00
          2   -1    0    0  501    0  0.00000000000E+00  0.00000000000E+00  0.18829973130E+03  0.18829973130E+03  0.00000000000E+00 0. -1.
         -2   -1    0    0    0  501 -0.00000000000E+00 -0.00000000000E+00 -0.24369082567E+03  0.24369082567E+03  0.00000000000E+00 0.  1.
         25    2    1    2    0    0  0.14254469076E+02  0.17769370064E+03  0.17908033953E+02  0.21851064157E+03  0.12509181293E+03 0.  0.
          5    1    3    3  502    0  0.80812475594E+01 -0.13706137966E+02 -0.17171199779E+02  0.23779976491E+02  0.41800000000E+01 0. -1.
         -5    1    3    3    0  502  0.61732215166E+01  0.19139983860E+03  0.35079233732E+02  0.19473066507E+03  0.41800000000E+01 0. -1.
        -11    1    1    2    0    0 -0.46874281174E+02 -0.13889323851E+03 -0.70633259758E+02  0.16271935141E+03  0.00000000000E+00 0.  1.
         11    1    1    2    0    0  0.32619812098E+02 -0.38800462126E+02 -0.26658685649E+01  0.50760564001E+02  0.00000000000E+00 0. -1.
</event>
<event>
 7    1  0.2873461E-009  0.1231821E+03  0.7561462E-02  0.1237938E+00
         -1   -1    0    0    0  501 -0.00000000000E+00  0.00000000000E+00  0.23234595447E+03  0.23234595447E+03  0.00000000000E+00 0.  1.
          1   -1    0    0  501    0  0.00000000000E+00 -0.00000000000E+00 -0.99470391250E+02  0.99470391250E+02  0.00000000000E+00 0. -1.
         25    2    1    2    0    0 -0.32513944513E+02  0.71136625326E+02 -0.62229214620E+01  0.14765963831E+03  0.12508824079E+03 0.  0.
          5    1    3    3  502    0  0.47241392532E+01 -0.26979577772E+02 -0.29087096825E+02  0.40171466368E+02  0.41800000000E+01 0.  1.
         -5    1    3    3    0  502 -0.37238083766E+02  0.98116203098E+02  0.22864175363E+02  0.10748817194E+03  0.41800000000E+01 0.  1.
        -11    1    1    2    0    0  0.69448220550E+01 -0.84495317304E+02  0.72402564806E+02  0.11148910525E+03  0.00000000000E+00 0. -1.
         11    1    1    2    0    0  0.25569122458E+02  0.13358691979E+02  0.66695919873E+02  0.72667602151E+02  0.00000000000E+00 0.  1.
</event>
<event>
 7    1  0.2873461E-009  0.9569745E+02  0.7561462E-02  0.1289613E+00
          4   -1    0    0  501    0  0.00000000000E+00  0.00000000000E+00  0.16400917456E+03  0.16400917456E+03  0.00000000000E+00 0.  1.
         -4   -1    0    0    0  501 -0.00000000000E+00 -0.00000000000E+00 -0.10739981824E+03  0.10739981824E+03  0.00000000000E+00 0. -1.
         25    2    1    2    0    0 -0.29082293499E+02  0.55463181177E+02  0.74097948989E+02  0.15830247378E+03  0.12508886002E+03 0.  0.
          5    1    3    3  502    0 -0.19585415523E+02 -0.87543595096E+01 -0.29051028192E+02  0.36354668897E+02  0.41800000000E+01 0. -1.
         -5    1    3    3    0  502 -0.94968779757E+01  0.64217540687E+02  0.10314897718E+03  0.12194780489E+03  0.41800000000E+01 0. -1.
        -11    1    1    2    0    0 -0.11611307479E+02  0.17466271512E+02  0.12446953517E+02  0.24388926868E+02  0.00000000000E+00 0.  1.
         11    1    1    2    0    0  0.40693600978E+02 -0.72929452689E+02 -0.29935546190E+02  0.88717592144E+02  0.00000000000E+00 0. -1.
</event>
<event>
 7    1  0.2873461E-009  0.1533348E+03  0.7561462E-02  0.1196434E+00
          1   -1    0    0  501    0  0.00000000000E+00  0.00000000000E+00  0.57622498999E+03  0.57622498999E+03  0.00000000000E+00 0. -1.
         -1   -1    0    0    0  501 -0.00000000000E+00 -0.00000000000E+00 -0.46770927823E+02  0.46770927823E+02  0.00000000000E+00 0.  1.
         25    2    1    2    0    0 -0.39128912428E+02 -0.11535448786E+03  0.24517789136E+03  0.30099218042E+03  0.12508542924E+03 0.  0.
          5    1    3    3  502    0 -0.18448810205E+02  0.25139412085E+02  0.58252122063E+02  0.66205217036E+02  0.41800000000E+01 0. -1.
         -5    1    3    3    0  502 -0.20680102223E+02 -0.14049389994E+03  0.18692576930E+03  0.23478696338E+03  0.41800000000E+01 0. -1.
        -11    1    1    2    0    0  0.39872817410E+02  0.35815712576E+02  0.45427638050E+02  0.70258644552E+02  0.00000000000E+00 0.  1.
         11    1    1    2    0    0 -0.74390498192E+00  0.79538775282E+02  0.23884853276E+03  0.25174509284E+03  0.00000000000E+00 0. -1.
</event>
<event>
 7    1  0.2873461E-009  0.1554578E+03  0.7561462E-02  0.1193922E+00
          4   -1    0    0  501    0  0.00000000000E+00  0.00000000000E+00  0.32634814744E+02  0.32634814744E+02  0.00000000000E+00 0. -1.
         -4   -1    0    0    0  501 -0.00000000000E+00 -0.00000000000E+00 -0.10174416329E+04  0.10174416329E+04  0.00000000000E+00 0.  1.
         25    2    1    2    0    0  0.48134599040E+01  0.14138984654E+03 -0.41263260051E+03  0.45379329591E+03  0.12509370211E+03 0.  0.
          5    1    3    3  502    0 -0.10111534630E+02  0.50393805802E+02 -0.28898542839E+02  0.59113255485E+02  0.41800000000E+01 0.  1.
         -5    1    3    3    0  502  0.14924994535E+02  0.90996040741E+02 -0.38373405767E+03  0.39468004043E+03  0.41800000000E+01 0.  1.
        -11    1    1    2    0    0 -0.42264133422E+02 -0.11112255565E+03 -0.37973445603E+03  0.39791046284E+03  0.00000000000E+00 0.  1.
         11    1    1    2    0    0  0.37450673518E+02 -0.30267290896E+02 -0.19243976159E+03  0.19837268887E+03  0.00000000000E+00 0. -1.
</event>
<event>
 7    1  0.2873461E-009  0.1470789E+03  0.7561462E-02  0.1204109E+00
          2   -1    0    0  501    0  0.00000000000E+00  0.00000000000E+00  0.96489122455E+03  0.96489122455E+03  0.00000000000E+00 0. -1.
         -2   -1    0    0    0  501 -0.00000000000E+00 -0.00000000000E+00 -0.37056583164E+02  0.37056583164E+02  0.00000000000E+00 0.  1.
         25    2    1    2    0    0 -0.11081311139E+03 -0.66282425676E+02  0.26226875775E+03  0.31796622576E+03  0.12507883044E+03 0.  0.
          5    1    3    3  502    0 -0.63213478956E+02 -0.12474011086E+02  0.23037647078E+03  0.23925370543E+03  0.41800000000E+01 0. -1.
         -5    1    3    3    0  502 -0.47599632437E+02 -0.53808414590E+02  0.31892286970E+02  0.78712520331E+02  0.41800000000E+01 0. -1.
        -11    1    1    2    0    0  0.10237789295E+03  0.87575648744E+02  0.56494915175E+03  0.58079107370E+03  0.00000000000E+00 0. -1.
         11    1    1    2    0    0  0.84352184406E+01 -0.21293223068E+02  0.10061673188E+03  0.10319050825E+03  0.00000000000E+00 0.  1.
</event>
<event>
 7    1  0.2873461E-009  0.1208339E+03  0.7561462E-02  0.1241728E+00
          2   -1    0    0  501    0  0.00000000000E+00  0.00000000000E+00  0.64463655094E+02  0.64463655094E+02  0.00000000000E+00 0. -1.
         -2   -1    0    0    0  501 -0.00000000000E+00 -0.00000000000E+00 -0.23259294654E+03  0.23259294654E+03  0.00000000000E+00 0.  1.
         25    2    1    2    0    0  0.28994769520E+02  0.50583871847E+02 -0.93169826409E+02  0.16652119610E+03  0.12509703212E+03 0.  0.
          5    1    3    3  502    0  0.51703673902E+01  0.89619898713E+02 -0.75302969099E+02  0.11724533466E+03  0.41800000000E+01 0.  1.
         -5    1    3    3    0  502  0.23824402130E+02 -0.39036026866E+02 -0.17866857310E+02  0.49275861438E+02  0.41800000000E+01 0.  1.
        -11    1    1    2    0    0  0.25949266461E+02 -0.43264284558E+02 -0.26904424244E+02  0.57175263813E+02  0.00000000000E+00 0.  1.
         11    1    1    2    0    0 -0.54944035981E+02 -0.73195872890E+01 -0.48055040789E+02  0.73360141720E+02  0.00000000000E+00 0. -1.
</event>
<event>
 7    1  0.2873461E-009  0.1461991E+03  0.7561462E-02  0.1205223E+00
         -2   -1    0    0    0  501 -0.00000000000E+00  0.00000000000E+00  0.12476263402E+03  0.12476263402E+03  0.00000000000E+00 0.  1.
          2   -1    0    0  501    0  0.00000000000E+00 -0.00000000000E+00 -0.29686058629E+03  0.29686058629E+03  0.00000000000E+00 0. -1.
         25    2    1    2    0    0  0.72216327606E+02 -0.10714973267E+03  0.11190563752E+02  0.18019558450E+03  0.12509579039E+03 0.  0.
          5    1    3    3  502    0  0.87151196547E+02 -0.11284027107E+03 -0.20842938009E+02  0.14415324589E+03  0.41800000000E+01 0. -1.
         -5    1    3    3    0  502 -0.14934868941E+02  0.56905384031E+01  0.32033501761E+02  0.36042338612E+02  0.41800000000E+01 0. -1.
        -11    1    1    2    0    0 -0.56318743407E+02  0.54995799426E+02 -0.16684008039E+03  0.18447750876E+03  0.00000000000E+00 0. -1.
         11    1    1    2    0    0 -0.15897584198E+02  0.52153933244E+02 -0.16448435628E+02  0.56950127048E+02  0.00000000000E+00 0.  1.
</event>
<event>
 7    1  0.2873461E-009  0.1047116E+03  0.7561462E-02  0.1270689E+00
         -1   -1    0    0    0  501 -0.00000000000E+00  0.00000000000E+00  0.21135482398E+02  0.21135482398E+02  0.00000000000E+00 0.  1.
          1   -1    0    0  501    0  0.00000000000E+00 -0.00000000000E+00 -0.73165717447E+03  0.73165717447E+03  0.00000000000E+00 0. -1.
         25    2    1    2    0    0  0.33433400405E+00 -0.39875520815E+02 -0.53317073642E+03  0.54909876565E+03  0.12509297074E+03 0.  0.
          5    1    3    3  502    0  0.60339347562E+02 -0.17225144352E+02 -0.19552604872E+03  0.20539097008E+03  0.41800000000E+01 0.  1.
         -5    1    3    3    0  502 -0.60005013558E+02 -0.22650376463E+02 -0.33764468770E+03  0.34370779557E+03  0.41800000000E+01 0.  1.
        -11    1    1    2    0    0  0.23896673162E+02  0.50449358478E+02 -0.16561235275E+03  0.17476738867E+03  0.00000000000E+00 0. -1.
         11    1    1    2    0    0 -0.24231007166E+02 -0.10573837663E+02 -0.11738602897E+02  0.28926502540E+02  0.00000000000E+00 0.  1.
</event>
<event>
 7    1  0.2873461E-009  0.2413700E+03  0.7561462E-02  0.1118884E+00
         -1   -1    0    0    0  501 -0.00000000000E+00  0.00000000000E+00  0.87056239099E+03  0.87056239099E+03  0.00000000000E+00 0.  1.
          1   -1    0    0  501    0  0.00000000000E+00 -0.00000000000E+00 -0.89612716458E+02  0.89612716458E+02  0.00000000000E+00 0. -1.
         25    2    1    2    0    0  0.10818229396E+02 -0.21698066619E+03  0.63426735595E+03  0.68201295194E+03  0.12509574012E+03 0.  0.
          5    1    3    3  502    0  0.54033666363E+02 -0.37648373095E+02  0.17901676534E+03  0.19079180216E+03  0.41800000000E+01 0.  1.
         -5    1    3    3    0  502 -0.43215436966E+02 -0.17933229310E+03  0.45525059061E+03  0.49122114978E+03  0.41800000000E+01 0.  1.
        -11    1    1    2    0    0 -0.45764626654E+02  0.14793897823E+03  0.72578986818E+02  0.17102061765E+03  0.00000000000E+00 0. -1.
         11    1    1    2    0    0  0.34946397257E+02  0.69041687963E+02  0.74103331764E+02  0.10714153787E+03  0.00000000000E+00 0.  1.
</event>
<event>
 7    1  0.2873461E-009  0.9870100E+02  0.7561462E-02  0.1283052E+00
          2   -1    0    0  501    0  0.00000000000E+00  0.00000000000E+00  0.10563731622E+04  0.10563731622E+04  0.00000000000E+00 0. -1.
         -2   -1    0    0    0  501 -0.00000000000E+00 -0.00000000000E+00 -0.16374787737E+02  0.16374787737E+02  0.00000000000E+00 0.  1.
         25    2    1    2    0    0 -0.16063616456E+02 -0.31351980296E+02  0.84208878151E+03  0.85205759759E+03  0.12509055611E+03 0.  0.
          5    1    3    3  502    0 -0.31615320979E+02 -0.67182259529E+02  0.32150598886E+03  0.32999478448E+03  0.41800000000E+01 0.  1.
         -5    1    3    3    0  502  0.15551704523E+02  0.35830279233E+02  0.52058279265E+03  0.52206281311E+03  0.41800000000E+01 0.  1.
        -11    1    1    2    0    0 -0.27237438872E+02  0.29872582513E+02  0.39716660622E+02  0.56671530712E+02  0.00000000000E+00 0.  1.
         11    1    1    2    0    0  0.43301055328E+02  0.14793977832E+01  0.15819293235E+03  0.16401882165E+03  0.00000000000E+00 0. -1.
</event>
<event>
 7    1  0.2873461E-009  0.2064847E+03  0.7561462E-02  0.1144380E+00
          1   -1    0    0  501    0  0.00000000000E+00  0.00000000000E+00  0.14885292473E+04  0.14885292473E+04  0.00000000000E+00 0. -1.
         -1   -1    0    0    0  501 -0.00000000000E+00 -0.00000000000E+00 -0.45968397643E+02  0.45968397643E+02  0.00000000000E+00 0.  1.
         25    2    1    2    0    0 -0.17210377925E+03 -0.47695001966E+02  0.11997297836E+04  0.12193823131E+04  0.12508855997E+03 0.  0.
          5    1    3    3  502    0 -0.10784401575E+03  0.33636081986E+02  0.69065253037E+03  0.69984291656E+03  0.41800000000E+01 0.  1.
         -5    1    3    3    0  502 -0.64259763501E+02 -0.81331083951E+02  0.50907725320E+03  0.51953939653E+03  0.41800000000E+01 0.  1.
        -11    1    1    2    0    0  0.10837114862E+03 -0.11785076096E+02  0.16777954740E+03  0.20008290881E+03  0.00000000000E+00 0. -1.
         11    1    1    2    0    0  0.63732630637E+02  0.59480078062E+02  0.75051518666E+02  0.11503242303E+03  0.00000000000E+00 0.  1.
</event>
<event>
 7    1  0.2873461E-009  0.1712660E+03  0.7561462E-02  0.1176534E+00
         -3   -1    0    0    0  501 -0.00000000000E+00  0.00000000000E+00  0.21658550236E+03  0.21658550236E+03  0.00000000000E+00 0.  1.
          3   -1    0    0  501    0  0.00000000000E+00 -0.00000000000E+00 -0.14951942815E+03  0.14951942815E+03  0.00000000000E+00 0. -1.
         25    2    1    2    0    0  0.38915516187E+02 -0.13784480296E+03  0.64244322528E+02  0.20072162700E+03  0.12508489703E+03 0.  0.
          5    1    3    3  502    0 -0.30568590953E+01  0.21582307411E+02 -0.34396071063E+01  0.22459823636E+02  0.41800000000E+01 0. -1.
         -5    1    3    3    0  502  0.41972375283E+02 -0.15942711037E+03  0.67683929634E+02  0.17826180336E+03  0.41800000000E+01 0. -1.
        -11    1    1    2    0    0 -0.14075356601E+02 -0.12484488555E+01  0.18436912837E+02  0.23229163630E+02  0.00000000000E+00 0.  1.
         11    1    1    2    0    0 -0.24840159586E+02  0.13909325181E+03 -0.15615161157E+02  0.14215413988E+03  0.00000000000E+00 0. -1.
</event>
<event>
 7    1  0.2873461E-009  0.8957092E+02  0.7561462E-02  0.1303894E+00
         -1   -1    0    0    0  501 -0.00000000000E+00  0.00000000000E+00  0.34424686097E+02  0.34424686097E+02  0.00000000000E+00 0.  1.
          1   -1    0    0  501    0  0.00000000000E+00 -0.00000000000E+00 -0.34496184206E+03  0.34496184206E+03  0.00000000000E+00 0. -1.
         25    2    1    2    0    0 -0.66805345361E+01 -0.39677579393E+01 -0.18691734689E+03  0.22504639969E+03  0.12508962708E+03 0.  0.
          5    1    3    3  502    0  0.17226936768E+02  0.41391961918E+02 -0.16151079719E+03  0.16767012814E+03  0.41800000000E+01 0.  1.
         -5    1    3    3    0  502 -0.23907471304E+02 -0.45359719857E+02 -0.25406549701E+02  0.57376271554E+02  0.41800000000E+01 0.  1.
        -11    1    1    2    0    0  0.90572392078E+01 -0.38796076967E+02 -0.25556932688E+02  0.47332081916E+02  0.00000000000E+00 0.  1.
         11    1    1    2    0    0 -0.23767046717E+01  0.42763834906E+02 -0.98062876391E+02  0.10700804655E+03  0.00000000000E+00 0. -1.
</event>
<event>
 7    1  0.2873461E-009  0.8384073E+02  0.7561462E-02  0.1318492E+00
         -2   -1    0    0    0  501 -0.00000000000E+00  0.00000000000E+00  0.15596629624E+02  0.15596629624E+02  0.00000000000E+00 0.  1.
          2   -1    0    0  501    0  0.00000000000E+00 -0.00000000000E+00 -0.90258933230E+03  0.90258933230E+03  0.00000000000E+00 0. -1.
         25    2    1    2    0    0 -0.48649199751E+01 -0.20065943145E+02 -0.65828679075E+03  0.67038426626E+03  0.12508899254E+03 0.  0.
          5    1    3    3  502    0  0.34476847332E+02 -0.17581342452E+02 -0.64926297903E+02  0.75701077692E+02  0.41800000000E+01 0.  1.
         -5    1    3    3    0  502 -0.39341767307E+02 -0.24846006934E+01 -0.59336049285E+03  0.59468318857E+03  0.41800000000E+01 0.  1.
        -11    1    1    2    0    0  0.45136894818E+02  0.25815589344E+01 -0.16001114653E+03  0.16627558670E+03  0.00000000000E+00 0. -1.
         11    1    1    2    0    0 -0.40271974843E+02  0.17484384211E+02 -0.68694765403E+02  0.81526108964E+02  0.00000000000E+00 0.  1.
</event>
<event>
 7    1  0.2873461E-009  0.9513109E+02  0.7561462E-02  0.1290881E+00
          2   -1    0    0  501    0  0.00000000000E+00  0.00000000000E+00  0.19478529918E+03  0.19478529918E+03  0.00000000000E+00 0. -1.
         -2   -1    0    0    0  501 -0.00000000000E+00 -0.00000000000E+00 -0.67343440209E+02  0.67343440209E+02  0.00000000000E+00 0.  1.
         25    2    1    2    0    0  0.21122115865E+02  0.30428503632E+02  0.57556250157E+02  0.14259108556E+03  0.12508980029E+03 0.  0.
          5    1    3    3  502    0 -0.17961309632E+02 -0.37792257282E+02 -0.45681944174E+01  0.42298985265E+02  0.41800000000E+01 0. -1.
         -5    1    3    3    0  502  0.39083425497E+02  0.68220760914E+02  0.62124444574E+02  0.10029210030E+03  0.41800000000E+01 0. -1.
        -11    1    1    2    0    0  0.11806378426E+02 -0.34343382454E+02 -0.59209566812E+01  0.36795600524E+02  0.00000000000E+00 0.  1.
         11    1    1    2    0    0 -0.32928494291E+02  0.39148788219E+01  0.75806565494E+02  0.82742053301E+02  0.00000000000E+00 0. -1.
</event>
<event>
 7    1  0.2873461E-009  0.1017874E+03  0.7561462E-02  0.1276582E+00
         -1   -1    0    0    0  501 -0.00000000000E+00  0.00000000000E+00  0.16430719455E+02  0.16430719455E+02  0.00000000000E+00 0.  1.
          1   -1    0    0  501    0  0.00000000000E+00 -0.00000000000E+00 -0.84627093837E+03  0.84627093837E+03  0.00000000000E+00 0. -1.
         25    2    1    2    0    0  0.42264510123E+01  0.77556208925E+01 -0.63470287137E+03  0.64697175622E+03  0.12508679340E+03 0.  0.
          5    1    3    3  502    0 -0.50158012418E+02 -0.15624418880E+02 -0.44737851406E+03  0.45047192578E+03  0.41800000000E+01 0. -1.
         -5    1    3    3    0  502  0.54384463431E+02  0.23380039773E+02 -0.18732435731E+03  0.19649983044E+03  0.41800000000E+01 0. -1.
        -11    1    1    2    0    0  0.39585122594E+02  0.14788569802E+02 -0.10083351634E+03  0.10933015021E+03  0.00000000000E+00 0.  1.
         11    1    1    2    0    0 -0.43811573607E+02 -0.22544190695E+02 -0.94303831209E+02  0.10639975139E+03  0.00000000000E+00 0. -1.
</event>
<event>
 7    1  0.2873461E-009  0.1480922E+03  0.7561462E-02  0.1202837E+00
          4   -1    0    0  501    0  0.00000000000E+00  0.00000000000E+00  0.57127851086E+03  0.57127851086E+03  0.00000000000E+00 0.  1.
         -4   -1    0    0    0  501 -0.00000000000E+00 -0.00000000000E+00 -0.43205186840E+02  0.43205186840E+02  0.00000000000E+00 0. -1.
         25    2    1    2    0    0  0.10780245380E+03  0.32880278970E+02  0.26322842978E+03  0.31247327905E+03  0.12509141490E+03 0.  0.
          5    1    3    3  502    0 -0.22153988850E+02  0.65808027196E+01  0.79683182425E+01  0.24800658903E+02  0.41800000000E+01 0.  1.
         -5    1    3    3    0  502  0.12995644265E+03  0.26299476251E+02  0.25526011154E+03  0.28767262014E+03  0.41800000000E+01 0.  1.
        -11    1    1    2    0    0 -0.13557853474E+01 -0.33565716103E+02  0.33959646857E+02  0.47767698982E+02  0.00000000000E+00 0.  1.
         11    1    1    2    0    0 -0.10644666845E+03  0.68543713253E+00  0.23088524738E+03  0.25424271967E+03  0.00000000000E+00 0. -1.
</event>
<event>
 7    1  0.2873461E-009  0.1112523E+03  0.7561462E-02  0.1258268E+00
         -1   -1    0    0    0  501 -0.00000000000E+00  0.00000000000E+00  0.23527384005E+02  0.23527384005E+02  0.00000000000E+00 0.  1.
          1   -1    0    0  501    0  0.00000000000E+00 -0.00000000000E+00 -0.67672238737E+03  0.67672238737E+03  0.00000000000E+00 0. -1.
         25    2    1    2    0    0 -0.30297011065E+02 -0.56175052762E+02 -0.39258729174E+03  0.41694746067E+03  0.12508740103E+03 0.  0.
          5    1    3    3  502    0  0.12033322272E+02 -0.77881324067E+02 -0.32333542624E+03  0.33282663918E+03  0.41800000000E+01 0. -1.
         -5    1    3    3    0  502 -0.42330333337E+02  0.21706271305E+02 -0.69251865495E+02  0.84120821495E+02  0.41800000000E+01 0. -1.
        -11    1    1    2    0    0  0.53091255075E+02  0.29464631381E+02 -0.86469298066E+02  0.10565881589E+03  0.00000000000E+00 0.  1.
         11    1    1    2    0    0 -0.22794244010E+02  0.26710421381E+02 -0.17413841356E+03  0.17764349481E+03  0.00000000000E+00 0. -1.
</event>
<event>
 7    1  0.2873461E-009  0.1588776E+03  0.7561462E-02  0.1189970E+00
          2   -1    0    0  501    0  0.00000000000E+00  0.00000000000E+00  0.11626593855E+03  0.11626593855E+03  0.00000000000E+00 0. -1.
         -2   -1    0    0    0  501 -0.00000000000E+00 -0.00000000000E+00 -0.33738347686E+03  0.33738347686E+03  0.00000000000E+00 0.  1.
         25    2    1    2    0    0  0.72135537382E+01  0.12073626532E+03  0.13686893554E+02  0.17453877022E+03  0.12508864910E+03 0.  0.
          5    1    3    3  502    0  0.60866190246E+02  0.32469869655E+02 -0.57446996643E+01  0.69350266940E+02  0.41800000000E+01 0. -1.
         -5    1    3    3    0  502 -0.53652636508E+02  0.88266395661E+02  0.19431593219E+02  0.10518850328E+03  0.41800000000E+01 0. -1.
        -11    1    1    2    0    0 -0.42745459096E+02 -0.83445470516E+02 -0.18530355135E+03  0.20767216223E+03  0.00000000000E+00 0. -1.
         11    1    1    2    0    0  0.35531905358E+02 -0.37290794799E+02 -0.49500880518E+02  0.71438482957E+02  0.00000000000E+00 0.  1.
</event>
<event>
 7    1  0.2873461E-009  0.1148460E+03  0.7561462E-02  0.1251850E+00
         -2   -1    0    0    0  501 -0.00000000000E+00  0.00000000000E+00  0.43780625150E+02  0.43780625150E+02  0.00000000000E+00 0.  1.
          2   -1    0    0  501    0  0.00000000000E+00 -0.00000000000E+00 -0.48532318783E+03  0.48532318783E+03  0.00000000000E+00 0. -1.
         25    2    1    2    0    0  0.70625273518E+02 -0.26975351865E+02 -0.36334778791E+03  0.39164002172E+03  0.12507874626E+03 0.  0.
          5    1    3    3  502    0  0.91771927407E+02 -0.27740679033E+02 -0.15585912128E+03  0.18303324840E+03  0.41800000000E+01 0.  1.
         -5    1    3    3    0  502 -0.21146653889E+02  0.76532716799E+00 -0.20748866662E+03  0.20860677332E+03  0.41800000000E+01 0.  1.
        -11    1    1    2    0    0 -0.89745440938E+02  0.22101270529E+02 -0.57413693910E+02  0.10880736453E+03  0.00000000000E+00 0. -1.
         11    1    1    2    0    0  0.19120167420E+02  0.48740813359E+01 -0.20781080863E+02  0.28656426729E+02  0.00000000000E+00 0.  1.
</event>
<event>
 7    1  0.2873461E-009  0.1072919E+03  0.7561462E-02  0.1265669E+00
          1   -1    0    0  501    0  0.00000000000E+00  0.00000000000E+00  0.13262329244E+02  0.13262329244E+02  0.00000000000E+00 0. -1.
         -1   -1    0    0    0  501 -0.00000000000E+00 -0.00000000000E+00 -0.10686545143E+04  0.10686545143E+04  0.00000000000E+00 0.  1.
         25    2    1    2    0    0 -0.30888404362E+02  0.78651185141E+01 -0.77049097526E+03  0.78122937260E+03  0.12508811307E+03 0.  0.
          5    1    3    3  502    0 -0.38970249564E+02  0.59035244318E+02 -0.55767803117E+03  0.56216198669E+03  0.41800000000E+01 0.  1.
         -5    1    3    3    0  502  0.80818452016E+01 -0.51170125803E+02 -0.21281294409E+03  0.21906738591E+03  0.41800000000E+01 0.  1.
        -11    1    1    2    0    0 -0.26168740274E+02 -0.20581538404E+02 -0.15025302771E+03  0.15389728726E+03  0.00000000000E+00 0. -1.
         11    1    1    2    0    0  0.57057144636E+02  0.12716419890E+02 -0.13464818209E+03  0.14679018370E+03  0.00000000000E+00 0.  1.
</event>
<event>
 7    1  0.2873461E-009  0.1861466E+03  0.7561462E-02  0.1161983E+00
          2   -1    0    0  501    0  0.00000000000E+00  0.00000000000E+00  0.44549694926E+03  0.44549694926E+03  0.00000000000E+00 0. -1.
         -2   -1    0    0    0  501 -0.00000000000E+00 -0.00000000000E+00 -0.96757811438E+02  0.96757811438E+02  0.00000000000E+00 0.  1.
         25    2    1    2    0    0 -0.14085683515E+03 -0.74269367200E+02  0.28158846596E+03  0.34683855983E+03  0.12509330721E+03 0.  0.
          5    1    3    3  502    0 -0.11255118583E+03 -0.10452824085E+03  0.17775047690E+03  0.23496090527E+03  0.41800000000E+01 0. -1.
         -5    1    3    3    0  502 -0.28305649321E+02  0.30258873649E+02  0.10383798906E+03  0.11187765456E+03  0.41800000000E+01 0. -1.
        -11    1    1    2    0    0  0.77635220736E+02  0.82439887752E+02  0.17437093676E+02  0.11457580385E+03  0.00000000000E+00 0.  1.
         11    1    1    2    0    0  0.63221614411E+02 -0.81705205516E+01  0.49713578183E+02  0.80840397022E+02  0.00000000000E+00 0. -1.
</event>
<event>
 7    1  0.2873461E-009  0.9195269E+02  0.7561462E-02  0.1298191E+00
         -1   -1    0    0    0  501 -0.00000000000E+00  0.00000000000E+00  0.80158476367E+02  0.80158476367E+02  0.00000000000E+00 0.  1.
          1   -1    0    0  501    0  0.00000000000E+00 -0.00000000000E+00 -0.15333376090E+03  0.15333376090E+03  0.00000000000E+00 0. -1.
         25    2    1    2    0    0 -0.20087281828E+02 -0.15268135608E+02 -0.50077237236E+02  0.13708377850E+03  0.12509043841E+03 0.  0.
          5    1    3    3  502    0  0.37589585864E+02  0.61995458748E+01  0.20406343862E+02  0.43420071445E+02  0.41800000000E+01 0. -1.
         -5    1    3    3    0  502 -0.57676867691E+02 -0.21467681482E+02 -0.70483581098E+02  0.93663707055E+02  0.41800000000E+01 0. -1.
        -11    1    1    2    0    0 -0.25813300319E+02  0.26126455469E+02  0.10847370044E+02  0.38295999603E+02  0.00000000000E+00 0.  1.
         11    1    1    2    0    0  0.45900582146E+02 -0.10858319861E+02 -0.33945417337E+02  0.58112459161E+02  0.00000000000E+00 0. -1.
</event>
<event>
 7    1  0.2873461E-009  0.9340803E+02  0.7561462E-02  0.1294802E+00
          2   -1    0    0  501    0  0.00000000000E+00  0.00000000000E+00  0.12974609990E+03  0.12974609990E+03  0.00000000000E+00 0. -1.
         -2   -1    0    0    0  501 -0.00000000000E+00 -0.00000000000E+00 -0.92027059018E+02  0.92027059018E+02  0.00000000000E+00 0.  1.
         25    2    1    2    0    0 -0.20085267710E+01 -0.17299564015E+02  0.12222527694E+02  0.12688465904E+03  0.12508803868E+03 0.  0.
          5    1    3    3  502    0 -0.31494825880E+02 -0.48166540610E+02 -0.31413681727E+02  0.65698032628E+02  0.41800000000E+01 0.  1.
         -5    1    3    3    0  502  0.29486299109E+02  0.30866976595E+02  0.43636209421E+02  0.61186626414E+02  0.41800000000E+01 0.  1.
        -11    1    1    2    0    0  0.86605511766E+01 -0.33698393134E+02  0.26034837176E+02  0.43455719914E+02  0.00000000000E+00 0.  1.
         11    1    1    2    0    0 -0.66520244056E+01  0.50997957149E+02 -0.53832398565E+00  0.51432779963E+02  0.00000000000E+00 0. -1.
</event>
<event>
 7    1  0.2873461E-009  0.1054321E+03  0.7561462E-02  0.1269271E+00
          2   -1    0    0  501    0  0.00000000000E+00  0.00000000000E+00  0.16732285794E+03  0.16732285794E+03  0.00000000000E+00 0. -1.
         -2   -1    0    0    0  501 -0.00000000000E+00 -0.00000000000E+00 -0.76560401046E+02  0.76560401046E+02  0.00000000000E+00 0.  1.
         25    2    1    2    0    0 -0.12688454470E+01  0.25344815323E+02  0.49771508324E+02  0.13700110841E+03  0.12509248991E+03 0.  0.
          5    1    3    3  502    0  0.17686839004E+01 -0.44154573183E+02  0.50593902885E+02  0.67305051704E+02  0.41800000000E+01 0.  1.
         -5    1    3    3    0  502 -0.30375293475E+01  0.69499388506E+02 -0.82239456141E+00  0.69696056704E+02  0.41800000000E+01 0.  1.
        -11    1    1    2    0    0 -0.39742295356E+02 -0.36843436942E+02  0.12430934353E+02  0.55600512721E+02  0.00000000000E+00 0.  1.
         11    1    1    2    0    0  0.41011140803E+02  0.11498621620E+02  0.28560014214E+02  0.51281637854E+02  0.00000000000E+00 0. -1.
</event>
<event>
 7    1  0.2873461E-009  0.2102669E+03  0.7561462E-02  0.1141355E+00
          1   -1    0    0  501    0  0.00000000000E+00  0.00000000000E+00  0.24154033297E+03  0.24154033297E+03  0.00000000000E+00 0.  1.
         -1   -1    0    0    0  501 -0.00000000000E+00 -0.00000000000E+00 -0.25740854304E+03  0.25740854304E+03  0.00000000000E+00 0. -1.
         25    2    1    2    0    0  0.53124507268E+02 -0.19001503672E+03  0.99015253268E+02  0.25373119480E+03  0.12509025295E+03 0.  0.
          5    1    3    3  502    0 -0.29838420144E+02 -0.28503141338E+02  0.51256468506E+02  0.65935258751E+02  0.41800000000E+01 0.  1.
         -5    1    3    3    0  502  0.82962927412E+02 -0.16151189539E+03  0.47758784761E+02  0.18779593605E+03  0.41800000000E+01 0.  1.
        -11    1    1    2    0    0 -0.36140946756E+02  0.11608923187E+03 -0.11782479820E+03  0.16930906904E+03  0.00000000000E+00 0. -1.
         11    1    1    2    0    0 -0.16983560512E+02  0.73925804856E+02  0.29413348613E+01  0.75908612173E+02  0.00000000000E+00 0.  1.
</event>
<event>
 7    1  0.2873461E-009  0.1078878E+03  0.7561462E-02  0.1264532E+00
         -3   -1    0    0    0  501 -0.00000000000E+00  0.00000000000E+00  0.80694672698E+03  0.80694672698E+03  0.00000000000E+00 0.  1.
          3   -1    0    0  501    0  0.00000000000E+00 -0.00000000000E+00 -0.17743468918E+02  0.17743468918E+02  0.00000000000E+00 0. -1.
         25    2    1    2    0    0 -0.36410715064E+02 -0.19333455727E+02  0.56815323655E+03  0.58321642044E+03  0.12507505821E+03 0.  0.
          5    1    3    3  502    0 -0.78976007494E+02 -0.23298941116E+01  0.43980287669E+03  0.44686315680E+03  0.41800000000E+01 0.  1.
         -5    1    3    3    0  502  0.42565292430E+02 -0.17003561615E+02  0.12835035986E+03  0.13635326364E+03  0.41800000000E+01 0.  1.
        -11    1    1    2    0    0  0.51069095436E+02 -0.15058714581E+02  0.84305493322E+02  0.99710749660E+02  0.00000000000E+00 0. -1.
         11    1    1    2    0    0 -0.14658380372E+02  0.34392170308E+02  0.13674452819E+03  0.14176302580E+03  0.00000000000E+00 0.  1.
</event>
<event>
 7    1  0.2873461E-009  0.8765871E+02  0.7561462E-02  0.1308623E+00
         -2   -1    0    0    0  501 -0.00000000000E+00  0.00000000000E+00  0.46806116751E+02  0.46806116751E+02  0.00000000000E+00 0.  1.
          2   -1    0    0  501    0  0.00000000000E+00 -0.00000000000E+00 -0.25906744276E+03  0.25906744276E+03  0.00000000000E+00 0. -1.
         25    2    1    2    0    0  0.18481351106E+02 -0.60959338434E+01 -0.13479920736E+03  0.18492338529E+03  0.12508841422E+03 0.  0.
          5    1    3    3  502    0 -0.52637493698E+02 -0.32120844808E+01 -0.75489715306E+02  0.92180218846E+02  0.41800000000E+01 0.  1.
         -5    1    3    3    0  502  0.71118844804E+02 -0.28838493625E+01 -0.59309492056E+02  0.92743166440E+02  0.41800000000E+01 0.  1.
        -11    1    1    2    0    0 -0.33868018486E+02  0.98642554321E+01 -0.92567671194E+02  0.99061193016E+02  0.00000000000E+00 0. -1.
         11    1    1    2    0    0  0.15386667379E+02 -0.37683215887E+01  0.15105552547E+02  0.21888981209E+02  0.00000000000E+00 0.  1.
</event>
<event>
 7    1  0.2873461E-009  0.7788311E+02  0.7561462E-02  0.1335168E+00
         -1   -1    0    0    0  501 -0.00000000000E+00  0.00000000000E+00  0.55477147221E+02  0.55477147221E+02  0.00000000000E+00 0.  1.
          1   -1    0    0  501    0  0.00000000000E+00 -0.00000000000E+00 -0.21289265210E+03  0.21289265210E+03  0.00000000000E+00 0. -1.
         25    2    1    2    0    0 -0.49740718232E+01 -0.20604092155E+02 -0.99030440815E+02  0.16094783458E+03  0.12509159541E+03 0.  0.
          5    1    3    3  502    0 -0.39677915912E+02 -0.34536542496E+02  0.23376650360E+01  0.52820894128E+02  0.41800000000E+01 0.  1.
         -5    1    3    3    0  502  0.34703844089E+02  0.13932450341E+02 -0.10136810585E+03  0.10812694045E+03  0.41800000000E+01 0.  1.
        -11    1    1    2    0    0  0.14241220084E+02 -0.19533953053E+02 -0.61529666892E+02  0.66108150626E+02  0.00000000000E+00 0. -1.
         11    1    1    2    0    0 -0.92671482606E+01  0.40138045208E+02  0.31446028278E+01  0.41313814118E+02  0.00000000000E+00 0.  1.
</event>
<event>
 7    1  0.2873461E-009  0.9763660E+02  0.7561462E-02  0.1285346E+00
         -1   -1    0    0    0  501 -0.00000000000E+00  0.00000000000E+00  0.67552782544E+02  0.67552782544E+02  0.00000000000E+00 0.  1.
          1   -1    0    0  501    0  0.00000000000E+00 -0.00000000000E+00 -0.18962850998E+03  0.18962850998E+03  0.00000000000E+00 0. -1.
         25    2    1    2    0    0 -0.21873463177E+02 -0.25893675678E+02 -0.58486896937E+02  0.14218832608E+03  0.12509145506E+03 0.  0.
          5    1    3    3  502    0 -0.73594172961E+02 -0.24259046098E+02 -0.32506967133E+02  0.84135479577E+02  0.41800000000E+01 0.  1.
         -5    1    3    3    0  502  0.51720709784E+02 -0.16346295800E+01 -0.25979929804E+02  0.58052846502E+02  0.41800000000E+01 0.  1.
        -11    1    1    2    0    0  0.37273146772E+02  0.32063305878E+02  0.11277308518E+00  0.49166612370E+02  0.00000000000E+00 0.  1.
         11    1    1    2    0    0 -0.15399683595E+02 -0.61696301993E+01 -0.63701603586E+02  0.65826354077E+02  0.00000000000E+00 0. -1.
</event>
<event>
 7    1  0.2873461E-009  0.1401436E+03  0.7561462E-02  0.1213136E+00
         -1   -1    0    0    0  501 -0.00000000000E+00  0.00000000000E+00  0.96616856905E+02  0.96616856905E+02  0.00000000000E+00 0.  1.
          1   -1    0    0  501    0  0.00000000000E+00 -0.00000000000E+00 -0.46379779125E+03  0.46379779125E+03  0.00000000000E+00 0. -1.
         25    2    1    2    0    0 -0.11371246836E+03 -0.50461992403E+02 -0.36614209464E+03  0.40642820935E+03  0.12508764028E+03 0.  0.
          5    1    3    3  502    0 -0.49220559920E+02 -0.70595557559E+02 -0.29868431663E+03  0.31086361908E+03  0.41800000000E+01 0. -1.
         -5    1    3    3    0  502 -0.64491908437E+02  0.20133565156E+02 -0.67457778012E+02  0.95564590273E+02  0.41800000000E+01 0. -1.
        -11    1    1    2    0    0  0.50635701641E+02  0.34803803965E+02  0.43425897398E+02  0.75240199468E+02  0.00000000000E+00 0.  1.
         11    1    1    2    0    0  0.63076766716E+02  0.15658188438E+02 -0.44464737105E+02  0.78746239340E+02  0.00000000000E+00 0. -1.
</event>
<event>
 7    1  0.2873461E-009  0.7810215E+02  0.7561462E-02  0.1334525E+00
         -2   -1    0    0    0  501 -0.00000000000E+00  0.00000000000E+00  0.46825364780E+02  0.46825364780E+02  0.00000000000E+00 0.  1.
          2   -1    0    0  501    0  0.00000000000E+00 -0.00000000000E+00 -0.30420608687E+03  0.30420608687E+03  0.00000000000E+00 0. -1.
         25    2    1    2    0    0  0.54048080706E+02 -0.39850490483E+01 -0.13467641987E+03  0.19163020328E+03  0.12508925252E+03 0.  0.
          5    1    3    3  502    0  0.34617751429E+02 -0.38485548666E+01  0.16771361448E+02  0.38883814800E+02  0.41800000000E+01 0.  1.
         -5    1    3    3    0  502  0.19430329277E+02 -0.13649418166E+00 -0.15144778132E+03  0.15274638848E+03  0.41800000000E+01 0.  1.
        -11    1    1    2    0    0 -0.19184418098E+02  0.44104874585E+02 -0.50446802966E+02  0.69700514987E+02  0.00000000000E+00 0. -1.
         11    1    1    2    0    0 -0.34863662608E+02 -0.40119825536E+02 -0.72257499253E+02  0.89700733385E+02  0.00000000000E+00 0.  1.
</event>
<event>
 7    1  0.2873461E-009  0.1165791E+03  0.7561462E-02  0.1248849E+00
          2   -1    0    0  501    0  0.00000000000E+00  0.00000000000E+00  0.68922309574E+03  0.68922309574E+03  0.00000000000E+00 0. -1.
         -2   -1    0    0    0  501 -0.00000000000E+00 -0.00000000000E+00 -0.26847128902E+02  0.26847128902E+02  0.00000000000E+00 0.  1.
         25    2    1    2    0    0 -0.18325590800E+02 -0.60398186300E+02  0.22589109698E+03  0.26581541739E+03  0.12508908921E+03 0.  0.
          5    1    3    3  502    0 -0.67402677098E+02 -0.41553075405E+02  0.17679779977E+03  0.19376458231E+03  0.41800000000E+01 0.  1.
         -5    1    3    3    0  502  0.49077086298E+02 -0.18845110895E+02  0.49093297209E+02  0.72050835075E+02  0.41800000000E+01 0.  1.
        -11    1    1    2    0    0  0.31481441635E+02 -0.71738651577E+01  0.66550574000E+02  0.73969753335E+02  0.00000000000E+00 0.  1.
         11    1    1    2    0    0 -0.13155850835E+02  0.67572051458E+02  0.36993429586E+03  0.37628505392E+03  0.00000000000E+00 0. -1.
</event>
<event>
 7    1  0.2873461E-009  0.2305066E+03  0.7561462E-02  0.1126284E+00
         -2   -1    0    0    0  501 -0.00000000000E+00  0.00000000000E+00  0.84478855769E+02  0.84478855769E+02  0.00000000000E+00 0.  1.
          2   -1    0    0  501    0  0.00000000000E+00 -0.00000000000E+00 -0.10134955537E+04  0.10134955537E+04  0.00000000000E+00 0. -1.
         25    2    1    2    0    0  0.21172759883E+03 -0.10437689503E+02 -0.15647623716E+03  0.29166743185E+03  0.12509019361E+03 0.  0.
          5    1    3    3  502    0 -0.71534326721E+01  0.21841768637E+02 -0.61752301031E+01  0.24162787981E+02  0.41800000000E+01 0.  1.
         -5    1    3    3    0  502  0.21888103150E+03 -0.32279458140E+02 -0.15030100706E+03  0.26750464387E+03  0.41800000000E+01 0.  1.
        -11    1    1    2    0    0 -0.15387868328E+03  0.26915850512E+02 -0.40887461839E+03  0.43770031499E+03  0.00000000000E+00 0.  1.
         11    1    1    2    0    0 -0.57848915552E+02 -0.16478161008E+02 -0.36366584239E+03  0.36860666264E+03  0.00000000000E+00 0. -1.
</event>
<event>
 7    1  0.2873461E-009  0.1406956E+03  0.7561462E-02  0.1212396E+00
          2   -1    0    0  501    0  0.00000000000E+00  0.00000000000E+00  0.11134501698E+04  0.11134501698E+04  0.00000000000E+00 0. -1.
         -2   -1    0    0    0  501 -0.00000000000E+00 -0.00000000000E+00 -0.23431870961E+02  0.23431870961E+02  0.00000000000E+00 0.  1.
         25    2    1    2    0    0  0.10971801402E+03 -0.43366257392E+02  0.60413987639E+03  0.62813316830E+03  0.12509041527E+03 0.  0.
          5    1    3    3  502    0  0.29682373285E+02  0.34211237822E+02  0.31424958485E+03  0.31752437081E+03  0.41800000000E+01 0. -1.
         -5    1    3    3    0  502  0.80035640735E+02 -0.77577495214E+02  0.28989029154E+03  0.31060879749E+03  0.41800000000E+01 0. -1.
        -11    1    1    2    0    0 -0.23106379609E+02  0.28162795699E+02  0.39266473439E+02  0.53562148730E+02  0.00000000000E+00 0.  1.
         11    1    1    2    0    0 -0.86611634410E+02  0.15203461693E+02  0.44661194903E+03  0.45518672375E+03  0.00000000000E+00 0. -1.
</event>
<event>
 7    1  0.2873461E-009  0.2386271E+03  0.7561462E-02  0.1120711E+00
          4   -1    0    0  501    0  0.00000000000E+00  0.00000000000E+00  0.17162161817E+04  0.17162161817E+04  0.00000000000E+00 0. -1.
         -4   -1    0    0    0  501 -0.00000000000E+00 -0.00000000000E+00 -0.91249892790E+02  0.91249892790E+02  0.00000000000E+00 0.  1.
         25    2    1    2    0    0  0.22175948174E+03  0.10936288657E+02  0.15288502706E+04  0.15499442776E+04  0.12508894371E+03 0.  0.
          5    1    3    3  502    0 -0.88031743770E+01  0.21845999103E+02  0.13387992278E+03  0.13600018264E+03  0.41800000000E+01 0. -1.
         -5    1    3    3    0  502  0.23056265612E+03 -0.10909710446E+02  0.13949703478E+04  0.14139440950E+04  0.41800000000E+01 0.  1.
        -11    1    1    2    0    0 -0.77340039323E+02 -0.10537534415E+02  0.80715188474E+02  0.11228295937E+03  0.00000000000E+00 0. -1.
         11    1    1    2    0    0 -0.14441944242E+03 -0.39875424205E+00  0.15400829879E+02  0.14523883749E+03  0.00000000000E+00 0.  1.
</event>
<event>
 7    1  0.2873461E-009  0.1380806E+03  0.7561462E-02  0.1215935E+00
          2   -1    0    0  501    0  0.00000000000E+00  0.00000000000E+00  0.67998828039E+02  0.67998828039E+02  0.00000000000E+00 0. -1.
         -2   -1    0    0    0  501 -0.00000000000E+00 -0.00000000000E+00 -0.46794465707E+03  0.46794465707E+03  0.00000000000E+00 0.  1.
         25    2    1    2    0    0  0.82848408469E+02 -0.90127462033E+02 -0.10572265417E+03  0.20447871581E+03  0.12508975744E+03 0.  0.
          5    1    3    3  502    0  0.26497462115E+02 -0.19859720696E+02  0.27748085664E+02  0.43404523528E+02  0.41800000000E+01 0.  1.
         -5    1    3    3    0  502  0.56350946354E+02 -0.70267741337E+02 -0.13347073984E+03  0.16107419228E+03  0.41800000000E+01 0.  1.
        -11    1    1    2    0    0 -0.59934413360E+02  0.10802686484E+03 -0.23542091282E+03  0.26586640184E+03  0.00000000000E+00 0. -1.
         11    1    1    2    0    0 -0.22913995109E+02 -0.17899402806E+02 -0.58802262036E+02  0.65598367459E+02  0.00000000000E+00 0.  1.
</event>
<event>
 7    1  0.2873461E-009  0.2122579E+03  0.7561462E-02  0.1139790E+00
         -2   -1    0    0    0  501 -0.00000000000E+00  0.00000000000E+00  0.14379647415E+04  0.14379647415E+04  0.00000000000E+00 0. -1.
          2   -1    0    0  501    0  0.00000000000E+00 -0.00000000000E+00 -0.36563010660E+02  0.36563010660E+02  0.00000000000E+00 0.  1.
         25    2    1    2    0    0 -0.19735962068E+03 -0.12704849457E+02  0.84966853161E+03  0.88130364887E+03  0.12508906756E+03 0.  0.
          5    1    3    3  502    0 -0.15655795982E+03  0.38358518182E+02  0.69269633743E+03  0.71121547999E+03  0.41800000000E+01 0.  1.
         -5    1    3    3    0  502 -0.40801660858E+02 -0.51063367639E+02  0.15697219418E+03  0.17008816887E+03  0.41800000000E+01 0.  1.
        -11    1    1    2    0    0  0.86345006995E+02  0.64888130238E+01  0.12376114547E+03  0.15104431819E+03  0.00000000000E+00 0.  1.
         11    1    1    2    0    0  0.11101461368E+03  0.62160364332E+01  0.42797205371E+03  0.44217978506E+03  0.00000000000E+00 0. -1.
</event>
<event>
 7    1  0.4205974E-009  0.9794630E+02  0.7561462E-02  0.1284675E+00
          1   -1    0    0  501    0  0.00000000000E+00  0.00000000000E+00  0.14997428670E+03  0.14997428670E+03  0.00000000000E+00 0. -1.
         -1   -1    0    0    0  501 -0.00000000000E+00 -0.00000000000E+00 -0.10463103080E+03  0.10463103080E+03  0.00000000000E+00 0.  1.
         25    2    1    2    0    0 -0.91911868705E+01  0.60931141100E+02  0.14795849434E+02  0.14022514471E+03  0.12508833750E+03 0.  0.
          5    1    3    3  502    0  0.66597465422E+01 -0.32868081759E+02 -0.19498298551E+02  0.39016907475E+02  0.41800000000E+01 0. -1.
         -5    1    3    3    0  502 -0.15850933413E+02  0.93799222859E+02  0.34294147985E+02  0.10120823724E+03  0.41800000000E+01 0. -1.
        -11    1    1    2    0    0 -0.71654663591E+01 -0.38232700650E+02 -0.29045755534E+02  0.48546258576E+02  0.00000000000E+00 0.  1.
         11    1    1    2    0    0  0.16356653230E+02 -0.22698440450E+02  0.59593161992E+02  0.65833914208E+02  0.00000000000E+00 0. -1.
</event>
<event>
 7    1  0.2873461E-009  0.7970684E+02  0.7561462E-02  0.1329885E+00
          1   -1    0    0  501    0  0.00000000000E+00  0.00000000000E+00  0.14767546018E+03  0.14767546018E+03  0.00000000000E+00 0. -1.
         -1   -1    0    0    0  501 -0.00000000000E+00 -0.00000000000E+00 -0.12358853426E+03  0.12358853426E+03  0.00000000000E+00 0.  1.
         25    2    1    2    0    0 -0.39425292574E+02 -0.50946679022E+02  0.67754249409E+02  0.15620900801E+03  0.12514271082E+03 0.  0.
          5    1    3    3  502    0 -0.40851039775E+02 -0.60027820105E+02 -0.13803847062E+02  0.74028138103E+02  0.41800000000E+01 0.  1.
         -5    1    3    3    0  502  0.14257472011E+01  0.90811410832E+01  0.81558096471E+02  0.82180869906E+02  0.41800000000E+01 0.  1.
        -11    1    1    2    0    0 -0.70655325659E+01  0.18743575380E+02  0.21084540538E+02  0.29082661814E+02  0.00000000000E+00 0. -1.
         11    1    1    2    0    0  0.46490825140E+02  0.32203103642E+02 -0.64751864019E+02  0.85972324618E+02  0.00000000000E+00 0.  1.
</event>
<event>
 7    1  0.2873461E-009  0.2659118E+03  0.7561462E-02  0.1103642E+00
          1   -1    0    0  501    0  0.00000000000E+00  0.00000000000E+00  0.66457428865E+02  0.66457428865E+02  0.00000000000E+00 0. -1.
         -1   -1    0    0    0  501 -0.00000000000E+00 -0.00000000000E+00 -0.16165314215E+04  0.16165314215E+04  0.00000000000E+00 0.  1.
         25    2    1    2    0    0 -0.99022527042E+02 -0.24509808495E+03 -0.11218907416E+04  0.11593810082E+04  0.12508778506E+03 0.  0.
          5    1    3    3  502    0 -0.88912941335E+02 -0.20637801901E+03 -0.69139108158E+03  0.72700515676E+03  0.41800000000E+01 0. -1.
         -5    1    3    3    0  502 -0.10109585707E+02 -0.38720065946E+02 -0.43049966001E+03  0.43237585143E+03  0.41800000000E+01 0. -1.
        -11    1    1    2    0    0  0.57774171758E+02  0.95167881772E+02 -0.65928491707E+02  0.12938835598E+03  0.00000000000E+00 0. -1.
         11    1    1    2    0    0  0.41248355284E+02  0.14993020318E+03 -0.36225475937E+03  0.39421948623E+03  0.00000000000E+00 0.  1.
</event>
<event>
 7    1  0.2873461E-009  0.1183297E+03  0.7561462E-02  0.1245878E+00
          1   -1    0    0  501    0  0.00000000000E+00  0.00000000000E+00  0.86437195864E+02  0.86437195864E+02  0.00000000000E+00 0.  1.
         -1   -1    0    0    0  501 -0.00000000000E+00 -0.00000000000E+00 -0.21669389670E+03  0.21669389670E+03  0.00000000000E+00 0. -1.
         25    2    1    2    0    0 -0.69686671864E+02 -0.35650990269E+02 -0.10347356057E+03  0.18021598979E+03  0.12507517697E+03 0.  0.
          5    1    3    3  502    0 -0.85987992693E+02 -0.65259154303E+00 -0.20344125342E+02  0.88463080429E+02  0.41800000000E+01 0.  1.
         -5    1    3    3    0  502  0.16301320829E+02 -0.34998398726E+02 -0.83129435229E+02  0.91752909357E+02  0.41800000000E+01 0.  1.
        -11    1    1    2    0    0  0.35589932022E+01 -0.23042037992E+02 -0.25410905646E+02  0.34486462173E+02  0.00000000000E+00 0. -1.
         11    1    1    2    0    0  0.66127678662E+02  0.58693028261E+02 -0.13722346207E+01  0.88428640607E+02  0.00000000000E+00 0.  1.
</event>
<event>
 7    1  0.2873461E-009  0.1519107E+03  0.7561462E-02  0.1198145E+00
         -1   -1    0    0    0  501 -0.00000000000E+00  0.00000000000E+00  0.57128876686E+02  0.57128876686E+02  0.00000000000E+00 0.  1.
          1   -1    0    0  501    0  0.00000000000E+00 -0.00000000000E+00 -0.62505564394E+03  0.62505564394E+03  0.00000000000E+00 0. -1.
         25    2    1    2    0    0  0.13666610424E+03  0.31000544073E+02 -0.19105788451E+03  0.26793196019E+03  0.12508302155E+03 0.  0.
          5    1    3    3  502    0  0.13196517200E+03  0.38491345630E+02 -0.85535900744E+02  0.16195756551E+03  0.41800000000E+01 0. -1.
         -5    1    3    3    0  502  0.47009322449E+01 -0.74908015579E+01 -0.10552198376E+03  0.10597439468E+03  0.41800000000E+01 0. -1.
        -11    1    1    2    0    0 -0.44650781411E+02 -0.45051897185E+02 -0.24341453241E+03  0.25154323745E+03  0.00000000000E+00 0. -1.
         11    1    1    2    0    0 -0.92015322832E+02  0.14051353112E+02 -0.13345435034E+03  0.16270932298E+03  0.00000000000E+00 0.  1.
</event>
<event>
 7    1  0.2873461E-009  0.2878412E+03  0.7561462E-02  0.1091482E+00
          2   -1    0    0  501    0  0.00000000000E+00  0.00000000000E+00  0.11128730289E+04  0.11128730289E+04  0.00000000000E+00 0.  1.
         -2   -1    0    0    0  501 -0.00000000000E+00 -0.00000000000E+00 -0.96547839537E+02  0.96547839537E+02  0.00000000000E+00 0. -1.
         25    2    1    2    0    0 -0.20357860572E+03 -0.18606159495E+03  0.77400462831E+03  0.83114348588E+03  0.12511260388E+03 0.  0.
          5    1    3    3  502    0 -0.15402619133E+03 -0.80445921820E+02  0.34189760429E+03  0.38354537955E+03  0.41800000000E+01 0.  1.
         -5    1    3    3    0  502 -0.49552414390E+02 -0.10561567313E+03  0.43210702402E+03  0.44759810633E+03  0.41800000000E+01 0.  1.
        -11    1    1    2    0    0  0.11502035676E+03  0.56390014397E+02  0.73372966967E+02  0.14762489111E+03  0.00000000000E+00 0. -1.
         11    1    1    2    0    0  0.88558248963E+02  0.12967158056E+03  0.16894759408E+03  0.23065249144E+03  0.00000000000E+00 0.  1.
</event>
<event>
 7    1  0.2873461E-009  0.1077786E+03  0.7561462E-02  0.1264740E+00
         -2   -1    0    0    0  501 -0.00000000000E+00  0.00000000000E+00  0.11062129028E+03  0.11062129028E+03  0.00000000000E+00 0.  1.
          2   -1    0    0  501    0  0.00000000000E+00 -0.00000000000E+00 -0.19361943656E+03  0.19361943656E+03  0.00000000000E+00 0. -1.
         25    2    1    2    0    0  0.34608394074E+02  0.17147451464E+02 -0.13834091912E+03  0.19046662733E+03  0.12509016824E+03 0.  0.
          5    1    3    3  502    0 -0.11681679421E+02 -0.46548202326E+02 -0.31033129100E+02  0.57303789365E+02  0.41800000000E+01 0.  1.
         -5    1    3    3    0  502  0.46290073494E+02  0.63695653790E+02 -0.10730779002E+03  0.13316283796E+03  0.41800000000E+01 0.  1.
        -11    1    1    2    0    0 -0.69735316189E+01  0.31674483673E+02  0.46929400950E+02  0.57046224526E+02  0.00000000000E+00 0.  1.
         11    1    1    2    0    0 -0.27634862455E+02 -0.48821935138E+02  0.84133718966E+01  0.56727874984E+02  0.00000000000E+00 0. -1.
</event>
<event>
 7    1  0.2873461E-009  0.1375953E+03  0.7561462E-02  0.1216602E+00
          2   -1    0    0  501    0  0.00000000000E+00  0.00000000000E+00  0.20792058572E+04  0.20792058572E+04  0.00000000000E+00 0. -1.
         -2   -1    0    0    0  501 -0.00000000000E+00 -0.00000000000E+00 -0.15833127837E+02  0.15833127837E+02  0.00000000000E+00 0.  1.
         25    2    1    2    0    0  0.88963613633E+01 -0.12284181222E+03  0.15421575839E+04  0.15521167466E+04  0.12508847081E+03 0.  0.
          5    1    3    3  502    0  0.14004575251E+01 -0.70386444973E+02  0.27679079922E+03  0.28563408734E+03  0.41800000000E+01 0.  1.
         -5    1    3    3    0  502  0.74959038382E+01 -0.52455367252E+02  0.12653667847E+04  0.12664826593E+04  0.41800000000E+01 0.  1.
        -11    1    1    2    0    0  0.37767007214E+02  0.78638722991E+02  0.32097252672E+03  0.33261653371E+03  0.00000000000E+00 0. -1.
         11    1    1    2    0    0 -0.46663368577E+02  0.44203089234E+02  0.20024261872E+03  0.21030570467E+03  0.00000000000E+00 0.  1.
</event>
<event>
 7    1  0.2873461E-009  0.1164643E+03  0.7561462E-02  0.1249047E+00
         -4   -1    0    0    0  501 -0.00000000000E+00  0.00000000000E+00  0.19491458927E+03  0.19491458927E+03  0.00000000000E+00 0.  1.
          4   -1    0    0  501    0  0.00000000000E+00 -0.00000000000E+00 -0.80456708293E+02  0.80456708293E+02  0.00000000000E+00 0. -1.
         25    2    1    2    0    0 -0.45683356922E+02  0.10635058269E+01  0.11380546710E+03  0.17516631859E+03  0.12507379695E+03 0.  0.
          5    1    3    3  502    0 -0.13761992975E+01 -0.58355627725E+02  0.43463328181E+02  0.72895860707E+02  0.41800000000E+01 0. -1.
         -5    1    3    3    0  502 -0.44307157625E+02  0.59419133552E+02  0.70342138915E+02  0.10227045788E+03  0.41800000000E+01 0. -1.
        -11    1    1    2    0    0  0.34489362476E+02  0.42761876547E+02  0.16428090494E+01  0.54961741525E+02  0.00000000000E+00 0.  1.
         11    1    1    2    0    0  0.11193994446E+02 -0.43825382374E+02 -0.99039516931E+00  0.45243237445E+02  0.00000000000E+00 0. -1.
</event>
<event>
 7    1  0.2873461E-009  0.1064591E+03  0.7561462E-02  0.1267271E+00
          3   -1    0    0  501    0  0.00000000000E+00  0.00000000000E+00  0.15403869616E+03  0.15403869616E+03  0.00000000000E+00 0. -1.
         -3   -1    0    0    0  501 -0.00000000000E+00 -0.00000000000E+00 -0.94063218455E+02  0.94063218455E+02  0.00000000000E+00 0.  1.
         25    2    1    2    0    0 -0.34775397337E+02 -0.21167147052E+02  0.65449165710E+02  0.14692638105E+03  0.12508553786E+03 0.  0.
          5    1    3    3  502    0 -0.67892263116E+02  0.15703078135E+02  0.67557268318E+02  0.97146296669E+02  0.41800000000E+01 0. -1.
         -5    1    3    3    0  502  0.33116865779E+02 -0.36870225187E+02 -0.21081026077E+01  0.49780084380E+02  0.41800000000E+01 0. -1.
        -11    1    1    2    0    0 -0.22776759299E+02  0.27232657674E+02 -0.21013034708E+02  0.41254648657E+02  0.00000000000E+00 0.  1.
         11    1    1    2    0    0  0.57552156636E+02 -0.60655106218E+01  0.15539346706E+02  0.59920884912E+02  0.00000000000E+00 0. -1.
</event>
<event>
 7    1  0.2873461E-009  0.9767739E+02  0.7561462E-02  0.1285257E+00
         -4   -1    0    0    0  501 -0.00000000000E+00  0.00000000000E+00  0.28964172228E+03  0.28964172228E+03  0.00000000000E+00 0. -1.
          4   -1    0    0  501    0  0.00000000000E+00 -0.00000000000E+00 -0.55889444526E+02  0.55889444526E+02  0.00000000000E+00 0.  1.
         25    2    1    2    0    0 -0.26113177198E+02 -0.59723300874E+02  0.11655928961E+03  0.18298200896E+03  0.12509027508E+03 0.  0.
          5    1    3    3  502    0 -0.51850978027E+02  0.40013289543E+01  0.99029793866E+02  0.11193260039E+03  0.41800000000E+01 0. -1.
         -5    1    3    3    0  502  0.25737800829E+02 -0.63724629829E+02  0.17529495742E+02  0.71049408578E+02  0.41800000000E+01 0. -1.
        -11    1    1    2    0    0  0.32623969477E+02  0.31446772744E+02  0.37650752799E+01  0.45468656152E+02  0.00000000000E+00 0.  1.
         11    1    1    2    0    0 -0.65107922783E+01  0.28276528130E+02  0.11342791287E+03  0.11708050170E+03  0.00000000000E+00 0. -1.
</event>
<event>
 7    1  0.2873461E-009  0.1336356E+03  0.7561462E-02  0.1222159E+00
          3   -1    0    0  501    0  0.00000000000E+00  0.00000000000E+00  0.44591447331E+02  0.44591447331E+02  0.00000000000E+00 0. -1.
         -3   -1    0    0    0  501 -0.00000000000E+00 -0.00000000000E+00 -0.56192044657E+03  0.56192044657E+03  0.00000000000E+00 0.  1.
         25    2    1    2    0    0  0.33332898655E+02  0.96664821586E+02 -0.17764071391E+03  0.24011822885E+03  0.12508145635E+03 0.  0.
          5    1    3    3  502    0 -0.38151600911E+02  0.26737516913E+02 -0.10940358570E+03  0.11898342922E+03  0.41800000000E+01 0.  1.
         -5    1    3    3    0  502  0.71484499566E+02  0.69927304672E+02 -0.68237128202E+02  0.12113479963E+03  0.41800000000E+01 0.  1.
        -11    1    1    2    0    0  0.12436262934E+02 -0.61355644214E+02 -0.26306193539E+03  0.27040850128E+03  0.00000000000E+00 0.  1.
         11    1    1    2    0    0 -0.45769161589E+02 -0.35309177372E+02 -0.76626349944E+02  0.95985163775E+02  0.00000000000E+00 0. -1.
</event>
<event>
 7    1  0.2873461E-009  0.7269429E+02  0.7561462E-02  0.1351163E+00
          1   -1    0    0  501    0  0.00000000000E+00  0.00000000000E+00  0.19871222088E+03  0.19871222088E+03  0.00000000000E+00 0. -1.
         -1   -1    0    0    0  501 -0.00000000000E+00 -0.00000000000E+00 -0.20652574991E+03  0.20652574991E+03  0.00000000000E+00 0.  1.
         25    2    1    2    0    0 -0.25842594450E+02 -0.29534011544E+02  0.16267554840E+03  0.20893268237E+03  0.12509769857E+03 0.  0.
          5    1    3    3  502    0 -0.26372348364E+02  0.27851845525E+01  0.17274601520E+03  0.17481966759E+03  0.41800000000E+01 0. -1.
         -5    1    3    3    0  502  0.52975391432E+00 -0.32319196096E+02 -0.10070466795E+02  0.34113014774E+02  0.41800000000E+01 0. -1.
        -11    1    1    2    0    0  0.46989565486E+02 -0.30680281341E+01 -0.13747063333E+03  0.14531210235E+03  0.00000000000E+00 0.  1.
         11    1    1    2    0    0 -0.21146971036E+02  0.32602039678E+02 -0.33018444100E+02  0.50993186073E+02  0.00000000000E+00 0. -1.
</event>
<event>
 7    1  0.2873461E-009  0.1027286E+03  0.7561462E-02  0.1274660E+00
          1   -1    0    0  501    0  0.00000000000E+00  0.00000000000E+00  0.50712171495E+03  0.50712171495E+03  0.00000000000E+00 0. -1.
         -1   -1    0    0    0  501 -0.00000000000E+00 -0.00000000000E+00 -0.35134420174E+02  0.35134420174E+02  0.00000000000E+00 0.  1.
         25    2    1    2    0    0  0.43752807228E+02  0.39663259786E+02  0.35835959666E+03  0.38413103599E+03  0.12509024732E+03 0.  0.
          5    1    3    3  502    0  0.66221482744E+02 -0.23295522170E+02  0.16012503111E+03  0.17488700385E+03  0.41800000000E+01 0. -1.
         -5    1    3    3    0  502 -0.22468675516E+02  0.62958781956E+02  0.19823456556E+03  0.20924403214E+03  0.41800000000E+01 0. -1.
        -11    1    1    2    0    0 -0.13511408415E+02  0.48372911587E+01 -0.13734618056E+02  0.19864472715E+02  0.00000000000E+00 0.  1.
         11    1    1    2    0    0 -0.30241398813E+02 -0.44500550945E+02  0.12736231617E+03  0.13826062641E+03  0.00000000000E+00 0. -1.
</event>
<event>
 7    1  0.2873461E-009  0.1264778E+03  0.7561462E-02  0.1232778E+00
         -1   -1    0    0    0  501 -0.00000000000E+00  0.00000000000E+00  0.38550524493E+03  0.38550524493E+03  0.00000000000E+00 0.  1.
          1   -1    0    0  501    0  0.00000000000E+00 -0.00000000000E+00 -0.55778535725E+02  0.55778535725E+02  0.00000000000E+00 0. -1.
         25    2    1    2    0    0 -0.37326192763E+02  0.88997035410E+02  0.14873943027E+03  0.21699263416E+03  0.12509463690E+03 0.  0.
          5    1    3    3  502    0  0.25779751225E+01  0.93057906262E+02  0.15006334779E+03  0.17664342791E+03  0.41800000000E+01 0. -1.
         -5    1    3    3    0  502 -0.39904167886E+02 -0.40608708526E+01 -0.13239175229E+01  0.40349206242E+02  0.41800000000E+01 0. -1.
        -11    1    1    2    0    0 -0.19845718835E+02 -0.10865155176E+02  0.84992933318E+02  0.87952844566E+02  0.00000000000E+00 0.  1.
         11    1    1    2    0    0  0.57171911599E+02 -0.78131880233E+02  0.95994345617E+02  0.13633830194E+03  0.00000000000E+00 0. -1.
</event>
<event>
 7    1  0.2873461E-009  0.1356939E+03  0.7561462E-02  0.1219243E+00
          2   -1    0    0  501    0  0.00000000000E+00  0.00000000000E+00  0.12740931305E+03  0.12740931305E+03  0.00000000000E+00 0. -1.
         -2   -1    0    0    0  501 -0.00000000000E+00 -0.00000000000E+00 -0.17399424590E+03  0.17399424590E+03  0.00000000000E+00 0.  1.
         25    2    1    2    0    0 -0.44122007015E+02 -0.89244572112E+02 -0.11174440110E+02  0.16026034427E+03  0.12508862730E+03 0.  0.
          5    1    3    3  502    0 -0.82222440747E+01  0.30317741228E+02 -0.15505233697E+02  0.35279674074E+02  0.41800000000E+01 0. -1.
         -5    1    3    3    0  502 -0.35899762941E+02 -0.11956231334E+03  0.43307935870E+01  0.12498067020E+03  0.41800000000E+01 0. -1.
        -11    1    1    2    0    0  0.24231639327E+01  0.67909096745E+02 -0.57816162860E+02  0.89220097691E+02  0.00000000000E+00 0.  1.
         11    1    1    2    0    0  0.41698843083E+02  0.21335475368E+02  0.22405670118E+02  0.51923116981E+02  0.00000000000E+00 0. -1.
</event>
<event>
 6    1  0.2873461E-009  0.9318252E+02  0.7561462E-02  0.1295323E+00
         -1   -1    0    0    0  501 -0.00000000000E+00  0.00000000000E+00  0.90064166967E+03  0.90064166967E+03  0.00000000000E+00 0.  1.
          1   -1    0    0  501    0  0.00000000000E+00 -0.00000000000E+00 -0.20549490347E+02  0.20549490347E+02  0.00000000000E+00 0. -1.
          5    1    1    2  502    0 -0.51524436825E+02  0.27433384200E+02  0.59698494296E+03  0.59984652427E+03  0.41800000000E+01 0. -1.
         -5    1    1    2    0  502 -0.11228006704E+02  0.14185470111E+02  0.44809757235E+01  0.19100974851E+02  0.41800000000E+01 0. -1.
        -11    1    1    2    0    0 -0.10102222241E+02 -0.34644470415E+02  0.46545510105E+02  0.58896338897E+02  0.00000000000E+00 0.  1.
         11    1    1    2    0    0  0.72854665769E+02 -0.69743838962E+01  0.23208075054E+03  0.24334732200E+03  0.00000000000E+00 0. -1.
</event>
<event>
 7    1  0.2873461E-009  0.1497024E+03  0.7561462E-02  0.1200839E+00
          2   -1    0    0  501    0  0.00000000000E+00  0.00000000000E+00  0.30206469173E+03  0.30206469173E+03  0.00000000000E+00 0. -1.
         -2   -1    0    0    0  501 -0.00000000000E+00 -0.00000000000E+00 -0.89944719317E+02  0.89944719317E+02  0.00000000000E+00 0.  1.
         25    2    1    2    0    0  0.26564316591E+02 -0.12132391699E+03  0.14635878124E+03  0.22911243285E+03  0.12508580372E+03 0.  0.
          5    1    3    3  502    0 -0.47066055809E+02 -0.23715185758E+02  0.32954300798E+02  0.62298330524E+02  0.41800000000E+01 0. -1.
         -5    1    3    3    0  502  0.73630372400E+02 -0.97608731230E+02  0.11340448044E+03  0.16681410233E+03  0.41800000000E+01 0. -1.
        -11    1    1    2    0    0 -0.14391492196E+02  0.66921466811E+02  0.80070883968E+02  0.10534203447E+03  0.00000000000E+00 0. -1.
         11    1    1    2    0    0 -0.12172824395E+02  0.54402450177E+02 -0.14309692790E+02  0.57554943721E+02  0.00000000000E+00 0.  1.
</event>
<event>
 7    1  0.2873461E-009  0.8765293E+02  0.7561462E-02  0.1308637E+00
         -1   -1    0    0    0  501 -0.00000000000E+00  0.00000000000E+00  0.72392732778E+02  0.72392732778E+02  0.00000000000E+00 0.  1.
          1   -1    0    0  501    0  0.00000000000E+00 -0.00000000000E+00 -0.25357094100E+03  0.25357094100E+03  0.00000000000E+00 0. -1.
         25    2    1    2    0    0  0.57680154950E+02  0.11954105233E+02 -0.16766191865E+03  0.21732174097E+03  0.12509324213E+03 0.  0.
          5    1    3    3  502    0 -0.27085070706E+01 -0.22088361831E+01 -0.15345429177E+03  0.15355099163E+03  0.41800000000E+01 0.  1.
         -5    1    3    3    0  502  0.60388662020E+02  0.14162941416E+02 -0.14207626883E+02  0.63770749343E+02  0.41800000000E+01 0.  1.
        -11    1    1    2    0    0 -0.76391553172E+02 -0.29642011535E+02 -0.81976052456E+01  0.82349978601E+02  0.00000000000E+00 0. -1.
         11    1    1    2    0    0  0.18711398222E+02  0.17687906302E+02 -0.53186843202E+01  0.26291954200E+02  0.00000000000E+00 0.  1.
</event>
<event>
 7    1  0.2873461E-009  0.1442500E+03  0.7561462E-02  0.1207722E+00
         -2   -1    0    0    0  501 -0.00000000000E+00  0.00000000000E+00  0.53633310966E+02  0.53633310966E+02  0.00000000000E+00 0. -1.
          2   -1    0    0  501    0  0.00000000000E+00 -0.00000000000E+00 -0.45040954872E+03  0.45040954872E+03  0.00000000000E+00 0.  1.
         25    2    1    2    0    0  0.11075652703E+03  0.41977315033E+01 -0.20697026892E+03  0.26602276840E+03  0.12508713707E+03 0.  0.
          5    1    3    3  502    0  0.18521423014E+02  0.56702899154E+02 -0.60201559720E+02  0.84852590271E+02  0.41800000000E+01 0. -1.
         -5    1    3    3    0  502  0.92235104011E+02 -0.52505167651E+02 -0.14676870920E+03  0.18117017813E+03  0.41800000000E+01 0. -1.
        -11    1    1    2    0    0 -0.51727356154E+02 -0.28024617595E+02 -0.15429064634E+03  0.16512632169E+03  0.00000000000E+00 0.  1.
         11    1    1    2    0    0 -0.59029170872E+02  0.23826886091E+02 -0.35515322491E+02  0.72893769599E+02  0.00000000000E+00 0. -1.
</event>
<event>
 7    1  0.2873461E-009  0.2044443E+03  0.7561462E-02  0.1146043E+00
          2   -1    0    0  501    0  0.00000000000E+00  0.00000000000E+00  0.14369347372E+03  0.14369347372E+03  0.00000000000E+00 0. -1.
         -2   -1    0    0    0  501 -0.00000000000E+00 -0.00000000000E+00 -0.36429678525E+03  0.36429678525E+03  0.00000000000E+00 0.  1.
         25    2    1    2    0    0 -0.15705314432E+03  0.11205512372E+03 -0.17786355376E+03  0.29069796272E+03  0.12509125022E+03 0.  0.
          5    1    3    3  502    0 -0.13755249021E+03  0.83171464889E+02 -0.19407647339E+03  0.25203438269E+03  0.41800000000E+01 0. -1.
         -5    1    3    3    0  502 -0.19500654113E+02  0.28883658829E+02  0.16212919627E+02  0.38663580033E+02  0.41800000000E+01 0. -1.
        -11    1    1    2    0    0  0.95866478584E+02 -0.11740361547E+03 -0.32663588138E+02  0.15505128387E+03  0.00000000000E+00 0.  1.
         11    1    1    2    0    0  0.61186665735E+02  0.53484917480E+01 -0.10076169628E+02  0.62241012380E+02  0.00000000000E+00 0. -1.
</event>
<event>
 7    1  0.2873461E-009  0.1172889E+03  0.7561462E-02  0.1247638E+00
         -1   -1    0    0    0  501 -0.00000000000E+00  0.00000000000E+00  0.13417422622E+02  0.13417422622E+02  0.00000000000E+00 0.  1.
          1   -1    0    0  501    0  0.00000000000E+00 -0.00000000000E+00 -0.11676791829E+04  0.11676791829E+04  0.00000000000E+00 0. -1.
         25    2    1    2    0    0 -0.36269933693E+02  0.73842245364E+02 -0.70944331686E+03  0.72506826040E+03  0.12508388032E+03 0.  0.
          5    1    3    3  502    0  0.12457025840E+02  0.90787783863E+02 -0.34583199472E+03  0.35779161556E+03  0.41800000000E+01 0.  1.
         -5    1    3    3    0  502 -0.48726959533E+02 -0.16945538498E+02 -0.36361132214E+03  0.36727664484E+03  0.41800000000E+01 0.  1.
        -11    1    1    2    0    0 -0.84483278565E+01 -0.14485782362E+02 -0.28007409829E+02  0.32643944914E+02  0.00000000000E+00 0.  1.
         11    1    1    2    0    0  0.44718261549E+02 -0.59356463003E+02 -0.41681103359E+03  0.42338440021E+03  0.00000000000E+00 0. -1.
</event>
<event>
 7    1  0.2873461E-009  0.1121784E+03  0.7561462E-02  0.1256588E+00
          1   -1    0    0  501    0  0.00000000000E+00  0.00000000000E+00  0.17346346400E+04  0.17346346400E+04  0.00000000000E+00 0. -1.
         -1   -1    0    0    0  501 -0.00000000000E+00 -0.00000000000E+00 -0.10588095558E+02  0.10588095558E+02  0.00000000000E+00 0.  1.
         25    2    1    2    0    0 -0.41835008077E+02 -0.14712494018E+02  0.13885015962E+04  0.13948299636E+04  0.12508924491E+03 0.  0.
          5    1    3    3  502    0 -0.19376348356E+00  0.52799010413E+02  0.50855892355E+03  0.51130951895E+03  0.41800000000E+01 0.  1.
         -5    1    3    3    0  502 -0.41641244593E+02 -0.67511504431E+02  0.87994267265E+03  0.88352044460E+03  0.41800000000E+01 0.  1.
        -11    1    1    2    0    0 -0.53475026231E+01  0.38674785389E+02  0.21822689478E+03  0.22169193132E+03  0.00000000000E+00 0. -1.
         11    1    1    2    0    0  0.47182510700E+02 -0.23962291371E+02  0.11731805346E+03  0.12870084068E+03  0.00000000000E+00 0.  1.
</event>
<event>
 7    1  0.2873461E-009  0.7703875E+02  0.7561462E-02  0.1337671E+00
         -1   -1    0    0    0  501 -0.00000000000E+00  0.00000000000E+00  0.45819738777E+02  0.45819738777E+02  0.00000000000E+00 0.  1.
          1   -1    0    0  501    0  0.00000000000E+00 -0.00000000000E+00 -0.27078193144E+03  0.27078193144E+03  0.00000000000E+00 0. -1.
         25    2    1    2    0    0  0.39038634867E+01 -0.38101951200E+01 -0.16865616314E+03  0.21005593496E+03  0.12509531051E+03 0.  0.
          5    1    3    3  502    0  0.10293649346E+02  0.36211695263E+02 -0.16483770914E+03  0.16913364197E+03  0.41800000000E+01 0. -1.
         -5    1    3    3    0  502 -0.63897858597E+01 -0.40021890383E+02 -0.38184539979E+01  0.40922292996E+02  0.41800000000E+01 0. -1.
        -11    1    1    2    0    0  0.17283429094E+02 -0.30543364003E+02 -0.56112821532E+02  0.66183553441E+02  0.00000000000E+00 0. -1.
         11    1    1    2    0    0 -0.21187292581E+02  0.34353559123E+02 -0.19320799371E+00  0.40362181812E+02  0.00000000000E+00 0.  1.
</event>
<event>
 7    1  0.2873461E-009  0.9889753E+02  0.7561462E-02  0.1282632E+00
          1   -1    0    0  501    0  0.00000000000E+00  0.00000000000E+00  0.90537371752E+02  0.90537371752E+02  0.00000000000E+00 0. -1.
         -1   -1    0    0    0  501 -0.00000000000E+00 -0.00000000000E+00 -0.35981978727E+03  0.35981978727E+03  0.00000000000E+00 0.  1.
         25    2    1    2    0    0 -0.54395799922E+02 -0.55579111590E+02  0.16460931298E+02  0.14821236961E+03  0.12509198037E+03 0.  0.
          5    1    3    3  502    0  0.75140715578E+01  0.92722900931E+01  0.50620824177E+02  0.52176401518E+02  0.41800000000E+01 0.  1.
         -5    1    3    3    0  502 -0.61909871480E+02 -0.64851401683E+02 -0.34159892879E+02  0.96035968097E+02  0.41800000000E+01 0.  1.
        -11    1    1    2    0    0  0.23819726941E+02  0.59948695420E+02 -0.15673708813E+03  0.16949259651E+03  0.00000000000E+00 0.  1.
         11    1    1    2    0    0  0.30576072981E+02 -0.43695838304E+01 -0.12900625869E+03  0.13265219290E+03  0.00000000000E+00 0. -1.
</event>
<event>
 7    1  0.4651328E-009  0.9115610E+02  0.7561462E-02  0.1300076E+00
          2   -1    0    0  501    0  0.00000000000E+00  0.00000000000E+00  0.17760218471E+03  0.17760218471E+03  0.00000000000E+00 0. -1.
         -2   -1    0    0    0  501 -0.00000000000E+00 -0.00000000000E+00 -0.95508732347E+02  0.95508732347E+02  0.00000000000E+00 0.  1.
         25    2    1    2    0    0  0.11960156797E+02  0.58517774495E+02  0.87163817728E+02  0.16374873867E+03  0.12509493600E+03 0.  0.
          5    1    3    3  502    0  0.54139522086E+02  0.49068482554E+02  0.82172376688E+01  0.73646447482E+02  0.41800000000E+01 0.  1.
         -5    1    3    3    0  502 -0.42179365289E+02  0.94492919411E+01  0.78946580059E+02  0.90102291188E+02  0.41800000000E+01 0.  1.
        -11    1    1    2    0    0 -0.12377729332E+02 -0.70797772776E+01 -0.43095813830E+02  0.45393618488E+02  0.00000000000E+00 0.  1.
         11    1    1    2    0    0  0.41757253500E+00 -0.51437997217E+02  0.38025448465E+02  0.63968559899E+02  0.00000000000E+00 0. -1.
</event>
<event>
 7    1  0.2873461E-009  0.1389003E+03  0.7561462E-02  0.1214816E+00
          1   -1    0    0  501    0  0.00000000000E+00  0.00000000000E+00  0.30948643011E+03  0.30948643011E+03  0.00000000000E+00 0. -1.
         -1   -1    0    0    0  501 -0.00000000000E+00 -0.00000000000E+00 -0.67080152836E+02  0.67080152836E+02  0.00000000000E+00 0.  1.
         25    2    1    2    0    0 -0.84921064673E+02  0.28493165939E+02  0.16093201094E+03  0.22264324410E+03  0.12508978482E+03 0.  0.
          5    1    3    3  502    0 -0.11454407594E+03  0.29554346694E+02  0.10080499817E+03  0.15547644451E+03  0.41800000000E+01 0.  1.
         -5    1    3    3    0  502  0.29623011272E+02 -0.10611807544E+01  0.60127012777E+02  0.67166799588E+02  0.41800000000E+01 0.  1.
        -11    1    1    2    0    0  0.65696669441E+02  0.26802710593E+02  0.54481663210E+02  0.89457751464E+02  0.00000000000E+00 0.  1.
         11    1    1    2    0    0  0.19224395232E+02 -0.55295876532E+02  0.26992603119E+02  0.64465587383E+02  0.00000000000E+00 0. -1.
</event>
<event>
 7    1  0.2873461E-009  0.1256846E+03  0.7561462E-02  0.1234003E+00
          1   -1    0    0  501    0  0.00000000000E+00  0.00000000000E+00  0.51534983055E+03  0.51534983055E+03  0.00000000000E+00 0. -1.
         -1   -1    0    0    0  501 -0.00000000000E+00 -0.00000000000E+00 -0.41259850978E+02  0.41259850978E+02  0.00000000000E+00 0.  1.
         25    2    1    2    0    0 -0.46186243220E+02  0.61372780796E+02  0.36224366416E+03  0.39085434137E+03  0.12508739609E+03 0.  0.
          5    1    3    3  502    0 -0.52612402450E+02 -0.12935270768E+02  0.25127775171E+03  0.25708630268E+03  0.41800000000E+01 0.  1.
         -5    1    3    3    0  502  0.64261592294E+01  0.74308051564E+02  0.11096591245E+03  0.13376803869E+03  0.41800000000E+01 0.  1.
        -11    1    1    2    0    0  0.25865015477E+02  0.23565892111E+02  0.31251930411E+02  0.46915172930E+02  0.00000000000E+00 0. -1.
         11    1    1    2    0    0  0.20321227743E+02 -0.84938672907E+02  0.80594384999E+02  0.11884016722E+03  0.00000000000E+00 0.  1.
</event>
<event>
 7    1  0.2873461E-009  0.7779766E+02  0.7561462E-02  0.1335420E+00
         -1   -1    0    0    0  501 -0.00000000000E+00  0.00000000000E+00  0.51243357452E+02  0.51243357452E+02  0.00000000000E+00 0.  1.
          1   -1    0    0  501    0  0.00000000000E+00 -0.00000000000E+00 -0.23182493916E+03  0.23182493916E+03  0.00000000000E+00 0. -1.
         25    2    1    2    0    0  0.18815500018E+02 -0.10152181188E+02 -0.10921472041E+03  0.16742697145E+03  0.12508735265E+03 0.  0.
          5    1    3    3  502    0 -0.36537505352E+02  0.15086252275E+02  0.28437045355E+01  0.39851516415E+02  0.41800000000E+01 0.  1.
         -5    1    3    3    0  502  0.55353005370E+02 -0.25238433464E+02 -0.11205842494E+03  0.12757545504E+03  0.41800000000E+01 0.  1.
        -11    1    1    2    0    0  0.17201313708E+02 -0.80457267113E+00  0.14096261748E+02  0.22253923828E+02  0.00000000000E+00 0.  1.
         11    1    1    2    0    0 -0.36016813726E+02  0.10956753860E+02 -0.85463123049E+02  0.93387401331E+02  0.00000000000E+00 0. -1.
</event>
<event>
 7    1  0.2873461E-009  0.7603573E+02  0.7561462E-02  0.1340693E+00
          2   -1    0    0  501    0  0.00000000000E+00  0.00000000000E+00  0.33950776903E+03  0.33950776903E+03  0.00000000000E+00 0. -1.
         -2   -1    0    0    0  501 -0.00000000000E+00 -0.00000000000E+00 -0.55762807043E+02  0.55762807043E+02  0.00000000000E+00 0.  1.
         25    2    1    2    0    0  0.83235981526E+01 -0.17459143194E+02  0.27482116511E+03  0.30256907342E+03  0.12508903802E+03 0.  0.
          5    1    3    3  502    0 -0.27209615163E+02  0.16016770816E+02  0.10189213372E+02  0.33439386565E+02  0.41800000000E+01 0.  1.
         -5    1    3    3    0  502  0.35533213316E+02 -0.33475914010E+02  0.26463195174E+03  0.26912968686E+03  0.41800000000E+01 0.  1.
        -11    1    1    2    0    0 -0.97116323963E+01 -0.25994445697E+02  0.32910257906E+02  0.43047788402E+02  0.00000000000E+00 0. -1.
         11    1    1    2    0    0  0.13880342438E+01  0.43453588891E+02 -0.23986461025E+02  0.49653714253E+02  0.00000000000E+00 0.  1.
</event>
<event>
 7    1  0.2873461E-009  0.8796346E+02  0.7561462E-02  0.1307860E+00
         -2   -1    0    0    0  501 -0.00000000000E+00  0.00000000000E+00  0.26093143294E+02  0.26093143294E+02  0.00000000000E+00 0. -1.
          2   -1    0    0  501    0  0.00000000000E+00 -0.00000000000E+00 -0.75395770551E+03  0.75395770551E+03  0.00000000000E+00 0.  1.
         25    2    1    2    0    0 -0.34434245111E+02 -0.46962173324E+02 -0.58240078915E+03  0.59852195079E+03  0.12508670357E+03 0.  0.
          5    1    3    3  502    0 -0.15950142446E+02 -0.48081472786E+02 -0.74051565553E+02  0.89818382474E+02  0.41800000000E+01 0.  1.
         -5    1    3    3    0  502 -0.18484102665E+02  0.11192994624E+01 -0.50834922360E+03  0.50870356831E+03  0.41800000000E+01 0.  1.
        -11    1    1    2    0    0 -0.12047829414E+02  0.57251632721E+02 -0.60663886916E+02  0.84279338028E+02  0.00000000000E+00 0.  1.
         11    1    1    2    0    0  0.46482074525E+02 -0.10289459397E+02 -0.84799886146E+02  0.97249559985E+02  0.00000000000E+00 0. -1.
</event>
<event>
 7    1  0.2873461E-009  0.1316426E+03  0.7561462E-02  0.1225039E+00
          4   -1    0    0  501    0  0.00000000000E+00  0.00000000000E+00  0.14457092835E+03  0.14457092835E+03  0.00000000000E+00 0. -1.
         -4   -1    0    0    0  501 -0.00000000000E+00 -0.00000000000E+00 -0.21474059400E+03  0.21474059400E+03  0.00000000000E+00 0.  1.
         25    2    1    2    0    0  0.73902443818E+02 -0.91671754677E+02  0.37132126734E+02  0.17576245105E+03  0.12509341532E+03 0.  0.
          5    1    3    3  502    0  0.74954305526E+02 -0.50608736979E+02  0.76638101427E+02  0.11861814012E+03  0.41800000000E+01 0. -1.
         -5    1    3    3    0  502 -0.10518617080E+01 -0.41063017699E+02 -0.39505974693E+02  0.57144310933E+02  0.41800000000E+01 0. -1.
        -11    1    1    2    0    0 -0.56197231706E+02  0.23305038952E+02 -0.93562595668E+02  0.11160292559E+03  0.00000000000E+00 0.  1.
         11    1    1    2    0    0 -0.17705212112E+02  0.68366715725E+02 -0.13739196713E+02  0.71946145701E+02  0.00000000000E+00 0. -1.
</event>
<event>
 7    1  0.2873461E-009  0.1895070E+03  0.7561462E-02  0.1158907E+00
          1   -1    0    0  501    0  0.00000000000E+00  0.00000000000E+00  0.79638863807E+03  0.79638863807E+03  0.00000000000E+00 0. -1.
         -1   -1    0    0    0  501 -0.00000000000E+00 -0.00000000000E+00 -0.56594114092E+02  0.56594114092E+02  0.00000000000E+00 0.  1.
         25    2    1    2    0    0 -0.17024831613E+03  0.36641592151E+01  0.25226676631E+03  0.32906527606E+03  0.12509004483E+03 0.  0.
          5    1    3    3  502    0 -0.16285660707E+02  0.40156445788E+02  0.10161718886E+03  0.11054993603E+03  0.41800000000E+01 0.  1.
         -5    1    3    3    0  502 -0.15396265543E+03 -0.36492286573E+02  0.15064957744E+03  0.21851534003E+03  0.41800000000E+01 0.  1.
        -11    1    1    2    0    0  0.12117885774E+03 -0.24930201278E+02  0.41963025585E+03  0.43748757940E+03  0.00000000000E+00 0.  1.
         11    1    1    2    0    0  0.49069458390E+02  0.21266042062E+02  0.67897501817E+02  0.86429896706E+02  0.00000000000E+00 0. -1.
</event>
<event>
 6    1  0.2873461E-009  0.9112057E+02  0.7561462E-02  0.1300161E+00
          4   -1    0    0  501    0  0.00000000000E+00  0.00000000000E+00  0.26674607706E+02  0.26674607706E+02  0.00000000000E+00 0. -1.
         -4   -1    0    0    0  501 -0.00000000000E+00 -0.00000000000E+00 -0.55450057980E+03  0.55450057980E+03  0.00000000000E+00 0.  1.
          5    1    1    2  502    0  0.45695279425E+02 -0.74596258508E+01 -0.14005060224E+02  0.48552226432E+02  0.41800000000E+01 0. -1.
         -5    1    1    2    0  502 -0.49097341553E+02 -0.47320997803E+01 -0.15117940311E+03  0.15907742153E+03  0.41800000000E+01 0. -1.
        -11    1    1    2    0    0 -0.40885092852E+02  0.88936944256E+01 -0.22685235039E+03  0.23067873222E+03  0.00000000000E+00 0.  1.
         11    1    1    2    0    0  0.44287154980E+02  0.32980312056E+01 -0.13578915837E+03  0.14286680733E+03  0.00000000000E+00 0. -1.
</event>
<event>
 7    1  0.2873461E-009  0.1372235E+03  0.7561462E-02  0.1217115E+00
         -2   -1    0    0    0  501 -0.00000000000E+00  0.00000000000E+00  0.26889772870E+03  0.26889772870E+03  0.00000000000E+00 0.  1.
          2   -1    0    0  501    0  0.00000000000E+00 -0.00000000000E+00 -0.77291734505E+02  0.77291734505E+02  0.00000000000E+00 0. -1.
         25    2    1    2    0    0  0.92389156976E+02 -0.21609639294E+02  0.11117426578E+03  0.19237945139E+03  0.12508958033E+03 0.  0.
          5    1    3    3  502    0  0.11627709055E+03 -0.14482335838E+01  0.11104163141E+03  0.16084208240E+03  0.41800000000E+01 0. -1.
         -5    1    3    3    0  502 -0.23887933570E+02 -0.20161405710E+02  0.13263436762E+00  0.31537368982E+02  0.41800000000E+01 0. -1.
        -11    1    1    2    0    0  0.98206763732E+01  0.22267266809E+02  0.33324604212E+02  0.41265071204E+02  0.00000000000E+00 0.  1.
         11    1    1    2    0    0 -0.10220983335E+03 -0.65762751554E+00  0.47107124211E+02  0.11254494062E+03  0.00000000000E+00 0. -1.
</event>
<event>
 7    1  0.2873461E-009  0.1235851E+03  0.7561462E-02  0.1237297E+00
         -2   -1    0    0    0  501 -0.00000000000E+00  0.00000000000E+00  0.24916399717E+02  0.24916399717E+02  0.00000000000E+00 0.  1.
          2   -1    0    0  501    0  0.00000000000E+00 -0.00000000000E+00 -0.67176868883E+03  0.67176868883E+03  0.00000000000E+00 0. -1.
         25    2    1    2    0    0  0.55597588510E+02  0.35602371539E+02 -0.29424368381E+03  0.32647315135E+03  0.12508697927E+03 0.  0.
          5    1    3    3  502    0  0.21603573632E+02 -0.46494721782E+02 -0.12749823119E+03  0.13748361686E+03  0.41800000000E+01 0.  1.
         -5    1    3    3    0  502  0.33994014878E+02  0.82097093320E+02 -0.16674545262E+03  0.18898953449E+03  0.41800000000E+01 0.  1.
        -11    1    1    2    0    0 -0.70254529875E+02 -0.50000339830E+02 -0.32200635530E+03  0.33335240483E+03  0.00000000000E+00 0. -1.
         11    1    1    2    0    0  0.14656941365E+02  0.14397968291E+02 -0.30602249998E+02  0.36859532363E+02  0.00000000000E+00 0.  1.
</event>
<event>
 7    1  0.2873461E-009  0.1068840E+03  0.7561462E-02  0.1266451E+00
         -2   -1    0    0    0  501 -0.00000000000E+00  0.00000000000E+00  0.71663944839E+01  0.71663944839E+01  0.00000000000E+00 0.  1.
          2   -1    0    0  501    0  0.00000000000E+00 -0.00000000000E+00 -0.29189757546E+04  0.29189757546E+04  0.00000000000E+00 0. -1.
         25    2    1    2    0    0  0.32817864941E+02  0.58527554165E+01 -0.24656038445E+04  0.24689999659E+04  0.12508895503E+03 0.  0.
          5    1    3    3  502    0  0.29999507194E+02  0.59027272258E+02 -0.18131660809E+04  0.18143794803E+04  0.41800000000E+01 0.  1.
         -5    1    3    3    0  502  0.28183577476E+01 -0.53174516841E+02 -0.65243776360E+03  0.65462048559E+03  0.41800000000E+01 0.  1.
        -11    1    1    2    0    0  0.29529597814E+02 -0.10856795880E+02 -0.86611595797E+02  0.92148986377E+02  0.00000000000E+00 0.  1.
         11    1    1    2    0    0 -0.62347462755E+02  0.50040404630E+01 -0.35959391981E+03  0.36499319678E+03  0.00000000000E+00 0. -1.
</event>
<event>
 7    1  0.3430541E-009  0.7540063E+02  0.7561462E-02  0.1342635E+00
          2   -1    0    0  501    0  0.00000000000E+00  0.00000000000E+00  0.37334454999E+03  0.37334454999E+03  0.00000000000E+00 0. -1.
         -2   -1    0    0    0  501 -0.00000000000E+00 -0.00000000000E+00 -0.37682658455E+02  0.37682658455E+02  0.00000000000E+00 0.  1.
         25    2    1    2    0    0  0.12250905475E+02  0.32486436431E+02  0.24808686736E+03  0.27999803393E+03  0.12508537890E+03 0.  0.
          5    1    3    3  502    0 -0.22865741151E+01 -0.27044776187E+02  0.33426903065E+01  0.27663953417E+02  0.41800000000E+01 0. -1.
         -5    1    3    3    0  502  0.14537479590E+02  0.59531212618E+02  0.24474417705E+03  0.25233408052E+03  0.41800000000E+01 0. -1.
        -11    1    1    2    0    0 -0.98390284919E+01  0.13035159127E+02 -0.12824699965E+02  0.20765230177E+02  0.00000000000E+00 0.  1.
         11    1    1    2    0    0 -0.24118769831E+01 -0.45521595558E+02  0.10039972414E+03  0.11026394434E+03  0.00000000000E+00 0. -1.
</event>
<event>
 7    1  0.2873461E-009  0.9738188E+02  0.7561462E-02  0.1285900E+00
          2   -1    0    0  501    0  0.00000000000E+00  0.00000000000E+00  0.50562926884E+03  0.50562926884E+03  0.00000000000E+00 0. -1.
         -2   -1    0    0    0  501 -0.00000000000E+00 -0.00000000000E+00 -0.23521371533E+02  0.23521371533E+02  0.00000000000E+00 0.  1.
         25    2    1    2    0    0  0.18456012409E+02  0.15066005174E+02  0.28670459827E+03  0.31373228150E+03  0.12514315356E+03 0.  0.
          5    1    3    3  502    0 -0.18691492486E+02  0.57141536241E+02  0.84157699355E+02  0.10351095505E+03  0.41800000000E+01 0. -1.
         -5    1    3    3    0  502  0.37147504895E+02 -0.42075531067E+02  0.20254689891E+03  0.21022132645E+03  0.41800000000E+01 0. -1.
        -11    1    1    2    0    0  0.18355689862E+02 -0.32621586083E+02  0.14904682084E+03  0.15367515750E+03  0.00000000000E+00 0. -1.
         11    1    1    2    0    0 -0.36811702271E+02  0.17555580909E+02  0.46356478198E+02  0.61743201375E+02  0.00000000000E+00 0.  1.
</event>
<event>
 7    1  0.2873461E-009  0.1906914E+03  0.7561462E-02  0.1157839E+00
         -4   -1    0    0    0  501 -0.00000000000E+00  0.00000000000E+00  0.40631641016E+02  0.40631641016E+02  0.00000000000E+00 0.  1.
          4   -1    0    0  501    0  0.00000000000E+00 -0.00000000000E+00 -0.12021337739E+04  0.12021337739E+04  0.00000000000E+00 0. -1.
         25    2    1    2    0    0 -0.88510978281E+02 -0.16052884605E+03 -0.74104203361E+03  0.77355930452E+03  0.12508796241E+03 0.  0.
          5    1    3    3  502    0 -0.66181186467E+02 -0.44732926076E+02 -0.48602933649E+03  0.49256773386E+03  0.41800000000E+01 0.  1.
         -5    1    3    3    0  502 -0.22329791815E+02 -0.11579591997E+03 -0.25501269712E+03  0.28099157066E+03  0.41800000000E+01 0.  1.
        -11    1    1    2    0    0  0.40212607507E+02  0.67523801774E+02 -0.76656605807E+02  0.10978503005E+03  0.00000000000E+00 0. -1.
         11    1    1    2    0    0  0.48298370774E+02  0.93005044275E+02 -0.34380349343E+03  0.35942108031E+03  0.00000000000E+00 0.  1.
</event>
<event>
 7    1  0.2873461E-009  0.1342771E+03  0.7561462E-02  0.1221244E+00
          1   -1    0    0  501    0  0.00000000000E+00  0.00000000000E+00  0.67609455036E+03  0.67609455036E+03  0.00000000000E+00 0. -1.
         -1   -1    0    0    0  501 -0.00000000000E+00 -0.00000000000E+00 -0.37953620406E+02  0.37953620406E+02  0.00000000000E+00 0.  1.
         25    2    1    2    0    0 -0.11329513211E+03 -0.22644760187E+02  0.28594801160E+03  0.33280978905E+03  0.12509004049E+03 0.  0.
          5    1    3    3  502    0 -0.10516158657E+03  0.19134829959E+02  0.11698686751E+03  0.15851971669E+03  0.41800000000E+01 0.  1.
         -5    1    3    3    0  502 -0.81335455377E+01 -0.41779590146E+02  0.16896114408E+03  0.17429007236E+03  0.41800000000E+01 0.  1.
        -11    1    1    2    0    0  0.27948769488E+02  0.18202689985E+02  0.21504459521E+02  0.39685178819E+02  0.00000000000E+00 0.  1.
         11    1    1    2    0    0  0.85346362619E+02  0.44420702022E+01  0.33068845883E+03  0.34155320289E+03  0.00000000000E+00 0. -1.
</event>
<event>
 7    1  0.2873461E-009  0.3340596E+03  0.7561462E-02  0.1069355E+00
         -1   -1    0    0    0  501 -0.00000000000E+00  0.00000000000E+00  0.37221829289E+03  0.37221829289E+03  0.00000000000E+00 0.  1.
          1   -1    0    0  501    0  0.00000000000E+00 -0.00000000000E+00 -0.33988242748E+03  0.33988242748E+03  0.00000000000E+00 0. -1.
         25    2    1    2    0    0 -0.30680484077E+03  0.10250279604E+03 -0.77847010061E+02  0.35544830948E+03  0.12508920905E+03 0.  0.
          5    1    3    3  502    0 -0.30622150629E+03  0.72997802946E+02 -0.59365198399E+02  0.32037788520E+03  0.41800000000E+01 0. -1.
         -5    1    3    3    0  502 -0.58333448566E+00  0.29504993096E+02 -0.18481811662E+02  0.35070424278E+02  0.41800000000E+01 0. -1.
        -11    1    1    2    0    0  0.12011844945E+03 -0.38878385135E+02 -0.83749548227E+01  0.12653106574E+03  0.00000000000E+00 0.  1.
         11    1    1    2    0    0  0.18668639132E+03 -0.63624410907E+02  0.11855783029E+03  0.23012134515E+03  0.00000000000E+00 0. -1.
</event>
<event>
 7    1  0.2873461E-009  0.1411745E+03  0.7561462E-02  0.1211757E+00
         -2   -1    0    0    0  501 -0.00000000000E+00  0.00000000000E+00  0.30148065656E+02  0.30148065656E+02  0.00000000000E+00 0.  1.
          2   -1    0    0  501    0  0.00000000000E+00 -0.00000000000E+00 -0.88346328372E+03  0.88346328372E+03  0.00000000000E+00 0. -1.
         25    2    1    2    0    0 -0.10930336081E+03 -0.46930208272E+02 -0.39437332559E+03  0.43049694062E+03  0.12509047453E+03 0.  0.
          5    1    3    3  502    0 -0.76798292368E+02 -0.59070460288E+02 -0.38088210763E+03  0.39303428515E+03  0.41800000000E+01 0.  1.
         -5    1    3    3    0  502 -0.32505068437E+02  0.12140252017E+02 -0.13491217958E+02  0.37462655474E+02  0.41800000000E+01 0.  1.
        -11    1    1    2    0    0  0.37065947056E+02 -0.27915320288E+02 -0.15996023538E+03  0.16655457496E+03  0.00000000000E+00 0.  1.
         11    1    1    2    0    0  0.72237413749E+02  0.74845528560E+02 -0.29898165710E+03  0.31655983379E+03  0.00000000000E+00 0. -1.
</event>
<event>
 7    1  0.2873461E-009  0.1055047E+03  0.7561462E-02  0.1269128E+00
         -3   -1    0    0    0  501 -0.00000000000E+00  0.00000000000E+00  0.21413651882E+03  0.21413651882E+03  0.00000000000E+00 0.  1.
          3   -1    0    0  501    0  0.00000000000E+00 -0.00000000000E+00 -0.71271443772E+02  0.71271443772E+02  0.00000000000E+00 0. -1.
         25    2    1    2    0    0  0.28737602705E+02  0.45099462047E+02  0.49562716220E+02  0.14478903958E+03  0.12509033478E+03 0.  0.
          5    1    3    3  502    0 -0.36229946378E+01  0.71948989464E+02  0.67567916831E+02  0.98856860965E+02  0.41800000000E+01 0.  1.
         -5    1    3    3    0  502  0.32360597343E+02 -0.26849527416E+02 -0.18005200611E+02  0.45932178611E+02  0.41800000000E+01 0.  1.
        -11    1    1    2    0    0  0.21953271430E+02 -0.40021881748E+02  0.72322941062E+02  0.85523709865E+02  0.00000000000E+00 0.  1.
         11    1    1    2    0    0 -0.50690874135E+02 -0.50775802992E+01  0.20979417765E+02  0.55095213150E+02  0.00000000000E+00 0. -1.
</event>
<event>
 7    1  0.2873461E-009  0.1523625E+03  0.7561462E-02  0.1197600E+00
         -2   -1    0    0    0  501 -0.00000000000E+00  0.00000000000E+00  0.57933236805E+02  0.57933236805E+02  0.00000000000E+00 0.  1.
          2   -1    0    0  501    0  0.00000000000E+00 -0.00000000000E+00 -0.58801676762E+03  0.58801676762E+03  0.00000000000E+00 0. -1.
         25    2    1    2    0    0  0.32198293205E+02 -0.12523879611E+03 -0.15167139068E+03  0.23531731460E+03  0.12509413121E+03 0.  0.
          5    1    3    3  502    0  0.58866414345E+02 -0.54530714745E+02 -0.13609613596E+03  0.15804582947E+03  0.41800000000E+01 0.  1.
         -5    1    3    3    0  502 -0.26668121140E+02 -0.70708081368E+02 -0.15575254726E+02  0.77271485139E+02  0.41800000000E+01 0.  1.
        -11    1    1    2    0    0 -0.28501211805E+02  0.13514340049E+03 -0.37483577294E+03  0.39947204463E+03  0.00000000000E+00 0. -1.
         11    1    1    2    0    0 -0.36970814006E+01 -0.99046043736E+01 -0.35763671887E+01  0.11160645185E+02  0.00000000000E+00 0.  1.
</event>
<event>
 7    1  0.2873461E-009  0.1465426E+03  0.7561462E-02  0.1204787E+00
         -1   -1    0    0    0  501 -0.00000000000E+00  0.00000000000E+00  0.77906026250E+02  0.77906026250E+02  0.00000000000E+00 0.  1.
          1   -1    0    0  501    0  0.00000000000E+00 -0.00000000000E+00 -0.43475197727E+03  0.43475197727E+03  0.00000000000E+00 0. -1.
         25    2    1    2    0    0 -0.96430842739E+02  0.10297453330E+03 -0.11979564050E+03  0.22338413560E+03  0.12508722802E+03 0.  0.
          5    1    3    3  502    0 -0.36755874343E+02  0.15101755943E+02  0.22430134216E+02  0.45821835976E+02  0.41800000000E+01 0.  1.
         -5    1    3    3    0  502 -0.59674968395E+02  0.87872777356E+02 -0.14222577472E+03  0.17756229962E+03  0.41800000000E+01 0.  1.
        -11    1    1    2    0    0  0.77288129179E+02 -0.10157000182E+03 -0.13636824016E+03  0.18677852421E+03  0.00000000000E+00 0.  1.
         11    1    1    2    0    0  0.19142713560E+02 -0.14045314806E+01 -0.10068207036E+03  0.10249534372E+03  0.00000000000E+00 0. -1.
</event>
<event>
 7    1  0.2873461E-009  0.1109235E+03  0.7561462E-02  0.1258869E+00
          2   -1    0    0  501    0  0.00000000000E+00  0.00000000000E+00  0.16015208505E+03  0.16015208505E+03  0.00000000000E+00 0.  1.
         -2   -1    0    0    0  501 -0.00000000000E+00 -0.00000000000E+00 -0.10435628584E+03  0.10435628584E+03  0.00000000000E+00 0. -1.
         25    2    1    2    0    0  0.41522299616E+02 -0.27407290038E+02 -0.34239542456E+01  0.13466721485E+03  0.12509306288E+03 0.  0.
          5    1    3    3  502    0  0.72568272525E+02 -0.31796841442E+02 -0.37858792538E+02  0.87908781560E+02  0.41800000000E+01 0.  1.
         -5    1    3    3    0  502 -0.31045972910E+02  0.43895514036E+01  0.34434838292E+02  0.46758433289E+02  0.41800000000E+01 0.  1.
        -11    1    1    2    0    0 -0.13201853821E+02 -0.37662973933E+02  0.43685885591E+01  0.40148139630E+02  0.00000000000E+00 0. -1.
         11    1    1    2    0    0 -0.28320445795E+02  0.65070263971E+02  0.54851164889E+02  0.89693016412E+02  0.00000000000E+00 0.  1.
</event>
<event>
 7    1  0.2873461E-009  0.7681396E+02  0.7561462E-02  0.1338344E+00
         -2   -1    0    0    0  501 -0.00000000000E+00  0.00000000000E+00  0.49861578357E+02  0.49861578357E+02  0.00000000000E+00 0.  1.
          2   -1    0    0  501    0  0.00000000000E+00 -0.00000000000E+00 -0.26564517707E+03  0.26564517707E+03  0.00000000000E+00 0. -1.
         25    2    1    2    0    0 -0.33359497322E+02  0.50025425388E+01 -0.10660983324E+03  0.16778440472E+03  0.12509223969E+03 0.  0.
          5    1    3    3  502    0 -0.43877321478E+02 -0.33597172553E+02 -0.17215858856E+01  0.55447503115E+02  0.41800000000E+01 0. -1.
         -5    1    3    3    0  502  0.10517824156E+02  0.38599715092E+02 -0.10488824735E+03  0.11233690161E+03  0.41800000000E+01 0. -1.
        -11    1    1    2    0    0  0.12565323453E+02 -0.25722408920E+02 -0.11438110828E+03  0.11790914980E+03  0.00000000000E+00 0. -1.
         11    1    1    2    0    0  0.20794173869E+02  0.20719866381E+02  0.52073427994E+01  0.29813200915E+02  0.00000000000E+00 0.  1.
</event>
<event>
 7    1  0.2873461E-009  0.9047131E+02  0.7561462E-02  0.1301714E+00
          2   -1    0    0  501    0  0.00000000000E+00  0.00000000000E+00  0.34085174602E+03  0.34085174602E+03  0.00000000000E+00 0. -1.
         -2   -1    0    0    0  501 -0.00000000000E+00 -0.00000000000E+00 -0.44668303898E+02  0.44668303898E+02  0.00000000000E+00 0.  1.
         25    2    1    2    0    0 -0.34275456696E+02  0.30663798439E+02  0.10757760184E+03  0.17125085872E+03  0.12505535067E+03 0.  0.
          5    1    3    3  502    0  0.12621529112E+02  0.34111881742E+02  0.11744713070E+03  0.12302123550E+03  0.41800000000E+01 0.  1.
         -5    1    3    3    0  502 -0.46896985808E+02 -0.34480833026E+01 -0.98695288681E+01  0.48229623225E+02  0.41800000000E+01 0.  1.
        -11    1    1    2    0    0 -0.13159338185E+02 -0.45544962265E+02  0.60546915043E+02  0.76898899149E+02  0.00000000000E+00 0.  1.
         11    1    1    2    0    0  0.47434794881E+02  0.14881163826E+02  0.12805892525E+03  0.13737029205E+03  0.00000000000E+00 0. -1.
</event>
<event>
 7    1  0.2873461E-009  0.6307378E+02  0.7561462E-02  0.1385367E+00
         -2   -1    0    0    0  501 -0.00000000000E+00  0.00000000000E+00  0.24745111029E+03  0.24745111029E+03  0.00000000000E+00 0.  1.
          2   -1    0    0  501    0  0.00000000000E+00 -0.00000000000E+00 -0.52990733674E+02  0.52990733674E+02  0.00000000000E+00 0. -1.
         25    2    1    2    0    0 -0.30128112861E+02  0.89953650258E+01  0.89144760322E+02  0.15679443381E+03  0.12509630852E+03 0.  0.
          5    1    3    3  502    0 -0.18799642429E+02 -0.22993684998E+02 -0.24115266537E+02  0.38485771207E+02  0.41800000000E+01 0. -1.
         -5    1    3    3    0  502 -0.11328470432E+02  0.31989050024E+02  0.11326002686E+03  0.11830866261E+03  0.41800000000E+01 0. -1.
        -11    1    1    2    0    0  0.45716776882E+02 -0.66898194684E+01  0.10305053485E+02  0.47338900498E+02  0.00000000000E+00 0. -1.
         11    1    1    2    0    0 -0.15588664021E+02 -0.23055455573E+01  0.95010562813E+02  0.96308509657E+02  0.00000000000E+00 0.  1.
</event>
<event>
 7    1  0.2873461E-009  0.9547264E+02  0.7561462E-02  0.1290115E+00
         -1   -1    0    0    0  501 -0.00000000000E+00  0.00000000000E+00  0.38676696366E+02  0.38676696366E+02  0.00000000000E+00 0.  1.
          1   -1    0    0  501    0  0.00000000000E+00 -0.00000000000E+00 -0.39082249966E+03  0.39082249966E+03  0.00000000000E+00 0. -1.
         25    2    1    2    0    0  0.38396276662E+02 -0.35678115514E+01 -0.13106372662E+03  0.18522398265E+03  0.12507285866E+03 0.  0.
          5    1    3    3  502    0  0.63639501729E+02  0.19172554819E+02 -0.20800047847E+02  0.69768814158E+02  0.41800000000E+01 0.  1.
         -5    1    3    3    0  502 -0.25243225067E+02 -0.22740366370E+02 -0.11026367878E+03  0.11545516849E+03  0.41800000000E+01 0.  1.
        -11    1    1    2    0    0  0.12718634927E+02  0.29991232219E+02 -0.14648981735E+03  0.15006833201E+03  0.00000000000E+00 0. -1.
         11    1    1    2    0    0 -0.51114911589E+02 -0.26423420667E+02 -0.74592259323E+02  0.94206881370E+02  0.00000000000E+00 0.  1.
</event>
<event>
 7    1  0.2873461E-009  0.1081557E+03  0.7561462E-02  0.1264024E+00
          2   -1    0    0  501    0  0.00000000000E+00  0.00000000000E+00  0.21220374019E+02  0.21220374019E+02  0.00000000000E+00 0. -1.
         -2   -1    0    0    0  501 -0.00000000000E+00 -0.00000000000E+00 -0.82753402612E+03  0.82753402612E+03  0.00000000000E+00 0.  1.
         25    2    1    2    0    0  0.78974128043E+00  0.40472697187E+02 -0.63827102169E+03  0.65167164764E+03  0.12508947318E+03 0.  0.
          5    1    3    3  502    0  0.32527657415E+02 -0.35923506628E+02 -0.23812267183E+03  0.24303996804E+03  0.41800000000E+01 0.  1.
         -5    1    3    3    0  502 -0.31737916135E+02  0.76396203815E+02 -0.40014834986E+03  0.40863167960E+03  0.41800000000E+01 0.  1.
        -11    1    1    2    0    0  0.36724375127E+02 -0.23965231238E+02 -0.30121542645E+02  0.53200745936E+02  0.00000000000E+00 0. -1.
         11    1    1    2    0    0 -0.37514116408E+02 -0.16507465949E+02 -0.13792108777E+03  0.14388200656E+03  0.00000000000E+00 0.  1.
</event>
<event>
 7    1  0.2873461E-009  0.1073129E+03  0.7561462E-02  0.1265628E+00
          3   -1    0    0  501    0  0.00000000000E+00  0.00000000000E+00  0.91212526868E+03  0.91212526868E+03  0.00000000000E+00 0. -1.
         -3   -1    0    0    0  501 -0.00000000000E+00 -0.00000000000E+00 -0.22296066804E+02  0.22296066804E+02  0.00000000000E+00 0.  1.
         25    2    1    2    0    0 -0.48332310873E+02  0.24774156993E+02  0.67354648827E+03  0.68721313196E+03  0.12508895135E+03 0.  0.
          5    1    3    3  502    0  0.40370113643E+02 -0.43055146153E+01  0.26445191968E+03  0.26758283531E+03  0.41800000000E+01 0. -1.
         -5    1    3    3    0  502 -0.88702424516E+02  0.29079671608E+02  0.40909456859E+03  0.41963029665E+03  0.41800000000E+01 0. -1.
        -11    1    1    2    0    0  0.62332363382E+02 -0.18423277642E+02  0.22160443040E+03  0.23093995812E+03  0.00000000000E+00 0. -1.
         11    1    1    2    0    0 -0.14000052509E+02 -0.63508793506E+01 -0.53217167949E+01  0.16268245401E+02  0.00000000000E+00 0.  1.
</event>
<event>
 7    1  0.2873461E-009  0.1547814E+03  0.7561462E-02  0.1194718E+00
          1   -1    0    0  501    0  0.00000000000E+00  0.00000000000E+00  0.16983809466E+04  0.16983809466E+04  0.00000000000E+00 0. -1.
         -1   -1    0    0    0  501 -0.00000000000E+00 -0.00000000000E+00 -0.22967190683E+02  0.22967190683E+02  0.00000000000E+00 0.  1.
         25    2    1    2    0    0  0.11431456387E+03  0.39289613430E+02  0.13624631733E+04  0.13735227258E+04  0.12508911344E+03 0.  0.
          5    1    3    3  502    0  0.69139672872E+02 -0.29564880825E+02  0.94485965407E+03  0.94785632605E+03  0.41800000000E+01 0. -1.
         -5    1    3    3    0  502  0.45174890999E+02  0.68854494255E+02  0.41760351927E+03  0.42566639973E+03  0.41800000000E+01 0. -1.
        -11    1    1    2    0    0 -0.47179022279E+01 -0.41901453316E+02  0.85155750238E+02  0.95023640164E+02  0.00000000000E+00 0. -1.
         11    1    1    2    0    0 -0.10959666164E+03  0.26118398860E+01  0.22779483235E+03  0.25280177135E+03  0.00000000000E+00 0.  1.
</event>
<event>
 7    1  0.2873461E-009  0.1767526E+03  0.7561462E-02  0.1170983E+00
          2   -1    0    0  501    0  0.00000000000E+00  0.00000000000E+00  0.13297616628E+03  0.13297616628E+03  0.00000000000E+00 0. -1.
         -2   -1    0    0    0  501 -0.00000000000E+00 -0.00000000000E+00 -0.25291420951E+03  0.25291420951E+03  0.00000000000E+00 0.  1.
         25    2    1    2    0    0 -0.12417978369E+03  0.77092692348E+02 -0.70850974682E+02  0.20501720408E+03  0.12509313116E+03 0.  0.
          5    1    3    3  502    0 -0.46035613010E+02 -0.32826831597E+02 -0.29390137821E+02  0.63860246938E+02  0.41800000000E+01 0. -1.
         -5    1    3    3    0  502 -0.78144170682E+02  0.10991952394E+03 -0.41460836861E+02  0.14115695714E+03  0.41800000000E+01 0. -1.
        -11    1    1    2    0    0  0.90343031191E+02 -0.88207935304E+02 -0.80266742376E+01  0.12651849918E+03  0.00000000000E+00 0. -1.
         11    1    1    2    0    0  0.33836752502E+02  0.11115242956E+02 -0.41060394311E+02  0.54354672538E+02  0.00000000000E+00 0.  1.
</event>
<event>
 7    1  0.2873461E-009  0.1294517E+03  0.7561462E-02  0.1228272E+00
          2   -1    0    0  501    0  0.00000000000E+00  0.00000000000E+00  0.25657201430E+03  0.25657201430E+03  0.00000000000E+00 0. -1.
         -2   -1    0    0    0  501 -0.00000000000E+00 -0.00000000000E+00 -0.72902059844E+02  0.72902059844E+02  0.00000000000E+00 0.  1.
         25    2    1    2    0    0  0.56697388286E+01 -0.69999443281E+02  0.49534647744E+02  0.15176667451E+03  0.12508946465E+03 0.  0.
          5    1    3    3  502    0  0.63197431275E+02 -0.51980052820E+02  0.37691754596E+02  0.90188591160E+02  0.41800000000E+01 0. -1.
         -5    1    3    3    0  502 -0.57527692447E+02 -0.18019390460E+02  0.11842893149E+02  0.61578083349E+02  0.41800000000E+01 0. -1.
        -11    1    1    2    0    0  0.61379008033E+01 -0.22483529482E+02  0.25340030303E+02  0.34428186998E+02  0.00000000000E+00 0.  1.
         11    1    1    2    0    0 -0.11807639632E+02  0.92482972763E+02  0.10879527640E+03  0.14327921263E+03  0.00000000000E+00 0. -1.
</event>
<event>
 7    1  0.2873461E-009  0.1178850E+03  0.7561462E-02  0.1246627E+00
         -1   -1    0    0    0  501 -0.00000000000E+00  0.00000000000E+00  0.39895436194E+02  0.39895436194E+02  0.00000000000E+00 0.  1.
          1   -1    0    0  501    0  0.00000000000E+00 -0.00000000000E+00 -0.39791472238E+03  0.39791472238E+03  0.00000000000E+00 0. -1.
         25    2    1    2    0    0  0.42557765116E+02  0.32600168023E+02 -0.13895917327E+03  0.19449875256E+03  0.12508468565E+03 0.  0.
          5    1    3    3  502    0  0.67630722963E+02  0.61728072068E+02 -0.69591545216E+02  0.11508572950E+03  0.41800000000E+01 0. -1.
         -5    1    3    3    0  502 -0.25072957847E+02 -0.29127904046E+02 -0.69367628051E+02  0.79413023055E+02  0.41800000000E+01 0. -1.
        -11    1    1    2    0    0 -0.70829888189E+02 -0.30443434375E+02 -0.16959766366E+03  0.18629826429E+03  0.00000000000E+00 0.  1.
         11    1    1    2    0    0  0.28272123072E+02 -0.21567336477E+01 -0.49462449261E+02  0.57013141730E+02  0.00000000000E+00 0. -1.
</event>
<event>
 7    1  0.2873461E-009  0.1161789E+03  0.7561462E-02  0.1249537E+00
          1   -1    0    0  501    0  0.00000000000E+00  0.00000000000E+00  0.22122922705E+03  0.22122922705E+03  0.00000000000E+00 0. -1.
         -1   -1    0    0    0  501 -0.00000000000E+00 -0.00000000000E+00 -0.72346214238E+02  0.72346214238E+02  0.00000000000E+00 0.  1.
         25    2    1    2    0    0  0.62774990727E+02  0.36795522954E+01  0.10204077670E+03  0.17323972857E+03  0.12508175279E+03 0.  0.
          5    1    3    3  502    0  0.36811589656E+02 -0.56413845528E+02  0.24798976329E+02  0.71903245596E+02  0.41800000000E+01 0.  1.
         -5    1    3    3    0  502  0.25963401071E+02  0.60093397823E+02  0.77241800372E+02  0.10133648297E+03  0.41800000000E+01 0.  1.
        -11    1    1    2    0    0 -0.11946032323E+02  0.33974874503E+02 -0.76810375238E+01  0.36823879796E+02  0.00000000000E+00 0.  1.
         11    1    1    2    0    0 -0.50828958403E+02 -0.37654426799E+02  0.54523273634E+02  0.83511832920E+02  0.00000000000E+00 0. -1.
</event>
<event>
 7    1  0.2873461E-009  0.8144196E+02  0.7561462E-02  0.1325008E+00
         -1   -1    0    0    0  501 -0.00000000000E+00  0.00000000000E+00  0.36301969847E+02  0.36301969847E+02  0.00000000000E+00 0.  1.
          1   -1    0    0  501    0  0.00000000000E+00 -0.00000000000E+00 -0.42769468925E+03  0.42769468925E+03  0.00000000000E+00 0. -1.
         25    2    1    2    0    0 -0.22957504979E+02 -0.43782164571E+02 -0.15091763479E+03  0.20215637675E+03  0.12508854144E+03 0.  0.
          5    1    3    3  502    0 -0.64280303223E+01 -0.41387473204E+02  0.75437447611E+01  0.42762401675E+02  0.41800000000E+01 0. -1.
         -5    1    3    3    0  502 -0.16529474657E+02 -0.23946913674E+01 -0.15846137955E+03  0.15939397507E+03  0.41800000000E+01 0. -1.
        -11    1    1    2    0    0  0.53417716689E+02  0.41346079640E+01 -0.12177826439E+03  0.13304320019E+03  0.00000000000E+00 0.  1.
         11    1    1    2    0    0 -0.30460211709E+02  0.39647556607E+02 -0.11869682022E+03  0.12879708215E+03  0.00000000000E+00 0. -1.
</event>
<event>
 7    1  0.2873461E-009  0.1232385E+03  0.7561462E-02  0.1237848E+00
         -1   -1    0    0    0  501 -0.00000000000E+00  0.00000000000E+00  0.31118889246E+02  0.31118889246E+02  0.00000000000E+00 0.  1.
          1   -1    0    0  501    0  0.00000000000E+00 -0.00000000000E+00 -0.57272640186E+03  0.57272640186E+03  0.00000000000E+00 0. -1.
         25    2    1    2    0    0 -0.37908978501E+02  0.66579808757E+02 -0.26250277405E+03  0.30070776657E+03  0.12508993927E+03 0.  0.
          5    1    3    3  502    0  0.11335436654E+02 -0.33039107113E+02 -0.71657258264E+02  0.79826748555E+02  0.41800000000E+01 0.  1.
         -5    1    3    3    0  502 -0.49244415155E+02  0.99618915871E+02 -0.19084551579E+03  0.22088101802E+03  0.41800000000E+01 0.  1.
        -11    1    1    2    0    0  0.29923097537E+02  0.29854216449E+01 -0.23643062395E+02  0.38253090176E+02  0.00000000000E+00 0.  1.
         11    1    1    2    0    0  0.79858809636E+01 -0.69565230402E+02 -0.25546167616E+03  0.26488443436E+03  0.00000000000E+00 0. -1.
</event>
<event>
 7    1  0.2873461E-009  0.1094047E+03  0.7561462E-02  0.1261676E+00
          1   -1    0    0  501    0  0.00000000000E+00  0.00000000000E+00  0.36514376475E+03  0.36514376475E+03  0.00000000000E+00 0. -1.
         -1   -1    0    0    0  501 -0.00000000000E+00 -0.00000000000E+00 -0.10027980598E+03  0.10027980598E+03  0.00000000000E+00 0.  1.
         25    2    1    2    0    0 -0.81401131231E+02  0.16045260645E+02  0.29883850501E+03  0.33441837494E+03  0.12509037881E+03 0.  0.
          5    1    3    3  502    0  0.19915976974E+02 -0.19691458210E+02  0.13852338555E+03  0.14138811976E+03  0.41800000000E+01 0.  1.
         -5    1    3    3    0  502 -0.10131710821E+03  0.35736718855E+02  0.16031511946E+03  0.19303025519E+03  0.41800000000E+01 0.  1.
        -11    1    1    2    0    0  0.66205541987E+02 -0.12580459321E+02 -0.66662981732E+02  0.94791322809E+02  0.00000000000E+00 0.  1.
         11    1    1    2    0    0  0.15195589244E+02 -0.34648013236E+01  0.32688435493E+02  0.36213872972E+02  0.00000000000E+00 0. -1.
</event>
<event>
 7    1  0.2873461E-009  0.9558916E+02  0.7561462E-02  0.1289855E+00
          2   -1    0    0  501    0  0.00000000000E+00  0.00000000000E+00  0.80971556547E+02  0.80971556547E+02  0.00000000000E+00 0.  1.
         -2   -1    0    0    0  501 -0.00000000000E+00 -0.00000000000E+00 -0.18664865295E+03  0.18664865295E+03  0.00000000000E+00 0. -1.
         25    2    1    2    0    0 -0.38907293246E+02  0.21368557084E+02 -0.31192137666E+02  0.13635336791E+03  0.12509555863E+03 0.  0.
          5    1    3    3  502    0 -0.76508390668E+02 -0.12667443072E+02 -0.35278737346E+02  0.85299822188E+02  0.41800000000E+01 0.  1.
         -5    1    3    3    0  502  0.37601097422E+02  0.34036000155E+02  0.40865996797E+01  0.51053545723E+02  0.41800000000E+01 0.  1.
        -11    1    1    2    0    0  0.40697069794E+02  0.48438190048E+00  0.11690566540E+02  0.42345666386E+02  0.00000000000E+00 0.  1.
         11    1    1    2    0    0 -0.17897765480E+01 -0.21852938984E+02 -0.86175525280E+02  0.88921175204E+02  0.00000000000E+00 0. -1.
</event>
<event>
 7    1  0.2873461E-009  0.1028716E+03  0.7561462E-02  0.1274371E+00
         -2   -1    0    0    0  501 -0.00000000000E+00  0.00000000000E+00  0.11877389611E+02  0.11877389611E+02  0.00000000000E+00 0.  1.
          2   -1    0    0  501    0  0.00000000000E+00 -0.00000000000E+00 -0.23455599536E+04  0.23455599536E+04  0.00000000000E+00 0. -1.
         25    2    1    2    0    0  0.64072795679E+02 -0.53019522915E+02 -0.19092807175E+04  0.19151807469E+04  0.12509213409E+03 0.  0.
          5    1    3    3  502    0  0.16945806078E+02 -0.20956881443E+01 -0.31179524152E+02  0.35793677916E+02  0.41800000000E+01 0. -1.
         -5    1    3    3    0  502  0.47126989600E+02 -0.50923834771E+02 -0.18781011934E+04  0.18793870690E+04  0.41800000000E+01 0. -1.
        -11    1    1    2    0    0 -0.66209819076E+02  0.62195423176E+00 -0.30060093134E+03  0.30780683373E+03  0.00000000000E+00 0. -1.
         11    1    1    2    0    0  0.21370233971E+01  0.52397568683E+02 -0.12380091509E+03  0.13444976255E+03  0.00000000000E+00 0.  1.
</event>
<event>
 7    1  0.2873461E-009  0.1899081E+03  0.7561462E-02  0.1158544E+00
         -1   -1    0    0    0  501 -0.00000000000E+00  0.00000000000E+00  0.41985077058E+03  0.41985077058E+03  0.00000000000E+00 0.  1.
          1   -1    0    0  501    0  0.00000000000E+00 -0.00000000000E+00 -0.90130657036E+02  0.90130657036E+02  0.00000000000E+00 0. -1.
         25    2    1    2    0    0  0.13696781944E+03 -0.84760470867E+02  0.16983703159E+03  0.26539799957E+03  0.12508780873E+03 0.  0.
          5    1    3    3  502    0 -0.19050432856E+02 -0.30834720070E+01 -0.13154442882E+01  0.19789633279E+02  0.41800000000E+01 0.  1.
         -5    1    3    3    0  502  0.15601825230E+03 -0.81676998860E+02  0.17115247587E+03  0.24560836629E+03  0.41800000000E+01 0.  1.
        -11    1    1    2    0    0 -0.10438740354E+03  0.13111642266E+02  0.77702588361E+02  0.13079119778E+03  0.00000000000E+00 0. -1.
         11    1    1    2    0    0 -0.32580415910E+02  0.71648828602E+02  0.82180493602E+02  0.11379223027E+03  0.00000000000E+00 0.  1.
</event>
<event>
 7    1  0.2873461E-009  0.1163057E+03  0.7561462E-02  0.1249319E+00
         -1   -1    0    0    0  501 -0.00000000000E+00  0.00000000000E+00  0.78214159373E+02  0.78214159373E+02  0.00000000000E+00 0.  1.
          1   -1    0    0  501    0  0.00000000000E+00 -0.00000000000E+00 -0.20985277205E+03  0.20985277205E+03  0.00000000000E+00 0. -1.
         25    2    1    2    0    0 -0.55813118285E+02 -0.39737693650E+02 -0.68550096513E+02  0.15824916931E+03  0.12509794317E+03 0.  0.
          5    1    3    3  502    0 -0.39909270961E+02 -0.74811325020E+02 -0.65545971327E+01  0.85146458549E+02  0.41800000000E+01 0.  1.
         -5    1    3    3    0  502 -0.15903847323E+02  0.35073631370E+02 -0.61995499380E+02  0.73102710761E+02  0.41800000000E+01 0.  1.
        -11    1    1    2    0    0 -0.10386457246E+02  0.41477307566E+02 -0.76151560126E+01  0.43430820141E+02  0.00000000000E+00 0.  1.
         11    1    1    2    0    0  0.66199575530E+02 -0.17396139154E+01 -0.55473360153E+02  0.86386941974E+02  0.00000000000E+00 0. -1.
</event>
<event>
 7    1  0.2873461E-009  0.1255251E+03  0.7561462E-02  0.1234251E+00
         -2   -1    0    0    0  501 -0.00000000000E+00  0.00000000000E+00  0.14662389925E+02  0.14662389925E+02  0.00000000000E+00 0.  1.
          2   -1    0    0  501    0  0.00000000000E+00 -0.00000000000E+00 -0.12340878935E+04  0.12340878935E+04  0.00000000000E+00 0. -1.
         25    2    1    2    0    0 -0.34686110155E+02  0.68638201469E+02 -0.64681093253E+03  0.66326940483E+03  0.12509033537E+03 0.  0.
          5    1    3    3  502    0  0.19510117412E+02 -0.19144353692E+02 -0.30379928082E+03  0.30505512024E+03  0.41800000000E+01 0.  1.
         -5    1    3    3    0  502 -0.54196227567E+02  0.87782555161E+02 -0.34301165171E+03  0.35821428459E+03  0.41800000000E+01 0.  1.
        -11    1    1    2    0    0  0.64690030343E+02 -0.61606689652E+02 -0.46676698347E+03  0.47523846761E+03  0.00000000000E+00 0. -1.
         11    1    1    2    0    0 -0.30003920188E+02 -0.70315118167E+01 -0.10584758758E+03  0.11024241099E+03  0.00000000000E+00 0.  1.
</event>
<event>
 7    1  0.2873461E-009  0.1071017E+03  0.7561462E-02  0.1266033E+00
          2   -1    0    0  501    0  0.00000000000E+00  0.00000000000E+00  0.34723478648E+03  0.34723478648E+03  0.00000000000E+00 0. -1.
         -2   -1    0    0    0  501 -0.00000000000E+00 -0.00000000000E+00 -0.62452061664E+02  0.62452061664E+02  0.00000000000E+00 0.  1.
         25    2    1    2    0    0 -0.72659808593E+02 -0.27408243717E+02  0.76182344934E+02  0.16576325677E+03  0.12507217119E+03 0.  0.
          5    1    3    3  502    0  0.65613028364E+01 -0.52703826644E+02  0.61234245832E+02  0.81165567209E+02  0.41800000000E+01 0. -1.
         -5    1    3    3    0  502 -0.79221111430E+02  0.25295582926E+02  0.14948099102E+02  0.84597689558E+02  0.41800000000E+01 0. -1.
        -11    1    1    2    0    0  0.45558502745E+02  0.17618690893E+02  0.20947531755E+03  0.21509510479E+03  0.00000000000E+00 0. -1.
         11    1    1    2    0    0  0.27101305848E+02  0.97895528248E+01 -0.87493766672E+00  0.28828486590E+02  0.00000000000E+00 0.  1.
</event>
<event>
 7    1  0.2873461E-009  0.1004548E+03  0.7561462E-02  0.1279342E+00
         -1   -1    0    0    0  501 -0.00000000000E+00  0.00000000000E+00  0.42038990553E+03  0.42038990553E+03  0.00000000000E+00 0.  1.
          1   -1    0    0  501    0  0.00000000000E+00 -0.00000000000E+00 -0.34129684402E+02  0.34129684402E+02  0.00000000000E+00 0. -1.
         25    2    1    2    0    0 -0.36506873756E+02  0.34573946537E+02  0.24881209846E+03  0.28298934675E+03  0.12508956961E+03 0.  0.
          5    1    3    3  502    0  0.33683578840E+01  0.55589941640E+02  0.22502562544E+03  0.23185252198E+03  0.41800000000E+01 0. -1.
         -5    1    3    3    0  502 -0.39875231640E+02 -0.21015995104E+02  0.23786473021E+02  0.51136824768E+02  0.41800000000E+01 0. -1.
        -11    1    1    2    0    0 -0.21185995800E+02 -0.36349622717E+02  0.38779767848E+02  0.57218981851E+02  0.00000000000E+00 0. -1.
         11    1    1    2    0    0  0.57692869556E+02  0.17756761807E+01  0.98668354824E+02  0.11431126133E+03  0.00000000000E+00 0.  1.
</event>
<event>
 7    1  0.2873461E-009  0.1786567E+03  0.7561462E-02  0.1169109E+00
         -1   -1    0    0    0  501 -0.00000000000E+00  0.00000000000E+00  0.60458349231E+02  0.60458349231E+02  0.00000000000E+00 0.  1.
          1   -1    0    0  501    0  0.00000000000E+00 -0.00000000000E+00 -0.71348460036E+03  0.71348460036E+03  0.00000000000E+00 0. -1.
         25    2    1    2    0    0  0.10350649638E+02  0.14911845915E+03 -0.16635569347E+03  0.25625198191E+03  0.12508961059E+03 0.  0.
          5    1    3    3  502    0  0.65166731290E+02  0.92528048461E+02 -0.11879849201E+03  0.16413012132E+03  0.41800000000E+01 0. -1.
         -5    1    3    3    0  502 -0.54816081651E+02  0.56590410685E+02 -0.47557201458E+02  0.92121860596E+02  0.41800000000E+01 0. -1.
        -11    1    1    2    0    0  0.29408792844E+02 -0.45450851006E+02 -0.83516886848E+02  0.99527520528E+02  0.00000000000E+00 0.  1.
         11    1    1    2    0    0 -0.39759442482E+02 -0.10366760814E+03 -0.40315367081E+03  0.41816344715E+03  0.00000000000E+00 0. -1.
</event>
<event>
 7    1  0.2873461E-009  0.1602108E+03  0.7561462E-02  0.1188459E+00
          1   -1    0    0  501    0  0.00000000000E+00  0.00000000000E+00  0.79192157234E+02  0.79192157234E+02  0.00000000000E+00 0. -1.
         -1   -1    0    0    0  501 -0.00000000000E+00 -0.00000000000E+00 -0.33337591799E+03  0.33337591799E+03  0.00000000000E+00 0.  1.
         25    2    1    2    0    0 -0.90171321524E+02 -0.77256904514E+02 -0.14675112113E+03  0.22645807784E+03  0.12509145832E+03 0.  0.
          5    1    3    3  502    0  0.49828248622E+01  0.28962430190E+02 -0.28558795805E+02  0.41191359822E+02  0.41800000000E+01 0.  1.
         -5    1    3    3    0  502 -0.95154146386E+02 -0.10621933470E+03 -0.11819232532E+03  0.18526671802E+03  0.41800000000E+01 0.  1.
        -11    1    1    2    0    0  0.62089188729E+02 -0.38797346758E+01 -0.66267241385E+02  0.90892612345E+02  0.00000000000E+00 0.  1.
         11    1    1    2    0    0  0.28082132795E+02  0.81136639190E+02 -0.41165398243E+02  0.95217385040E+02  0.00000000000E+00 0. -1.
</event>
<event>
 7    1  0.2873461E-009  0.1401574E+03  0.7561462E-02  0.1213117E+00
         -2   -1    0    0    0  501 -0.00000000000E+00  0.00000000000E+00  0.20013728190E+02  0.20013728190E+02  0.00000000000E+00 0.  1.
          2   -1    0    0  501    0  0.00000000000E+00 -0.00000000000E+00 -0.11105552544E+04  0.11105552544E+04  0.00000000000E+00 0. -1.
         25    2    1    2    0    0 -0.80350492589E+01  0.95423632216E+02 -0.45421019268E+03  0.48075471680E+03  0.12509183420E+03 0.  0.
          5    1    3    3  502    0 -0.57708411060E+02  0.26596584008E+02 -0.27693781748E+03  0.28416485732E+03  0.41800000000E+01 0.  1.
         -5    1    3    3    0  502  0.49673361801E+02  0.68827048208E+02 -0.17727237521E+03  0.19658985948E+03  0.41800000000E+01 0.  1.
        -11    1    1    2    0    0  0.67515608782E+01  0.17481417505E+02 -0.85604421282E+02  0.87631618011E+02  0.00000000000E+00 0.  1.
         11    1    1    2    0    0  0.12834883807E+01 -0.11290504972E+03 -0.55072691229E+03  0.56218264783E+03  0.00000000000E+00 0. -1.
</event>
<event>
 7    1  0.2873461E-009  0.2296387E+03  0.7561462E-02  0.1126894E+00
          3   -1    0    0  501    0  0.00000000000E+00  0.00000000000E+00  0.20881033367E+03  0.20881033367E+03  0.00000000000E+00 0. -1.
         -3   -1    0    0    0  501 -0.00000000000E+00 -0.00000000000E+00 -0.26384859928E+03  0.26384859928E+03  0.00000000000E+00 0.  1.
         25    2    1    2    0    0  0.18549226600E+03  0.95909992355E+02 -0.37114547328E+02  0.24623241041E+03  0.12508718134E+03 0.  0.
          5    1    3    3  502    0  0.13717026048E+03  0.90902090434E+01  0.63916371803E+01  0.13768310603E+03  0.41800000000E+01 0.  1.
         -5    1    3    3    0  502  0.48322005520E+02  0.86819783311E+02 -0.43506184508E+02  0.10854930438E+03  0.41800000000E+01 0.  1.
        -11    1    1    2    0    0 -0.13651716935E+03 -0.29315766576E+02 -0.30194146276E+02  0.14285670501E+03  0.00000000000E+00 0.  1.
         11    1    1    2    0    0 -0.48975096652E+02 -0.66594225778E+02  0.12270427996E+02  0.83569817532E+02  0.00000000000E+00 0. -1.
</event>
<event>
 7    1  0.2873461E-009  0.9952894E+02  0.7561462E-02  0.1281290E+00
         -3   -1    0    0    0  501 -0.00000000000E+00  0.00000000000E+00  0.68394891793E+02  0.68394891793E+02  0.00000000000E+00 0. -1.
          3   -1    0    0  501    0  0.00000000000E+00 -0.00000000000E+00 -0.23242949710E+03  0.23242949710E+03  0.00000000000E+00 0.  1.
         25    2    1    2    0    0 -0.38316164651E+01  0.36237069532E+02 -0.28644560535E+02  0.13340043347E+03  0.12508940127E+03 0.  0.
          5    1    3    3  502    0 -0.48232273458E+02 -0.57667401022E+01 -0.48726007869E+02  0.68929701415E+02  0.41800000000E+01 0.  1.
         -5    1    3    3    0  502  0.44400656993E+02  0.42003809634E+02  0.20081447334E+02  0.64470732059E+02  0.41800000000E+01 0.  1.
        -11    1    1    2    0    0 -0.50771576311E+01  0.25835933597E+02 -0.11838135201E+02  0.28868918225E+02  0.00000000000E+00 0.  1.
         11    1    1    2    0    0  0.89087740962E+01 -0.62073003129E+02 -0.12355190957E+03  0.13855503720E+03  0.00000000000E+00 0. -1.
</event>
<event>
 7    1  0.2873461E-009  0.2681799E+03  0.7561462E-02  0.1102326E+00
         -1   -1    0    0    0  501 -0.00000000000E+00  0.00000000000E+00  0.10168647999E+03  0.10168647999E+03  0.00000000000E+00 0.  1.
          1   -1    0    0  501    0  0.00000000000E+00 -0.00000000000E+00 -0.10735303720E+04  0.10735303720E+04  0.00000000000E+00 0. -1.
         25    2    1    2    0    0 -0.26492687966E+03  0.75372857990E+01 -0.21403571038E+03  0.36291141366E+03  0.12510134533E+03 0.  0.
          5    1    3    3  502    0 -0.20966169443E+03 -0.14999556916E+02 -0.97143782103E+02  0.23159749485E+03  0.41800000000E+01 0. -1.
         -5    1    3    3    0  502 -0.55265185234E+02  0.22536842715E+02 -0.11689192827E+03  0.13131391881E+03  0.41800000000E+01 0. -1.
        -11    1    1    2    0    0  0.15450246536E+03  0.83568817177E+01 -0.59605577562E+03  0.61581112114E+03  0.00000000000E+00 0. -1.
         11    1    1    2    0    0  0.11042441430E+03 -0.15894167517E+02 -0.16175240603E+03  0.19649431720E+03  0.00000000000E+00 0.  1.
</event>
<event>
 7    1  0.2873461E-009  0.1185408E+03  0.7561462E-02  0.1245524E+00
          1   -1    0    0  501    0  0.00000000000E+00  0.00000000000E+00  0.28549441425E+03  0.28549441425E+03  0.00000000000E+00 0. -1.
         -1   -1    0    0    0  501 -0.00000000000E+00 -0.00000000000E+00 -0.65842917956E+02  0.65842917956E+02  0.00000000000E+00 0.  1.
         25    2    1    2    0    0 -0.49815783566E+02 -0.52274034171E+02  0.17024043203E+03  0.22325884708E+03  0.12509404928E+03 0.  0.
          5    1    3    3  502    0 -0.38587541754E+02 -0.92597108542E+02  0.13584380077E+03  0.16892079060E+03  0.41800000000E+01 0.  1.
         -5    1    3    3    0  502 -0.11228241812E+02  0.40323074371E+02  0.34396631259E+02  0.54338056488E+02  0.41800000000E+01 0.  1.
        -11    1    1    2    0    0  0.26995272248E+02 -0.96108999386E+01 -0.17941287435E+02  0.33808340926E+02  0.00000000000E+00 0.  1.
         11    1    1    2    0    0  0.22820511318E+02  0.61884934109E+02  0.67352351699E+02  0.94270144192E+02  0.00000000000E+00 0. -1.
</event>
<event>
 7    1  0.2873461E-009  0.1099295E+03  0.7561462E-02  0.1260701E+00
          3   -1    0    0  501    0  0.00000000000E+00  0.00000000000E+00  0.77978084543E+03  0.77978084543E+03  0.00000000000E+00 0. -1.
         -3   -1    0    0    0  501 -0.00000000000E+00 -0.00000000000E+00 -0.15961360917E+02  0.15961360917E+02  0.00000000000E+00 0.  1.
         25    2    1    2    0    0  0.14272405628E+02  0.19844886084E+02  0.37655443098E+03  0.39754110496E+03  0.12509264400E+03 0.  0.
          5    1    3    3  502    0 -0.78060386746E+01  0.71013634469E+02  0.21386688339E+03  0.22552247500E+03  0.41800000000E+01 0.  1.
         -5    1    3    3    0  502  0.22078444303E+02 -0.51168748386E+02  0.16268754759E+03  0.17201862996E+03  0.41800000000E+01 0.  1.
        -11    1    1    2    0    0  0.34408706343E+02 -0.26291939960E+02  0.19674878674E+03  0.20145796153E+03  0.00000000000E+00 0.  1.
         11    1    1    2    0    0 -0.48681111971E+02  0.64470538757E+01  0.19051626680E+03  0.19674313986E+03  0.00000000000E+00 0. -1.
</event>
<event>
 7    1  0.2873461E-009  0.1175282E+03  0.7561462E-02  0.1247231E+00
          2   -1    0    0  501    0  0.00000000000E+00  0.00000000000E+00  0.11952786622E+04  0.11952786622E+04  0.00000000000E+00 0. -1.
         -2   -1    0    0    0  501 -0.00000000000E+00 -0.00000000000E+00 -0.14602753754E+02  0.14602753754E+02  0.00000000000E+00 0.  1.
         25    2    1    2    0    0  0.22772357319E+02 -0.55813822222E+02  0.85866375907E+03  0.86981903211E+03  0.12509170425E+03 0.  0.
          5    1    3    3  502    0  0.26121792912E+02 -0.94658425571E+02  0.55521945480E+03  0.56385164803E+03  0.41800000000E+01 0. -1.
         -5    1    3    3    0  502 -0.33494355926E+01  0.38844603349E+02  0.30344430427E+03  0.30596738408E+03  0.41800000000E+01 0. -1.
        -11    1    1    2    0    0 -0.10567552523E+02 -0.19007972771E+02  0.23268011535E+02  0.31849278736E+02  0.00000000000E+00 0.  1.
         11    1    1    2    0    0 -0.12204804796E+02  0.74821794993E+02  0.29874413785E+03  0.30821310511E+03  0.00000000000E+00 0. -1.
</event>
<event>
 7    1  0.2873461E-009  0.7236075E+02  0.7561462E-02  0.1352244E+00
         -2   -1    0    0    0  501 -0.00000000000E+00  0.00000000000E+00  0.23926545662E+03  0.23926545662E+03  0.00000000000E+00 0.  1.
          2   -1    0    0  501    0  0.00000000000E+00 -0.00000000000E+00 -0.53675555293E+02  0.53675555293E+02  0.00000000000E+00 0. -1.
         25    2    1    2    0    0 -0.13729589383E+01 -0.27312416081E+02  0.83159039843E+02  0.15267892868E+03  0.12509027247E+03 0.  0.
          5    1    3    3  502    0  0.57455463365E+01 -0.54133405672E+02 -0.98935623107E+01  0.55486862297E+02  0.41800000000E+01 0. -1.
         -5    1    3    3    0  502 -0.71185052747E+01  0.26820989591E+02  0.93052602154E+02  0.97192066382E+02  0.41800000000E+01 0. -1.
        -11    1    1    2    0    0 -0.26031101356E+02  0.45268110774E+01 -0.51610045714E+01  0.26921111131E+02  0.00000000000E+00 0. -1.
         11    1    1    2    0    0  0.27404060295E+02  0.22785605004E+02  0.10759186606E+03  0.11334097210E+03  0.00000000000E+00 0.  1.
</event>
<event>
 7    1  0.2873461E-009  0.1614154E+03  0.7561462E-02  0.1187108E+00
          2   -1    0    0  501    0  0.00000000000E+00  0.00000000000E+00  0.58989751158E+03  0.58989751158E+03  0.00000000000E+00 0. -1.
         -2   -1    0    0    0  501 -0.00000000000E+00 -0.00000000000E+00 -0.56097991403E+02  0.56097991403E+02  0.00000000000E+00 0.  1.
         25    2    1    2    0    0 -0.93217695109E+02 -0.99794699392E+02  0.37074100541E+03  0.41442342443E+03  0.12509740573E+03 0.  0.
          5    1    3    3  502    0 -0.22298209803E+02 -0.82178815097E+02  0.30274417169E+03  0.31451879705E+03  0.41800000000E+01 0.  1.
         -5    1    3    3    0  502 -0.70919485306E+02 -0.17615884295E+02  0.67996833720E+02  0.99904627378E+02  0.41800000000E+01 0.  1.
        -11    1    1    2    0    0  0.76269344678E+02  0.11736611541E+03  0.13683857842E+03  0.19574630144E+03  0.00000000000E+00 0.  1.
         11    1    1    2    0    0  0.16948350431E+02 -0.17571416018E+02  0.26219936342E+02  0.35825777102E+02  0.00000000000E+00 0. -1.
</event>
<event>
 7    1  0.2873461E-009  0.1292836E+03  0.7561462E-02  0.1228523E+00
          1   -1    0    0  501    0  0.00000000000E+00  0.00000000000E+00  0.39175832480E+03  0.39175832480E+03  0.00000000000E+00 0. -1.
         -1   -1    0    0    0  501 -0.00000000000E+00 -0.00000000000E+00 -0.49754781827E+02  0.49754781827E+02  0.00000000000E+00 0.  1.
         25    2    1    2    0    0 -0.50109417463E+02 -0.69579513276E+02  0.15737929411E+03  0.21856228324E+03  0.12509583149E+03 0.  0.
          5    1    3    3  502    0 -0.76483302821E+02 -0.23144063974E+02  0.14172845235E+03  0.16275678147E+03  0.41800000000E+01 0. -1.
         -5    1    3    3    0  502  0.26373885357E+02 -0.46435449302E+02  0.15650841760E+02  0.55805501777E+02  0.41800000000E+01 0. -1.
        -11    1    1    2    0    0  0.24597681924E+02  0.89371587507E+02  0.13704659720E+03  0.16545119042E+03  0.00000000000E+00 0. -1.
         11    1    1    2    0    0  0.25511735539E+02 -0.19792074231E+02  0.47577651671E+02  0.57499632965E+02  0.00000000000E+00 0.  1.
</event>
<event>
 7    1  0.2873461E-009  0.2614755E+03  0.7561462E-02  0.1106260E+00
         -1   -1    0    0    0  501 -0.00000000000E+00  0.00000000000E+00  0.47327082531E+03  0.47327082531E+03  0.00000000000E+00 0.  1.
          1   -1    0    0  501    0  0.00000000000E+00 -0.00000000000E+00 -0.17218512785E+03  0.17218512785E+03  0.00000000000E+00 0. -1.
         25    2    1    2    0    0  0.97688579049E+02 -0.23945107698E+03  0.98026247386E+02  0.30354191848E+03  0.12509466157E+03 0.  0.
          5    1    3    3  502    0  0.69942889676E+02 -0.21809878417E+03  0.35573488635E+02  0.23182327960E+03  0.41800000000E+01 0. -1.
         -5    1    3    3    0  502  0.27745689373E+02 -0.21352292816E+02  0.62452758751E+02  0.71718638880E+02  0.41800000000E+01 0. -1.
        -11    1    1    2    0    0 -0.19591824186E+02  0.46784208479E+02  0.94814278153E+02  0.10752836407E+03  0.00000000000E+00 0.  1.
         11    1    1    2    0    0 -0.78096754863E+02  0.19266686850E+03  0.10824517193E+03  0.23438567061E+03  0.00000000000E+00 0. -1.
</event>
<event>
 7    1  0.2873461E-009  0.1433038E+03  0.7561462E-02  0.1208951E+00
         -1   -1    0    0    0  501 -0.00000000000E+00  0.00000000000E+00  0.85906500540E+02  0.85906500540E+02  0.00000000000E+00 0.  1.
          1   -1    0    0  501    0  0.00000000000E+00 -0.00000000000E+00 -0.30013167368E+03  0.30013167368E+03  0.00000000000E+00 0. -1.
         25    2    1    2    0    0  0.18281162291E+02 -0.11700920538E+03 -0.11895477207E+03  0.20931563691E+03  0.12504976217E+03 0.  0.
          5    1    3    3  502    0 -0.19538398369E+02 -0.10044721788E+03 -0.13083307324E+03  0.16615100976E+03  0.41800000000E+01 0.  1.
         -5    1    3    3    0  502  0.37819560660E+02 -0.16561987505E+02  0.11878301169E+02  0.43164627154E+02  0.41800000000E+01 0.  1.
        -11    1    1    2    0    0 -0.42322260693E+02  0.28612428782E+02 -0.11016504602E+02  0.52260962531E+02  0.00000000000E+00 0.  1.
         11    1    1    2    0    0  0.24041098402E+02  0.88396776602E+02 -0.84253896466E+02  0.12446157478E+03  0.00000000000E+00 0. -1.
</event>
<event>
 7    1  0.2873461E-009  0.8412423E+02  0.7561462E-02  0.1317739E+00
         -3   -1    0    0    0  501 -0.00000000000E+00  0.00000000000E+00  0.58796416765E+02  0.58796416765E+02  0.00000000000E+00 0.  1.
          3   -1    0    0  501    0  0.00000000000E+00 -0.00000000000E+00 -0.22019825680E+03  0.22019825680E+03  0.00000000000E+00 0. -1.
         25    2    1    2    0    0 -0.15077574115E+02 -0.25707873824E+02 -0.11802079589E+03  0.17454982836E+03  0.12510198361E+03 0.  0.
          5    1    3    3  502    0 -0.26261898462E+02 -0.67354535429E+02 -0.33961085225E+02  0.79982175910E+02  0.41800000000E+01 0. -1.
         -5    1    3    3    0  502  0.11184324347E+02  0.41646661605E+02 -0.84059710662E+02  0.94567652453E+02  0.41800000000E+01 0. -1.
        -11    1    1    2    0    0 -0.31292329430E+01  0.32815986649E+02  0.19701687985E+02  0.38403614258E+02  0.00000000000E+00 0.  1.
         11    1    1    2    0    0  0.18206807058E+02 -0.71081128256E+01 -0.63082732131E+02  0.66041230942E+02  0.00000000000E+00 0. -1.
</event>
<event>
 7    1  0.2873461E-009  0.1161008E+03  0.7561462E-02  0.1249672E+00
         -1   -1    0    0    0  501 -0.00000000000E+00  0.00000000000E+00  0.10462263247E+03  0.10462263247E+03  0.00000000000E+00 0.  1.
          1   -1    0    0  501    0  0.00000000000E+00 -0.00000000000E+00 -0.14354356168E+03  0.14354356168E+03  0.00000000000E+00 0. -1.
         25    2    1    2    0    0  0.37688798535E+02 -0.10843756829E+02 -0.53474489930E+02  0.14158178057E+03  0.12509135429E+03 0.  0.
          5    1    3    3  502    0  0.45913435882E+02  0.50113469238E+02 -0.17921107869E+02  0.70413364504E+02  0.41800000000E+01 0.  1.
         -5    1    3    3    0  502 -0.82246373473E+01 -0.60957226067E+02 -0.35553382061E+02  0.71168416065E+02  0.41800000000E+01 0.  1.
        -11    1    1    2    0    0 -0.66535398768E+02 -0.94254810225E+01  0.21690419724E+02  0.70613548909E+02  0.00000000000E+00 0.  1.
         11    1    1    2    0    0  0.28846600233E+02  0.20269237851E+02 -0.71368590041E+01  0.35970864662E+02  0.00000000000E+00 0. -1.
</event>
<event>
 7    1  0.2873461E-009  0.1106334E+03  0.7561462E-02  0.1259401E+00
         -1   -1    0    0    0  501 -0.00000000000E+00  0.00000000000E+00  0.20984959281E+03  0.20984959281E+03  0.00000000000E+00 0.  1.
          1   -1    0    0  501    0  0.00000000000E+00 -0.00000000000E+00 -0.16214711004E+03  0.16214711004E+03  0.00000000000E+00 0. -1.
         25    2    1    2    0    0 -0.34585147111E+02 -0.56821009154E+02 -0.10901343702E+03  0.17876142062E+03  0.12508779545E+03 0.  0.
          5    1    3    3  502    0 -0.27545455182E+02 -0.80389871554E+02 -0.21492505610E+02  0.87753539798E+02  0.41800000000E+01 0.  1.
         -5    1    3    3    0  502 -0.70396919288E+01  0.23568862400E+02 -0.87520931408E+02  0.91007880822E+02  0.41800000000E+01 0.  1.
        -11    1    1    2    0    0  0.15191876849E+01 -0.23929322469E+02  0.20918116622E+02  0.31819616718E+02  0.00000000000E+00 0.  1.
         11    1    1    2    0    0  0.33065959426E+02  0.80750331622E+02  0.13579780316E+03  0.16141566551E+03  0.00000000000E+00 0. -1.
</event>
<event>
 7    1  0.2873461E-009  0.1105021E+03  0.7561462E-02  0.1259643E+00
         -1   -1    0    0    0  501 -0.00000000000E+00  0.00000000000E+00  0.26618894207E+02  0.26618894207E+02  0.00000000000E+00 0.  1.
          1   -1    0    0  501    0  0.00000000000E+00 -0.00000000000E+00 -0.52691904149E+03  0.52691904149E+03  0.00000000000E+00 0. -1.
         25    2    1    2    0    0 -0.13359209712E+02  0.70616269564E+01 -0.37555830292E+03  0.39613123584E+03  0.12509029561E+03 0.  0.
          5    1    3    3  502    0 -0.29034278518E+02 -0.54206655556E+02 -0.20991912691E+03  0.21878039921E+03  0.41800000000E+01 0. -1.
         -5    1    3    3    0  502  0.15675068807E+02  0.61268282513E+02 -0.16563917601E+03  0.17735083663E+03  0.41800000000E+01 0. -1.
        -11    1    1    2    0    0  0.33843982490E+02 -0.42940787862E+02 -0.72277192671E+02  0.90627363381E+02  0.00000000000E+00 0.  1.
         11    1    1    2    0    0 -0.20484772778E+02  0.35879160906E+02 -0.52464651689E+02  0.66779336474E+02  0.00000000000E+00 0. -1.
</event>
<event>
 7    1  0.2873461E-009  0.1147951E+03  0.7561462E-02  0.1251939E+00
         -1   -1    0    0    0  501 -0.00000000000E+00  0.00000000000E+00  0.14980001964E+03  0.14980001964E+03  0.00000000000E+00 0.  1.
          1   -1    0    0  501    0  0.00000000000E+00 -0.00000000000E+00 -0.12770757978E+03  0.12770757978E+03  0.00000000000E+00 0. -1.
         25    2    1    2    0    0 -0.60406309479E+02  0.37904233061E+02 -0.34076849637E+02  0.14796738098E+03  0.12508981191E+03 0.  0.
          5    1    3    3  502    0 -0.95655661955E+01  0.58192123960E+02  0.27728742550E+02  0.65300680785E+02  0.41800000000E+01 0. -1.
         -5    1    3    3    0  502 -0.50840743283E+02 -0.20287890899E+02 -0.61805592187E+02  0.82666700190E+02  0.41800000000E+01 0. -1.
        -11    1    1    2    0    0  0.35795008779E+02 -0.67907849622E+02  0.28518914920E+02  0.81890702781E+02  0.00000000000E+00 0. -1.
         11    1    1    2    0    0  0.24611300700E+02  0.30003616560E+02  0.27650374582E+02  0.47649515668E+02  0.00000000000E+00 0.  1.
</event>
<event>
 7    1  0.2873461E-009  0.1604157E+03  0.7561462E-02  0.1188228E+00
         -1   -1    0    0    0  501 -0.00000000000E+00  0.00000000000E+00  0.27451969442E+03  0.27451969442E+03  0.00000000000E+00 0.  1.
          1   -1    0    0  501    0  0.00000000000E+00 -0.00000000000E+00 -0.10568239511E+03  0.10568239511E+03  0.00000000000E+00 0. -1.
         25    2    1    2    0    0 -0.10885944402E+03  0.46964855902E+02  0.27046077596E+02  0.17445817165E+03  0.12509231431E+03 0.  0.
          5    1    3    3  502    0 -0.12916132767E+03  0.97475862716E+01  0.23513712089E+02  0.13171192451E+03  0.41800000000E+01 0.  1.
         -5    1    3    3    0  502  0.20301883646E+02  0.37217269631E+02  0.35323655069E+01  0.42746247138E+02  0.41800000000E+01 0.  1.
        -11    1    1    2    0    0  0.38065769589E+02  0.26677961319E+02  0.37111072045E+02  0.59480653181E+02  0.00000000000E+00 0.  1.
         11    1    1    2    0    0  0.70793674431E+02 -0.73642817221E+02  0.10468014966E+03  0.14626326470E+03  0.00000000000E+00 0. -1.
</event>
<event>
 7    1  0.2873461E-009  0.8990178E+02  0.7561462E-02  0.1303090E+00
          1   -1    0    0  501    0  0.00000000000E+00  0.00000000000E+00  0.19518498286E+03  0.19518498286E+03  0.00000000000E+00 0. -1.
         -1   -1    0    0    0  501 -0.00000000000E+00 -0.00000000000E+00 -0.13203568033E+03  0.13203568033E+03  0.00000000000E+00 0.  1.
         25    2    1    2    0    0  0.11674311671E+02 -0.38089102077E+02 -0.80590146850E+02  0.15403630147E+03  0.12508133814E+03 0.  0.
          5    1    3    3  502    0  0.14447950930E+02 -0.62025650587E+02 -0.10279931476E+03  0.12100039724E+03  0.41800000000E+01 0.  1.
         -5    1    3    3    0  502 -0.27736392589E+01  0.23936548510E+02  0.22209167906E+02  0.33035904232E+02  0.41800000000E+01 0.  1.
        -11    1    1    2    0    0  0.33103195720E+02  0.32514605417E+02  0.45068818805E+02  0.64685543677E+02  0.00000000000E+00 0.  1.
         11    1    1    2    0    0 -0.44777507391E+02  0.55744966604E+01  0.98670630575E+02  0.10849881805E+03  0.00000000000E+00 0. -1.
</event>
<event>
 7    1  0.2873461E-009  0.6959381E+02  0.7561462E-02  0.1361480E+00
         -2   -1    0    0    0  501 -0.00000000000E+00  0.00000000000E+00  0.41826081097E+02  0.41826081097E+02  0.00000000000E+00 0. -1.
          2   -1    0    0  501    0  0.00000000000E+00 -0.00000000000E+00 -0.33903517294E+03  0.33903517294E+03  0.00000000000E+00 0.  1.
         25    2    1    2    0    0  0.56459683758E+02  0.27595328522E+02 -0.23799963797E+03  0.27611541345E+03  0.12508675320E+03 0.  0.
          5    1    3    3  502    0  0.69485487367E+01  0.37324152374E+01 -0.21691709312E+03  0.21710069310E+03  0.41800000000E+01 0.  1.
         -5    1    3    3    0  502  0.49511135021E+02  0.23862913284E+02 -0.21082544846E+02  0.59014720356E+02  0.41800000000E+01 0.  1.
        -11    1    1    2    0    0 -0.19700673311E+02 -0.32551495879E+02 -0.55745538309E+02  0.67492825205E+02  0.00000000000E+00 0.  1.
         11    1    1    2    0    0 -0.36759010447E+02  0.49561673576E+01 -0.34639155640E+01  0.37253015380E+02  0.00000000000E+00 0. -1.
</event>
<event>
 7    1  0.2873461E-009  0.1224409E+03  0.7561462E-02  0.1239124E+00
         -1   -1    0    0    0  501 -0.00000000000E+00  0.00000000000E+00  0.22045956860E+03  0.22045956860E+03  0.00000000000E+00 0.  1.
          1   -1    0    0  501    0  0.00000000000E+00 -0.00000000000E+00 -0.79897429517E+02  0.79897429517E+02  0.00000000000E+00 0. -1.
         25    2    1    2    0    0 -0.71393528505E+02  0.28692106461E+02  0.73586665404E+02  0.16426316181E+03  0.12508843319E+03 0.  0.
          5    1    3    3  502    0 -0.14431757023E+02 -0.45871440281E+02  0.62008659879E+01  0.48666084527E+02  0.41800000000E+01 0.  1.
         -5    1    3    3    0  502 -0.56961771482E+02  0.74563546742E+02  0.67385799416E+02  0.11559707728E+03  0.41800000000E+01 0.  1.
        -11    1    1    2    0    0  0.48379484631E+02  0.17201886284E+02  0.67425652104E+02  0.84750799326E+02  0.00000000000E+00 0. -1.
         11    1    1    2    0    0  0.23014043874E+02 -0.45893992745E+02 -0.45017842793E+00  0.51343036978E+02  0.00000000000E+00 0.  1.
</event>
<event>
 7    1  0.2873461E-009  0.1723179E+03  0.7561462E-02  0.1175452E+00
         -1   -1    0    0    0  501 -0.00000000000E+00  0.00000000000E+00  0.18066017744E+02  0.18066017744E+02  0.00000000000E+00 0.  1.
          1   -1    0    0  501    0  0.00000000000E+00 -0.00000000000E+00 -0.30209187010E+04  0.30209187010E+04  0.00000000000E+00 0. -1.
         25    2    1    2    0    0  0.10316601584E+03 -0.12890355318E+03 -0.23450601260E+04  0.23541907231E+04  0.12509041907E+03 0.  0.
          5    1    3    3  502    0  0.50093598872E+02 -0.47277973133E+02 -0.17370602562E+04  0.17384304362E+04  0.41800000000E+01 0. -1.
         -5    1    3    3    0  502  0.53072416972E+02 -0.81625580050E+02 -0.60799986981E+03  0.61576028684E+03  0.41800000000E+01 0. -1.
        -11    1    1    2    0    0 -0.82865464079E+02  0.50174428524E+02 -0.47435921303E+03  0.48414958577E+03  0.00000000000E+00 0. -1.
         11    1    1    2    0    0 -0.20300551765E+02  0.78729124660E+02 -0.18343334420E+03  0.20064440993E+03  0.00000000000E+00 0.  1.
</event>
<event>
 7    1  0.2873461E-009  0.8338060E+02  0.7561462E-02  0.1319723E+00
         -1   -1    0    0    0  501 -0.00000000000E+00  0.00000000000E+00  0.97601731064E+02  0.97601731064E+02  0.00000000000E+00 0.  1.
          1   -1    0    0  501    0  0.00000000000E+00 -0.00000000000E+00 -0.12467748867E+03  0.12467748867E+03  0.00000000000E+00 0. -1.
         25    2    1    2    0    0 -0.40772747589E+01 -0.14651479928E+02 -0.61674399957E+01  0.12616461164E+03  0.12509269315E+03 0.  0.
          5    1    3    3  502    0 -0.72040407733E+01 -0.50786161337E+02 -0.48184948295E+02  0.70501021475E+02  0.41800000000E+01 0. -1.
         -5    1    3    3    0  502  0.31267660145E+01  0.36134681408E+02  0.42017508299E+02  0.55663590163E+02  0.41800000000E+01 0. -1.
        -11    1    1    2    0    0  0.13576614914E+02 -0.30109537492E+02  0.16583795508E+02  0.36958503675E+02  0.00000000000E+00 0.  1.
         11    1    1    2    0    0 -0.94993401547E+01  0.44761017420E+02 -0.37492113114E+02  0.59156104415E+02  0.00000000000E+00 0. -1.
</event>
<event>
 7    1  0.2873461E-009  0.1102693E+03  0.7561462E-02  0.1260072E+00
          4   -1    0    0  501    0  0.00000000000E+00  0.00000000000E+00  0.32341633838E+03  0.32341633838E+03  0.00000000000E+00 0.  1.
         -4   -1    0    0    0  501 -0.00000000000E+00 -0.00000000000E+00 -0.46463356527E+02  0.46463356527E+02  0.00000000000E+00 0. -1.
         25    2    1    2    0    0 -0.15263176233E+02 -0.52987966755E+02  0.17088262691E+03  0.21883512127E+03  0.12508896416E+03 0.  0.
          5    1    3    3  502    0 -0.50754562873E+02 -0.61328495592E+02  0.53891578657E+02  0.96223618068E+02  0.41800000000E+01 0.  1.
         -5    1    3    3    0  502  0.35491386641E+02  0.83405288371E+01  0.11699104825E+03  0.12261150321E+03  0.41800000000E+01 0.  1.
        -11    1    1    2    0    0 -0.11272584708E+02  0.71106127719E+02  0.54552100836E+02  0.90327649537E+02  0.00000000000E+00 0.  1.
         11    1    1    2    0    0  0.26535760941E+02 -0.18118160965E+02  0.51518254106E+02  0.60716924096E+02  0.00000000000E+00 0. -1.
</event>
<event>
 7    1  0.2873461E-009  0.1486148E+03  0.7561462E-02  0.1202186E+00
          2   -1    0    0  501    0  0.00000000000E+00  0.00000000000E+00  0.57967751823E+02  0.57967751823E+02  0.00000000000E+00 0. -1.
         -2   -1    0    0    0  501 -0.00000000000E+00 -0.00000000000E+00 -0.67636987591E+03  0.67636987591E+03  0.00000000000E+00 0.  1.
         25    2    1    2    0    0  0.13360817649E+03 -0.58032912018E+02 -0.46601573144E+03  0.50402119076E+03  0.12509090729E+03 0.  0.
          5    1    3    3  502    0  0.12051202613E+03 -0.64011986812E+02 -0.22953961251E+03  0.26707038213E+03  0.41800000000E+01 0. -1.
         -5    1    3    3    0  502  0.13096150356E+02  0.59790747936E+01 -0.23647611892E+03  0.23695080863E+03  0.41800000000E+01 0. -1.
        -11    1    1    2    0    0 -0.64498895766E+02  0.30086228986E+02 -0.13143393840E+02  0.72374287777E+02  0.00000000000E+00 0. -1.
         11    1    1    2    0    0 -0.69109280723E+02  0.27946683032E+02 -0.13924299881E+03  0.15794214919E+03  0.00000000000E+00 0.  1.
</event>
<event>
 7    1  0.2873461E-009  0.1595461E+03  0.7561462E-02  0.1189210E+00
          2   -1    0    0  501    0  0.00000000000E+00  0.00000000000E+00  0.14803349282E+03  0.14803349282E+03  0.00000000000E+00 0.  1.
         -2   -1    0    0    0  501 -0.00000000000E+00 -0.00000000000E+00 -0.22964046884E+03  0.22964046884E+03  0.00000000000E+00 0. -1.
         25    2    1    2    0    0  0.57924322582E+02 -0.12696717585E+03  0.51078630266E+01  0.18748975137E+03  0.12510166151E+03 0.  0.
          5    1    3    3  502    0  0.52915028211E+01 -0.95500428904E+02 -0.47236367462E+02  0.10675710156E+03  0.41800000000E+01 0. -1.
         -5    1    3    3    0  502  0.52632819761E+02 -0.31466746950E+02  0.52344230489E+02  0.80732649808E+02  0.41800000000E+01 0. -1.
        -11    1    1    2    0    0 -0.66242713218E+02  0.46358366609E+02 -0.15548882802E+02  0.82334457948E+02  0.00000000000E+00 0.  1.
         11    1    1    2    0    0  0.83183906358E+01  0.80608809244E+02 -0.71165956250E+02  0.10784975234E+03  0.00000000000E+00 0. -1.
</event>
<event>
 7    1  0.2873461E-009  0.1082241E+03  0.7561462E-02  0.1263894E+00
          1   -1    0    0  501    0  0.00000000000E+00  0.00000000000E+00  0.19476728930E+03  0.19476728930E+03  0.00000000000E+00 0. -1.
         -1   -1    0    0    0  501 -0.00000000000E+00 -0.00000000000E+00 -0.89401680487E+02  0.89401680487E+02  0.00000000000E+00 0.  1.
         25    2    1    2    0    0 -0.21158313594E+02 -0.60838684734E+02  0.93150486914E+02  0.16873832153E+03  0.12508632278E+03 0.  0.
          5    1    3    3  502    0 -0.58847721428E+02 -0.46171705832E+02  0.10255811916E+03  0.12700598782E+03  0.41800000000E+01 0.  1.
         -5    1    3    3    0  502  0.37689407834E+02 -0.14666978902E+02 -0.94076322420E+01  0.41732333716E+02  0.41800000000E+01 0.  1.
        -11    1    1    2    0    0  0.21327523151E+02  0.79449746727E+02  0.32000050278E+02  0.88267370622E+02  0.00000000000E+00 0. -1.
         11    1    1    2    0    0 -0.16920955710E+00 -0.18611061993E+02 -0.19784928383E+02  0.27163277628E+02  0.00000000000E+00 0.  1.
</event>
<event>
 7    1  0.2873461E-009  0.1378683E+03  0.7561462E-02  0.1216226E+00
          3   -1    0    0  501    0  0.00000000000E+00  0.00000000000E+00  0.63473729011E+02  0.63473729011E+02  0.00000000000E+00 0. -1.
         -3   -1    0    0    0  501 -0.00000000000E+00 -0.00000000000E+00 -0.30683170595E+03  0.30683170595E+03  0.00000000000E+00 0.  1.
         25    2    1    2    0    0  0.84665395220E+02  0.17541920690E+02 -0.12250294501E+03  0.19526879762E+03  0.12508790372E+03 0.  0.
          5    1    3    3  502    0  0.11759832830E+03  0.10663200757E+02 -0.94515380199E+02  0.15130664283E+03  0.41800000000E+01 0. -1.
         -5    1    3    3    0  502 -0.32932933082E+02  0.68787199325E+01 -0.27987564813E+02  0.43962154787E+02  0.41800000000E+01 0. -1.
        -11    1    1    2    0    0 -0.61671981642E+02 -0.53068392007E+02 -0.96457367374E+02  0.12618918841E+03  0.00000000000E+00 0.  1.
         11    1    1    2    0    0 -0.22993413578E+02  0.35526471317E+02 -0.24397664551E+02  0.48847448938E+02  0.00000000000E+00 0. -1.
</event>
<event>
 7    1  0.2873461E-009  0.9633630E+02  0.7561462E-02  0.1288194E+00
          1   -1    0    0  501    0  0.00000000000E+00  0.00000000000E+00  0.47938164222E+03  0.47938164222E+03  0.00000000000E+00 0. -1.
         -1   -1    0    0    0  501 -0.00000000000E+00 -0.00000000000E+00 -0.21925370627E+02  0.21925370627E+02  0.00000000000E+00 0.  1.
         25    2    1    2    0    0 -0.21667217937E+02 -0.85305856409E+01  0.28302244138E+03  0.31030088032E+03  0.12507075907E+03 0.  0.
          5    1    3    3  502    0 -0.69386918707E+02  0.17806517631E+02  0.14321453307E+03  0.16018580287E+03  0.41800000000E+01 0.  1.
         -5    1    3    3    0  502  0.47719700770E+02 -0.26337103272E+02  0.13980790831E+03  0.15011507745E+03  0.41800000000E+01 0.  1.
        -11    1    1    2    0    0 -0.21985106630E+02  0.42104195289E+01  0.18561995238E+02  0.29079549745E+02  0.00000000000E+00 0. -1.
         11    1    1    2    0    0  0.43652324567E+02  0.43201661120E+01  0.15587183497E+03  0.16192658278E+03  0.00000000000E+00 0.  1.
</event>
<event>
 7    1  0.2873461E-009  0.8441498E+02  0.7561462E-02  0.1316970E+00
          1   -1    0    0  501    0  0.00000000000E+00  0.00000000000E+00  0.34689620876E+03  0.34689620876E+03  0.00000000000E+00 0. -1.
         -1   -1    0    0    0  501 -0.00000000000E+00 -0.00000000000E+00 -0.38393682367E+02  0.38393682367E+02  0.00000000000E+00 0.  1.
         25    2    1    2    0    0 -0.18806982342E+02 -0.32336591196E+02  0.16573764857E+03  0.21099133200E+03  0.12509602835E+03 0.  0.
          5    1    3    3  502    0  0.30594780671E+02 -0.17984572068E+02  0.15395754022E+03  0.15805025159E+03  0.41800000000E+01 0. -1.
         -5    1    3    3    0  502 -0.49401763013E+02 -0.14352019128E+02  0.11780108347E+02  0.52941080406E+02  0.41800000000E+01 0. -1.
        -11    1    1    2    0    0 -0.12488811507E+02 -0.18180024222E+02  0.27905128391E+01  0.22232198620E+02  0.00000000000E+00 0.  1.
         11    1    1    2    0    0  0.31295793849E+02  0.50516615418E+02  0.13997436498E+03  0.15206636051E+03  0.00000000000E+00 0. -1.
</event>
<event>
 7    1  0.2873461E-009  0.1374124E+03  0.7561462E-02  0.1216854E+00
          1   -1    0    0  501    0  0.00000000000E+00  0.00000000000E+00  0.95022253189E+03  0.95022253189E+03  0.00000000000E+00 0. -1.
         -1   -1    0    0    0  501 -0.00000000000E+00 -0.00000000000E+00 -0.27583708552E+02  0.27583708552E+02  0.00000000000E+00 0.  1.
         25    2    1    2    0    0  0.63295603724E+02 -0.67608195175E+02  0.35098430818E+03  0.38394901225E+03  0.12509859275E+03 0.  0.
          5    1    3    3  502    0  0.83672481504E+02 -0.42284012871E+02  0.12880127564E+03  0.15936204979E+03  0.41800000000E+01 0.  1.
         -5    1    3    3    0  502 -0.20376877780E+02 -0.25324182304E+02  0.22218303254E+03  0.22458696246E+03  0.41800000000E+01 0.  1.
        -11    1    1    2    0    0 -0.88623438214E+02  0.80556460403E+02  0.53035503794E+03  0.54370941079E+03  0.00000000000E+00 0. -1.
         11    1    1    2    0    0  0.25327834490E+02 -0.12948265229E+02  0.41299477220E+02  0.50147817410E+02  0.00000000000E+00 0.  1.
</event>
<event>
 7    1  0.2873461E-009  0.5985961E+02  0.7561462E-02  0.1398422E+00
         -2   -1    0    0    0  501 -0.00000000000E+00  0.00000000000E+00  0.43607786895E+03  0.43607786895E+03  0.00000000000E+00 0.  1.
          2   -1    0    0  501    0  0.00000000000E+00 -0.00000000000E+00 -0.35220718691E+02  0.35220718691E+02  0.00000000000E+00 0. -1.
         25    2    1    2    0    0  0.19239049349E+02 -0.46244251164E+02  0.27490603439E+03  0.30615267708E+03  0.12508981635E+03 0.  0.
          5    1    3    3  502    0 -0.28315757675E+01 -0.34606725739E+02  0.27842292975E+03  0.28061083995E+03  0.41800000000E+01 0.  1.
         -5    1    3    3    0  502  0.22070625117E+02 -0.11637525424E+02 -0.35168953579E+01  0.25541837131E+02  0.41800000000E+01 0.  1.
        -11    1    1    2    0    0  0.72997463687E+01  0.23128735787E+02  0.12762773648E+03  0.12991175403E+03  0.00000000000E+00 0.  1.
         11    1    1    2    0    0 -0.26538795718E+02  0.23115515377E+02 -0.16766206172E+01  0.35234156524E+02  0.00000000000E+00 0. -1.
</event>
<event>
 7    1  0.2873461E-009  0.3933907E+03  0.7561462E-02  0.1046093E+00
          2   -1    0    0  501    0  0.00000000000E+00  0.00000000000E+00  0.90467051990E+03  0.90467051990E+03  0.00000000000E+00 0. -1.
         -2   -1    0    0    0  501 -0.00000000000E+00 -0.00000000000E+00 -0.18422703987E+03  0.18422703987E+03  0.00000000000E+00 0.  1.
         25    2    1    2    0    0 -0.39133062152E+03  0.30778265212E+02  0.34276110628E+03  0.53592872759E+03  0.12508984022E+03 0.  0.
          5    1    3    3  502    0 -0.37438097954E+03  0.30347613236E+02  0.27390007026E+03  0.46488796108E+03  0.41800000000E+01 0. -1.
         -5    1    3    3    0  502 -0.16949641981E+02  0.43065197554E+00  0.68861036015E+02  0.71040766504E+02  0.41800000000E+01 0. -1.
        -11    1    1    2    0    0  0.19759703696E+03 -0.30603086740E+02  0.12991601978E+03  0.23845190318E+03  0.00000000000E+00 0.  1.
         11    1    1    2    0    0  0.19373358457E+03 -0.17517847156E+00  0.24776635397E+03  0.31451692901E+03  0.00000000000E+00 0. -1.
</event>
<event>
 7    1  0.2873461E-009  0.1472308E+03  0.7561462E-02  0.1203918E+00
          2   -1    0    0  501    0  0.00000000000E+00  0.00000000000E+00  0.10948604960E+04  0.10948604960E+04  0.00000000000E+00 0.  1.
         -2   -1    0    0    0  501 -0.00000000000E+00 -0.00000000000E+00 -0.21075386641E+02  0.21075386641E+02  0.00000000000E+00 0. -1.
         25    2    1    2    0    0 -0.10180722839E+03  0.22787533303E+01  0.48520276678E+03  0.51131297858E+03  0.12509729297E+03 0.  0.
          5    1    3    3  502    0 -0.61008215319E+02  0.63054290209E+02  0.25348312960E+03  0.26827041440E+03  0.41800000000E+01 0. -1.
         -5    1    3    3    0  502 -0.40799013070E+02 -0.60775536879E+02  0.23171963717E+03  0.24304256418E+03  0.41800000000E+01 0. -1.
        -11    1    1    2    0    0  0.12707560137E+02 -0.35892969431E+02  0.10350585841E+03  0.11028712556E+03  0.00000000000E+00 0. -1.
         11    1    1    2    0    0  0.89099668252E+02  0.33614216101E+02  0.48507648413E+03  0.49433577846E+03  0.00000000000E+00 0.  1.
</event>
<event>
 7    1  0.2873461E-009  0.1295192E+03  0.7561462E-02  0.1228171E+00
         -1   -1    0    0    0  501 -0.00000000000E+00  0.00000000000E+00  0.13442048362E+03  0.13442048362E+03  0.00000000000E+00 0.  1.
          1   -1    0    0  501    0  0.00000000000E+00 -0.00000000000E+00 -0.14946001926E+03  0.14946001926E+03  0.00000000000E+00 0. -1.
         25    2    1    2    0    0 -0.71320757815E+02 -0.53451358243E+02  0.82673155347E+00  0.15359728775E+03  0.12509094742E+03 0.  0.
          5    1    3    3  502    0  0.32464113052E+02 -0.34653982005E+02 -0.46787570441E+01  0.47897601950E+02  0.41800000000E+01 0. -1.
         -5    1    3    3    0  502 -0.10378487087E+03 -0.18797376237E+02  0.55054885976E+01  0.10569968580E+03  0.41800000000E+01 0. -1.
        -11    1    1    2    0    0  0.65611145384E+02  0.15476165466E+02  0.27101551522E+02  0.72655544806E+02  0.00000000000E+00 0.  1.
         11    1    1    2    0    0  0.57096124309E+01  0.37975192777E+02 -0.42967818720E+02  0.57627670316E+02  0.00000000000E+00 0. -1.
</event>
<event>
 6    1  0.2873461E-009  0.5718779E+02  0.7561462E-02  0.1410027E+00
         -2   -1    0    0    0  501 -0.00000000000E+00  0.00000000000E+00  0.38373331551E+02  0.38373331551E+02  0.00000000000E+00 0.  1.
          2   -1    0    0  501    0  0.00000000000E+00 -0.00000000000E+00 -0.33960861739E+03  0.33960861739E+03  0.00000000000E+00 0. -1.
          5    1    1    2  502    0  0.20488174633E+02 -0.74714493648E+01 -0.16120361322E+03  0.16272573604E+03  0.41800000000E+01 0.  1.
         -5    1    1    2    0  502  0.81086118890E+01  0.10209531587E+02  0.22511631672E+02  0.26348246289E+02  0.41800000000E+01 0.  1.
        -11    1    1    2    0    0 -0.16591607103E+02 -0.37874055188E+02 -0.29533763447E+02  0.50813075738E+02  0.00000000000E+00 0.  1.
         11    1    1    2    0    0 -0.12005179418E+02  0.35135972965E+02 -0.13300954085E+03  0.13809489087E+03  0.00000000000E+00 0. -1.
</event>
<event>
 7    1  0.2873461E-009  0.1206017E+03  0.7561462E-02  0.1242108E+00
          1   -1    0    0  501    0  0.00000000000E+00  0.00000000000E+00  0.37900529408E+02  0.37900529408E+02  0.00000000000E+00 0. -1.
         -1   -1    0    0    0  501 -0.00000000000E+00 -0.00000000000E+00 -0.47872174890E+03  0.47872174890E+03  0.00000000000E+00 0.  1.
         25    2    1    2    0    0 -0.41238053199E+02  0.66646755868E+02 -0.21400796961E+03  0.25997979569E+03  0.12509083104E+03 0.  0.
          5    1    3    3  502    0 -0.13383791483E+02  0.89521115893E+02 -0.79110247121E+02  0.12028740443E+03  0.41800000000E+01 0. -1.
         -5    1    3    3    0  502 -0.27854261716E+02 -0.22874360025E+02 -0.13489772249E+03  0.13969239125E+03  0.41800000000E+01 0. -1.
        -11    1    1    2    0    0 -0.20672794780E+02 -0.43586003799E+02 -0.58481907958E+02  0.75810538381E+02  0.00000000000E+00 0. -1.
         11    1    1    2    0    0  0.61910847978E+02 -0.23060752069E+02 -0.16833134193E+03  0.18083194424E+03  0.00000000000E+00 0.  1.
</event>
<event>
 7    1  0.2873461E-009  0.7906008E+02  0.7561462E-02  0.1331740E+00
         -1   -1    0    0    0  501 -0.00000000000E+00  0.00000000000E+00  0.65306907531E+02  0.65306907531E+02  0.00000000000E+00 0.  1.
          1   -1    0    0  501    0  0.00000000000E+00 -0.00000000000E+00 -0.20421883091E+03  0.20421883091E+03  0.00000000000E+00 0. -1.
         25    2    1    2    0    0 -0.61026439297E+01 -0.18012104601E+01 -0.12321086180E+03  0.17569544679E+03  0.12508991540E+03 0.  0.
          5    1    3    3  502    0  0.37494457777E+02  0.38982372728E+02 -0.95306112670E+02  0.10966397430E+03  0.41800000000E+01 0. -1.
         -5    1    3    3    0  502 -0.43597101707E+02 -0.40783583189E+02 -0.27904749135E+02  0.66031472490E+02  0.41800000000E+01 0. -1.
        -11    1    1    2    0    0  0.25045745342E+02  0.96135430807E+00  0.33074506527E+02  0.41498633036E+02  0.00000000000E+00 0.  1.
         11    1    1    2    0    0 -0.18943101413E+02  0.83985615203E+00 -0.48775568103E+02  0.52331658614E+02  0.00000000000E+00 0. -1.
</event>
<event>
 7    1  0.2873461E-009  0.1537095E+03  0.7561462E-02  0.1195987E+00
          3   -1    0    0  501    0  0.00000000000E+00  0.00000000000E+00  0.16428852754E+03  0.16428852754E+03  0.00000000000E+00 0. -1.
         -3   -1    0    0    0  501 -0.00000000000E+00 -0.00000000000E+00 -0.17682278138E+03  0.17682278138E+03  0.00000000000E+00 0.  1.
         25    2    1    2    0    0  0.10177403401E+03  0.42456408240E+02  0.64161971380E+02  0.17867503827E+03  0.12509000811E+03 0.  0.
          5    1    3    3  502    0  0.84122289636E+02 -0.30187902549E+02  0.19773737102E+02  0.91631556534E+02  0.41800000000E+01 0.  1.
         -5    1    3    3    0  502  0.17651744375E+02  0.72644310790E+02  0.44388234279E+02  0.87043481732E+02  0.41800000000E+01 0.  1.
        -11    1    1    2    0    0 -0.82347137621E+02  0.13853865721E+02 -0.41504461972E+02  0.93250206614E+02  0.00000000000E+00 0.  1.
         11    1    1    2    0    0 -0.19426896390E+02 -0.56310273961E+02 -0.35191763248E+02  0.69186064041E+02  0.00000000000E+00 0. -1.
</event>
<event>
 7    1  0.2873461E-009  0.1091544E+03  0.7561462E-02  0.1262144E+00
          1   -1    0    0  501    0  0.00000000000E+00  0.00000000000E+00  0.11089077558E+04  0.11089077558E+04  0.00000000000E+00 0. -1.
         -1   -1    0    0    0  501 -0.00000000000E+00 -0.00000000000E+00 -0.13556558001E+02  0.13556558001E+02  0.00000000000E+00 0.  1.
         25    2    1    2    0    0  0.39577396728E+02 -0.22154986097E+01  0.78455092163E+03  0.79544930637E+03  0.12509265209E+03 0.  0.
          5    1    3    3  502    0  0.44749877236E+02 -0.55727321568E+02  0.55775432157E+03  0.56233036688E+03  0.41800000000E+01 0. -1.
         -5    1    3    3    0  502 -0.51724805077E+01  0.53511822959E+02  0.22679660006E+03  0.23311893949E+03  0.41800000000E+01 0. -1.
        -11    1    1    2    0    0 -0.10355970780E+02  0.42096473144E+02  0.80125063698E+02  0.91100960557E+02  0.00000000000E+00 0.  1.
         11    1    1    2    0    0 -0.29221425948E+02 -0.39880974534E+02  0.23067521251E+03  0.23591404691E+03  0.00000000000E+00 0. -1.
</event>
<event>
 7    1  0.2873461E-009  0.9948298E+02  0.7561462E-02  0.1281387E+00
         -2   -1    0    0    0  501 -0.00000000000E+00  0.00000000000E+00  0.56545585885E+02  0.56545585885E+02  0.00000000000E+00 0.  1.
          2   -1    0    0  501    0  0.00000000000E+00 -0.00000000000E+00 -0.61161198299E+03  0.61161198299E+03  0.00000000000E+00 0. -1.
         25    2    1    2    0    0 -0.12333487296E+02 -0.34697669340E+01 -0.56026009068E+03  0.57419741231E+03  0.12508854827E+03 0.  0.
          5    1    3    3  502    0  0.45342218170E+02  0.30431556218E+02 -0.32466375738E+03  0.32925070102E+03  0.41800000000E+01 0. -1.
         -5    1    3    3    0  502 -0.57675705466E+02 -0.33901323152E+02 -0.23559633329E+03  0.24494671129E+03  0.41800000000E+01 0. -1.
        -11    1    1    2    0    0  0.34482954364E+02 -0.23901209555E+02 -0.23899061215E+02  0.48285682006E+02  0.00000000000E+00 0. -1.
         11    1    1    2    0    0 -0.22149467069E+02  0.27370976489E+02  0.29092754785E+02  0.45674474560E+02  0.00000000000E+00 0.  1.
</event>
<event>
 7    1  0.2873461E-009  0.2034097E+03  0.7561462E-02  0.1146894E+00
         -1   -1    0    0    0  501 -0.00000000000E+00  0.00000000000E+00  0.10806447350E+03  0.10806447350E+03  0.00000000000E+00 0.  1.
          1   -1    0    0  501    0  0.00000000000E+00 -0.00000000000E+00 -0.47404686983E+03  0.47404686983E+03  0.00000000000E+00 0. -1.
         25    2    1    2    0    0 -0.11520720327E+03  0.14930620058E+03 -0.23508887522E+03  0.32631143412E+03  0.12508929438E+03 0.  0.
          5    1    3    3  502    0 -0.32202109399E+02  0.58643014006E+02 -0.17898764047E+03  0.19112829927E+03  0.41800000000E+01 0. -1.
         -5    1    3    3    0  502 -0.83005093870E+02  0.90663186570E+02 -0.56101234757E+02  0.13518313485E+03  0.41800000000E+01 0. -1.
        -11    1    1    2    0    0 -0.12077302350E+02  0.79658764764E+01 -0.21156306465E+02  0.25630172128E+02  0.00000000000E+00 0.  1.
         11    1    1    2    0    0  0.12728450562E+03 -0.15727207705E+03 -0.10973721464E+03  0.23016973708E+03  0.00000000000E+00 0. -1.
</event>
<event>
 7    1  0.2873461E-009  0.7086422E+02  0.7561462E-02  0.1357179E+00
          2   -1    0    0  501    0  0.00000000000E+00  0.00000000000E+00  0.12210726329E+03  0.12210726329E+03  0.00000000000E+00 0. -1.
         -2   -1    0    0    0  501 -0.00000000000E+00 -0.00000000000E+00 -0.10949136754E+03  0.10949136754E+03  0.00000000000E+00 0.  1.
         25    2    1    2    0    0  0.50025761018E+01  0.21225205509E+02 -0.29710148914E+02  0.13039786115E+03  0.12508146996E+03 0.  0.
          5    1    3    3  502    0  0.36679765818E+02  0.15464674379E+02  0.38072465446E+02  0.55240803753E+02  0.41800000000E+01 0. -1.
         -5    1    3    3    0  502 -0.31677189716E+02  0.57605311294E+01 -0.67782614360E+02  0.75157057398E+02  0.41800000000E+01 0. -1.
        -11    1    1    2    0    0  0.68190396567E+01  0.22723835187E+02 -0.14951752405E+02  0.28043303790E+02  0.00000000000E+00 0.  1.
         11    1    1    2    0    0 -0.11821615759E+02 -0.43949040696E+02  0.57277797073E+02  0.73157465885E+02  0.00000000000E+00 0. -1.
</event>
<event>
 7    1  0.2873461E-009  0.9758106E+02  0.7561462E-02  0.1285466E+00
          2   -1    0    0  501    0  0.00000000000E+00  0.00000000000E+00  0.81781364479E+02  0.81781364479E+02  0.00000000000E+00 0.  1.
         -2   -1    0    0    0  501 -0.00000000000E+00 -0.00000000000E+00 -0.19631902241E+03  0.19631902241E+03  0.00000000000E+00 0. -1.
         25    2    1    2    0    0 -0.36953960555E+02  0.14286261080E+02 -0.73209536325E+01  0.13141812616E+03  0.12508970807E+03 0.  0.
          5    1    3    3  502    0  0.29859170180E+02  0.43606312734E+02  0.14833771744E+02  0.55050828679E+02  0.41800000000E+01 0. -1.
         -5    1    3    3    0  502 -0.66813130735E+02 -0.29320051653E+02 -0.22154725376E+02  0.76367297478E+02  0.41800000000E+01 0. -1.
        -11    1    1    2    0    0  0.48308379125E+01 -0.32012530124E+02  0.10252899149E+01  0.32391207129E+02  0.00000000000E+00 0.  1.
         11    1    1    2    0    0  0.32123122643E+02  0.17726269044E+02 -0.10824199421E+03  0.11429105360E+03  0.00000000000E+00 0. -1.
</event>
<event>
 7    1  0.2873461E-009  0.1129253E+03  0.7561462E-02  0.1255247E+00
          1   -1    0    0  501    0  0.00000000000E+00  0.00000000000E+00  0.38001836155E+02  0.38001836155E+02  0.00000000000E+00 0. -1.
         -1   -1    0    0    0  501 -0.00000000000E+00 -0.00000000000E+00 -0.90803591952E+03  0.90803591952E+03  0.00000000000E+00 0.  1.
         25    2    1    2    0    0  0.73113887191E+02 -0.51133290385E+02 -0.75784701910E+03  0.77325870302E+03  0.12504664553E+03 0.  0.
          5    1    3    3  502    0  0.56673393865E+02 -0.76532767751E+02 -0.30889285096E+03  0.32326676891E+03  0.41800000000E+01 0.  1.
         -5    1    3    3    0  502  0.16440493326E+02  0.25399477366E+02 -0.44895416814E+03  0.44999193411E+03  0.41800000000E+01 0.  1.
        -11    1    1    2    0    0 -0.12588381158E+02  0.35218469398E+02  0.71030650122E+01  0.38069166782E+02  0.00000000000E+00 0. -1.
         11    1    1    2    0    0 -0.60525506034E+02  0.15914820987E+02 -0.11929012928E+03  0.13470988587E+03  0.00000000000E+00 0.  1.
</event>
<event>
 7    1  0.2873461E-009  0.1755723E+03  0.7561462E-02  0.1172158E+00
         -2   -1    0    0    0  501 -0.00000000000E+00  0.00000000000E+00  0.28063217955E+02  0.28063217955E+02  0.00000000000E+00 0.  1.
          2   -1    0    0  501    0  0.00000000000E+00 -0.00000000000E+00 -0.13922921823E+04  0.13922921823E+04  0.00000000000E+00 0. -1.
         25    2    1    2    0    0 -0.12928127326E+03  0.10264254233E+03 -0.73382694020E+03  0.76250013328E+03  0.12512128503E+03 0.  0.
          5    1    3    3  502    0 -0.26506492244E+02  0.69727716902E+02 -0.13763928580E+03  0.15660968690E+03  0.41800000000E+01 0. -1.
         -5    1    3    3    0  502 -0.10277478101E+03  0.32914825423E+02 -0.59618765441E+03  0.60589044638E+03  0.41800000000E+01 0. -1.
        -11    1    1    2    0    0  0.59612970594E+02 -0.26527646055E+02 -0.11495820636E+03  0.13218476265E+03  0.00000000000E+00 0.  1.
         11    1    1    2    0    0  0.69668302662E+02 -0.76114896270E+02 -0.51544381778E+03  0.52567050433E+03  0.00000000000E+00 0. -1.
</event>
<event>
 7    1  0.2873461E-009  0.8554204E+02  0.7561462E-02  0.1314021E+00
         -2   -1    0    0    0  501 -0.00000000000E+00  0.00000000000E+00  0.19612236862E+02  0.19612236862E+02  0.00000000000E+00 0.  1.
          2   -1    0    0  501    0  0.00000000000E+00 -0.00000000000E+00 -0.80718426297E+03  0.80718426297E+03  0.00000000000E+00 0. -1.
         25    2    1    2    0    0 -0.28095932659E+02  0.27787046377E+02 -0.27368712790E+03  0.30350199235E+03  0.12508922418E+03 0.  0.
          5    1    3    3  502    0 -0.20945581525E+02  0.47059351581E+02 -0.27742277170E+03  0.28219526328E+03  0.41800000000E+01 0.  1.
         -5    1    3    3    0  502 -0.71503511341E+01 -0.19272305204E+02  0.37356438030E+01  0.21306729074E+02  0.41800000000E+01 0.  1.
        -11    1    1    2    0    0  0.61234385882E+02 -0.16475971145E+02 -0.35196417560E+03  0.35763093903E+03  0.00000000000E+00 0. -1.
         11    1    1    2    0    0 -0.33138453224E+02 -0.11311075232E+02 -0.16192072260E+03  0.16566356845E+03  0.00000000000E+00 0.  1.
</event>
<event>
 7    1  0.2873461E-009  0.1110273E+03  0.7561462E-02  0.1258679E+00
         -1   -1    0    0    0  501 -0.00000000000E+00  0.00000000000E+00  0.17179526266E+03  0.17179526266E+03  0.00000000000E+00 0.  1.
          1   -1    0    0  501    0  0.00000000000E+00 -0.00000000000E+00 -0.10801280161E+03  0.10801280161E+03  0.00000000000E+00 0. -1.
         25    2    1    2    0    0  0.42263078285E+02  0.44278584551E+02  0.89891174775E+02  0.16575492019E+03  0.12509000531E+03 0.  0.
          5    1    3    3  502    0  0.29790728046E+02  0.87726447562E+02  0.50207116203E+02  0.10545920537E+03  0.41800000000E+01 0. -1.
         -5    1    3    3    0  502  0.12472350239E+02 -0.43447863011E+02  0.39684058572E+02  0.60295714819E+02  0.41800000000E+01 0. -1.
        -11    1    1    2    0    0 -0.73092150404E+01 -0.48194508649E+02 -0.51318291670E+02  0.70779250832E+02  0.00000000000E+00 0. -1.
         11    1    1    2    0    0 -0.34953863245E+02  0.39159240981E+01  0.25209577947E+02  0.43273893256E+02  0.00000000000E+00 0.  1.
</event>
<event>
 7    1  0.2873461E-009  0.1321357E+03  0.7561462E-02  0.1224321E+00
         -3   -1    0    0    0  501 -0.00000000000E+00  0.00000000000E+00  0.10957204565E+03  0.10957204565E+03  0.00000000000E+00 0.  1.
          3   -1    0    0  501    0  0.00000000000E+00 -0.00000000000E+00 -0.17733470615E+03  0.17733470615E+03  0.00000000000E+00 0. -1.
         25    2    1    2    0    0  0.47242829017E+02  0.72081980956E+02 -0.89363064936E+01  0.15218253182E+03  0.12510782768E+03 0.  0.
          5    1    3    3  502    0  0.85357299989E+02  0.61630530294E+02 -0.26633427660E+02  0.10867843758E+03  0.41800000000E+01 0. -1.
         -5    1    3    3    0  502 -0.38114470972E+02  0.10451450662E+02  0.17697121166E+02  0.43504094244E+02  0.41800000000E+01 0. -1.
        -11    1    1    2    0    0  0.12280654242E+02 -0.56245855780E+02 -0.16160021215E+02  0.59795961793E+02  0.00000000000E+00 0. -1.
         11    1    1    2    0    0 -0.59523483260E+02 -0.15836125176E+02 -0.42666332789E+02  0.74928258178E+02  0.00000000000E+00 0.  1.
</event>
<event>
 7    1  0.2873461E-009  0.8421120E+02  0.7561462E-02  0.1317508E+00
         -2   -1    0    0    0  501 -0.00000000000E+00  0.00000000000E+00  0.11811204617E+02  0.11811204617E+02  0.00000000000E+00 0.  1.
          2   -1    0    0  501    0  0.00000000000E+00 -0.00000000000E+00 -0.79407858848E+03  0.79407858848E+03  0.00000000000E+00 0. -1.
         25    2    1    2    0    0  0.14833338276E+02  0.94555511904E+01 -0.61863708163E+03  0.63140229604E+03  0.12509030858E+03 0.  0.
          5    1    3    3  502    0  0.56219943005E+02 -0.18566265723E+02 -0.17189619266E+03  0.18185478180E+03  0.41800000000E+01 0.  1.
         -5    1    3    3    0  502 -0.41386604729E+02  0.28021816913E+02 -0.44674088898E+03  0.44954751424E+03  0.41800000000E+01 0.  1.
        -11    1    1    2    0    0 -0.33970183107E+02 -0.17430886847E+02 -0.85214362553E+02  0.93377174630E+02  0.00000000000E+00 0.  1.
         11    1    1    2    0    0  0.19136844830E+02  0.79753356561E+01 -0.78415939675E+02  0.81110322426E+02  0.00000000000E+00 0. -1.
</event>
<event>
 7    1  0.2873461E-009  0.2368422E+03  0.7561462E-02  0.1121914E+00
         -2   -1    0    0    0  501 -0.00000000000E+00  0.00000000000E+00  0.77108364554E+02  0.77108364554E+02  0.00000000000E+00 0.  1.
          2   -1    0    0  501    0  0.00000000000E+00 -0.00000000000E+00 -0.12193827199E+04  0.12193827199E+04  0.00000000000E+00 0. -1.
         25    2    1    2    0    0  0.11340256347E+03 -0.20536479703E+03 -0.93276556301E+03  0.96991421010E+03  0.12508852132E+03 0.  0.
          5    1    3    3  502    0  0.71921153672E+02 -0.14143009302E+03 -0.80962827601E+03  0.82503972102E+03  0.41800000000E+01 0. -1.
         -5    1    3    3    0  502  0.41481409801E+02 -0.63934704010E+02 -0.12313728700E+03  0.14487448908E+03  0.41800000000E+01 0. -1.
        -11    1    1    2    0    0 -0.85848539754E+02  0.18630182957E+03 -0.20931347814E+03  0.29307076894E+03  0.00000000000E+00 0. -1.
         11    1    1    2    0    0 -0.27554023718E+02  0.19062967461E+02 -0.19531418957E+00  0.33506105401E+02  0.00000000000E+00 0.  1.
</event>
<event>
 7    1  0.2873461E-009  0.1921544E+03  0.7561462E-02  0.1156532E+00
          2   -1    0    0  501    0  0.00000000000E+00  0.00000000000E+00  0.78066453352E+03  0.78066453352E+03  0.00000000000E+00 0. -1.
         -2   -1    0    0    0  501 -0.00000000000E+00 -0.00000000000E+00 -0.56858062022E+02  0.56858062022E+02  0.00000000000E+00 0.  1.
         25    2    1    2    0    0 -0.16517736467E+03  0.75067185315E+02  0.34258202786E+03  0.40734216917E+03  0.12508618175E+03 0.  0.
          5    1    3    3  502    0 -0.25996072609E+02  0.53123542044E+02  0.34634887429E+02  0.68665525103E+02  0.41800000000E+01 0.  1.
         -5    1    3    3    0  502 -0.13918129206E+03  0.21943643272E+02  0.30794714043E+03  0.33867664407E+03  0.41800000000E+01 0.  1.
        -11    1    1    2    0    0  0.10533303260E+03 -0.63834790199E+02  0.16722792319E+03  0.20768992872E+03  0.00000000000E+00 0.  1.
         11    1    1    2    0    0  0.59844332065E+02 -0.11232395116E+02  0.21399652045E+03  0.22249049765E+03  0.00000000000E+00 0. -1.
</event>
<event>
 7    1  0.2873461E-009  0.1272627E+03  0.7561462E-02  0.1231575E+00
         -2   -1    0    0    0  501 -0.00000000000E+00  0.00000000000E+00  0.47697246299E+02  0.47697246299E+02  0.00000000000E+00 0.  1.
          2   -1    0    0  501    0  0.00000000000E+00 -0.00000000000E+00 -0.38420581942E+03  0.38420581942E+03  0.00000000000E+00 0. -1.
         25    2    1    2    0    0  0.32399577952E+02 -0.77469312654E+02 -0.21135971851E+03  0.25956053139E+03  0.12509001475E+03 0.  0.
          5    1    3    3  502    0  0.57842141697E+02  0.98392906994E+01 -0.70131266017E+02  0.91533555981E+02  0.41800000000E+01 0. -1.
         -5    1    3    3    0  502 -0.25442563745E+02 -0.87308603353E+02 -0.14122845250E+03  0.16802697540E+03  0.41800000000E+01 0. -1.
        -11    1    1    2    0    0  0.63753117711E+01  0.62936508383E+02 -0.33070175500E+02  0.71381266416E+02  0.00000000000E+00 0.  1.
         11    1    1    2    0    0 -0.38774889723E+02  0.14532804271E+02 -0.92078679111E+02  0.10096126792E+03  0.00000000000E+00 0. -1.
</event>
<event>
 7    1  0.2873461E-009  0.1144360E+03  0.7561462E-02  0.1252569E+00
         -1   -1    0    0    0  501 -0.00000000000E+00  0.00000000000E+00  0.71403284837E+02  0.71403284837E+02  0.00000000000E+00 0.  1.
          1   -1    0    0  501    0  0.00000000000E+00 -0.00000000000E+00 -0.26220722285E+03  0.26220722285E+03  0.00000000000E+00 0. -1.
         25    2    1    2    0    0  0.57592426913E+02 -0.55839195129E+02 -0.10861286250E+03  0.18406019047E+03  0.12508595631E+03 0.  0.
          5    1    3    3  502    0 -0.36786530868E+02  0.31175593476E+01 -0.29902080291E+02  0.47692502926E+02  0.41800000000E+01 0.  1.
         -5    1    3    3    0  502  0.94378957781E+02 -0.58956754477E+02 -0.78710782212E+02  0.13636768755E+03  0.41800000000E+01 0.  1.
        -11    1    1    2    0    0 -0.27889000643E+02  0.23737056053E+02 -0.96754150848E+02  0.10345341895E+03  0.00000000000E+00 0. -1.
         11    1    1    2    0    0 -0.29703426270E+02  0.32102139076E+02  0.14563075342E+02  0.46096898256E+02  0.00000000000E+00 0.  1.
</event>
<event>
 7    1  0.2873461E-009  0.1245224E+03  0.7561462E-02  0.1235818E+00
         -2   -1    0    0    0  501 -0.00000000000E+00  0.00000000000E+00  0.14798821734E+02  0.14798821734E+02  0.00000000000E+00 0.  1.
          2   -1    0    0  501    0  0.00000000000E+00 -0.00000000000E+00 -0.13283494522E+04  0.13283494522E+04  0.00000000000E+00 0. -1.
         25    2    1    2    0    0  0.39809266009E+02 -0.77989710328E+02 -0.79424883413E+03  0.80879153522E+03  0.12508143090E+03 0.  0.
          5    1    3    3  502    0  0.57918157036E+02 -0.12785540317E+02 -0.15593183242E+03  0.16688376708E+03  0.41800000000E+01 0. -1.
         -5    1    3    3    0  502 -0.18108891027E+02 -0.65204170012E+02 -0.63831700171E+03  0.64190776814E+03  0.41800000000E+01 0. -1.
        -11    1    1    2    0    0  0.52047772870E+01 -0.16402195608E+02 -0.36417706408E+02  0.40278667647E+02  0.00000000000E+00 0.  1.
         11    1    1    2    0    0 -0.45014043296E+02  0.94391905936E+02 -0.48288408993E+03  0.49407807107E+03  0.00000000000E+00 0. -1.
</event>
<event>
 7    1  0.2873461E-009  0.9045875E+02  0.7561462E-02  0.1301745E+00
          1   -1    0    0  501    0  0.00000000000E+00  0.00000000000E+00  0.29231193418E+03  0.29231193418E+03  0.00000000000E+00 0. -1.
         -1   -1    0    0    0  501 -0.00000000000E+00 -0.00000000000E+00 -0.49508978920E+02  0.49508978920E+02  0.00000000000E+00 0.  1.
         25    2    1    2    0    0  0.39653661269E+01  0.32496911582E+02  0.77435872105E+02  0.15071226996E+03  0.12508437407E+03 0.  0.
          5    1    3    3  502    0  0.11981938501E+02  0.58355019264E+02  0.99157521092E+02  0.11575215554E+03  0.41800000000E+01 0.  1.
         -5    1    3    3    0  502 -0.80165723743E+01 -0.25858107682E+02 -0.21721648986E+02  0.34960114419E+02  0.41800000000E+01 0.  1.
        -11    1    1    2    0    0 -0.45975101904E+02 -0.16209387894E+02  0.66456704694E+02  0.82419341479E+02  0.00000000000E+00 0.  1.
         11    1    1    2    0    0  0.42009735778E+02 -0.16287523688E+02  0.98910378456E+02  0.10868930166E+03  0.00000000000E+00 0. -1.
</event>
<event>
 7    1  0.2873461E-009  0.1043053E+03  0.7561462E-02  0.1271494E+00
          1   -1    0    0  501    0  0.00000000000E+00  0.00000000000E+00  0.20063964974E+04  0.20063964974E+04  0.00000000000E+00 0. -1.
         -1   -1    0    0    0  501 -0.00000000000E+00 -0.00000000000E+00 -0.95768436492E+01  0.95768436492E+01  0.00000000000E+00 0.  1.
         25    2    1    2    0    0 -0.14957800577E+02 -0.20433277242E+02  0.16898628756E+04  0.16946757375E+04  0.12509221401E+03 0.  0.
          5    1    3    3  502    0  0.36766760136E+02 -0.45224395201E+02  0.12046603215E+04  0.12060766988E+04  0.41800000000E+01 0.  1.
         -5    1    3    3    0  502 -0.51724560713E+02  0.24791117959E+02  0.48520255410E+03  0.48859903870E+03  0.41800000000E+01 0.  1.
        -11    1    1    2    0    0 -0.35194826785E+02  0.23661806502E+02  0.17577034429E+03  0.18081418875E+03  0.00000000000E+00 0.  1.
         11    1    1    2    0    0  0.50152627362E+02 -0.32285292595E+01  0.13118643385E+03  0.14048341489E+03  0.00000000000E+00 0. -1.
</event>
<event>
 7    1  0.2873461E-009  0.2386204E+03  0.7561462E-02  0.1120715E+00
         -1   -1    0    0    0  501 -0.00000000000E+00  0.00000000000E+00  0.61460779183E+02  0.61460779183E+02  0.00000000000E+00 0.  1.
          1   -1    0    0  501    0  0.00000000000E+00 -0.00000000000E+00 -0.12920523178E+04  0.12920523178E+04  0.00000000000E+00 0. -1.
         25    2    1    2    0    0  0.15769110138E+03  0.15044952791E+03 -0.29342428804E+03  0.38632504541E+03  0.12509070310E+03 0.  0.
          5    1    3    3  502    0  0.13611207181E+03  0.64854620111E+02 -0.23876243916E+03  0.28241386757E+03  0.41800000000E+01 0. -1.
         -5    1    3    3    0  502  0.21579029573E+02  0.85594907801E+02 -0.54661848879E+02  0.10391117785E+03  0.41800000000E+01 0. -1.
        -11    1    1    2    0    0 -0.55312940978E+02 -0.11852628319E+03 -0.46916033814E+03  0.48705176740E+03  0.00000000000E+00 0.  1.
         11    1    1    2    0    0 -0.10237816040E+03 -0.31923244722E+02 -0.46800691246E+03  0.48013628418E+03  0.00000000000E+00 0. -1.
</event>
<event>
 7    1  0.2873461E-009  0.1592692E+03  0.7561462E-02  0.1189524E+00
          1   -1    0    0  501    0  0.00000000000E+00  0.00000000000E+00  0.45268814367E+02  0.45268814367E+02  0.00000000000E+00 0. -1.
         -1   -1    0    0    0  501 -0.00000000000E+00 -0.00000000000E+00 -0.61273623150E+03  0.61273623150E+03  0.00000000000E+00 0.  1.
         25    2    1    2    0    0 -0.73155156364E+01  0.12325681225E+03 -0.32420525196E+03  0.36878481224E+03  0.12508970303E+03 0.  0.
          5    1    3    3  502    0 -0.61314184226E+02  0.84961366783E+02 -0.23748818319E+03  0.25960734310E+03  0.41800000000E+01 0.  1.
         -5    1    3    3    0  502  0.53998668590E+02  0.38295445471E+02 -0.86717068762E+02  0.10917746914E+03  0.41800000000E+01 0.  1.
        -11    1    1    2    0    0 -0.31405190257E+02 -0.93145799348E+02 -0.20379565538E+03  0.22626333124E+03  0.00000000000E+00 0. -1.
         11    1    1    2    0    0  0.38720705894E+02 -0.30111012906E+02 -0.39466509794E+02  0.62956902389E+02  0.00000000000E+00 0.  1.
</event>
<event>
 7    1  0.2873461E-009  0.9088509E+02  0.7561462E-02  0.1300722E+00
         -2   -1    0    0    0  501 -0.00000000000E+00  0.00000000000E+00  0.23187922530E+02  0.23187922530E+02  0.00000000000E+00 0.  1.
          2   -1    0    0  501    0  0.00000000000E+00 -0.00000000000E+00 -0.55006465313E+03  0.55006465313E+03  0.00000000000E+00 0. -1.
         25    2    1    2    0    0 -0.28140406057E+02 -0.16029993636E+01 -0.36339808903E+03  0.38535561149E+03  0.12508526744E+03 0.  0.
          5    1    3    3  502    0 -0.92330227766E+00  0.51812964405E+02 -0.78270638872E+02  0.93963828556E+02  0.41800000000E+01 0. -1.
         -5    1    3    3    0  502 -0.27217103779E+02 -0.53415963769E+02 -0.28512745016E+03  0.29139178293E+03  0.41800000000E+01 0. -1.
        -11    1    1    2    0    0  0.46364897836E+02  0.13046399991E+02 -0.40150520662E+02  0.62705475147E+02  0.00000000000E+00 0. -1.
         11    1    1    2    0    0 -0.18224491779E+02 -0.11443400627E+02 -0.12332812091E+03  0.12519148903E+03  0.00000000000E+00 0.  1.
</event>
<event>
 7    1  0.2873461E-009  0.9879022E+02  0.7561462E-02  0.1282861E+00
         -2   -1    0    0    0  501 -0.00000000000E+00  0.00000000000E+00  0.35084400372E+02  0.35084400372E+02  0.00000000000E+00 0.  1.
          2   -1    0    0  501    0  0.00000000000E+00 -0.00000000000E+00 -0.55085186579E+03  0.55085186579E+03  0.00000000000E+00 0. -1.
         25    2    1    2    0    0 -0.38195023559E+02  0.94851891927E+01 -0.12048370012E+03  0.17808047720E+03  0.12508999051E+03 0.  0.
          5    1    3    3  502    0 -0.36583214436E+02 -0.38380542012E+02 -0.55238091426E+01  0.53473193762E+02  0.41800000000E+01 0. -1.
         -5    1    3    3    0  502 -0.16118091238E+01  0.47865731205E+02 -0.11495989098E+03  0.12460728344E+03  0.41800000000E+01 0. -1.
        -11    1    1    2    0    0  0.60431131991E+01  0.38272323982E+02 -0.10506874290E+03  0.11198540412E+03  0.00000000000E+00 0.  1.
         11    1    1    2    0    0  0.32151910360E+02 -0.47757513174E+02 -0.29021502240E+03  0.29587038485E+03  0.00000000000E+00 0. -1.
</event>
<event>
 7    1  0.2873461E-009  0.2083364E+03  0.7561462E-02  0.1142890E+00
          2   -1    0    0  501    0  0.00000000000E+00  0.00000000000E+00  0.11212012937E+04  0.11212012937E+04  0.00000000000E+00 0. -1.
         -2   -1    0    0    0  501 -0.00000000000E+00 -0.00000000000E+00 -0.43531004288E+02  0.43531004288E+02  0.00000000000E+00 0.  1.
         25    2    1    2    0    0  0.12677253050E+02  0.18052833823E+03  0.70258249839E+03  0.73622073230E+03  0.12509039121E+03 0.  0.
          5    1    3    3  502    0  0.19293501357E+02  0.19340778601E+03  0.55885630035E+03  0.59170655541E+03  0.41800000000E+01 0.  1.
         -5    1    3    3    0  502 -0.66162483073E+01 -0.12879447774E+02  0.14372619804E+03  0.14451417688E+03  0.41800000000E+01 0.  1.
        -11    1    1    2    0    0  0.30181527544E+02 -0.15367970923E+03  0.28176888641E+03  0.32236948210E+03  0.00000000000E+00 0.  1.
         11    1    1    2    0    0 -0.42858780594E+02 -0.26848628999E+02  0.93318904640E+02  0.10614208363E+03  0.00000000000E+00 0. -1.
</event>
<event>
 7    1  0.2873461E-009  0.1398035E+03  0.7561462E-02  0.1213594E+00
          2   -1    0    0  501    0  0.00000000000E+00  0.00000000000E+00  0.16843918641E+04  0.16843918641E+04  0.00000000000E+00 0. -1.
         -2   -1    0    0    0  501 -0.00000000000E+00 -0.00000000000E+00 -0.16807295619E+02  0.16807295619E+02  0.00000000000E+00 0.  1.
         25    2    1    2    0    0  0.75374396126E+02  0.79783842121E+02  0.10711458075E+04  0.10839957620E+04  0.12508680980E+03 0.  0.
          5    1    3    3  502    0  0.11274657173E+02 -0.16751439291E+02  0.53760198353E+03  0.53799729898E+03  0.41800000000E+01 0.  1.
         -5    1    3    3    0  502  0.64099738953E+02  0.96535281412E+02  0.53354382397E+03  0.54599846299E+03  0.41800000000E+01 0.  1.
        -11    1    1    2    0    0 -0.18849939210E+02  0.20541569128E+02  0.38672535765E+02  0.47674325302E+02  0.00000000000E+00 0.  1.
         11    1    1    2    0    0 -0.56524456916E+02 -0.10032541125E+03  0.55776622521E+03  0.56952907244E+03  0.00000000000E+00 0. -1.
</event>
<event>
 7    1  0.2873461E-009  0.9668970E+02  0.7561462E-02  0.1287415E+00
          3   -1    0    0  501    0  0.00000000000E+00  0.00000000000E+00  0.50420819407E+02  0.50420819407E+02  0.00000000000E+00 0. -1.
         -3   -1    0    0    0  501 -0.00000000000E+00 -0.00000000000E+00 -0.42434192858E+03  0.42434192858E+03  0.00000000000E+00 0.  1.
         25    2    1    2    0    0  0.11511272313E+02 -0.51393405325E+02 -0.69217627851E+02  0.15235750361E+03  0.12509171595E+03 0.  0.
          5    1    3    3  502    0  0.25652375135E+02 -0.63807891824E+02  0.11075729588E+02  0.69782774343E+02  0.41800000000E+01 0. -1.
         -5    1    3    3    0  502 -0.14141102821E+02  0.12414486499E+02 -0.80293357439E+02  0.82574729263E+02  0.41800000000E+01 0. -1.
        -11    1    1    2    0    0 -0.24558803323E+02 -0.20590468402E+02 -0.84930136909E+02  0.90775714621E+02  0.00000000000E+00 0. -1.
         11    1    1    2    0    0  0.13047531010E+02  0.71983873727E+02 -0.21977334442E+03  0.23162952976E+03  0.00000000000E+00 0.  1.
</event>
<event>
 7    1  0.2873461E-009  0.9978935E+02  0.7561462E-02  0.1280740E+00
          2   -1    0    0  501    0  0.00000000000E+00  0.00000000000E+00  0.50836184647E+02  0.50836184647E+02  0.00000000000E+00 0. -1.
         -2   -1    0    0    0  501 -0.00000000000E+00 -0.00000000000E+00 -0.32731346263E+03  0.32731346263E+03  0.00000000000E+00 0.  1.
         25    2    1    2    0    0 -0.18833381403E+02 -0.66635504813E+02 -0.14522824671E+03  0.20379845553E+03  0.12509028769E+03 0.  0.
          5    1    3    3  502    0 -0.34619425573E+02 -0.53517624894E+02 -0.73031719502E+01  0.64291908681E+02  0.41800000000E+01 0.  1.
         -5    1    3    3    0  502  0.15786044170E+02 -0.13117879919E+02 -0.13792507476E+03  0.13950654684E+03  0.41800000000E+01 0.  1.
        -11    1    1    2    0    0  0.56013912818E+02  0.36046365346E+02 -0.74891021504E+02  0.10022756101E+03  0.00000000000E+00 0.  1.
         11    1    1    2    0    0 -0.37180531415E+02  0.30589139467E+02 -0.56358009763E+02  0.74123630740E+02  0.00000000000E+00 0. -1.
</event>
<event>
 7    1  0.2873461E-009  0.1281873E+03  0.7561462E-02  0.1230170E+00
         -4   -1    0    0    0  501 -0.00000000000E+00  0.00000000000E+00  0.10931430592E+03  0.10931430592E+03  0.00000000000E+00 0.  1.
          4   -1    0    0  501    0  0.00000000000E+00 -0.00000000000E+00 -0.19353494720E+03  0.19353494720E+03  0.00000000000E+00 0. -1.
         25    2    1    2    0    0 -0.64694477486E+01  0.95659406315E+02 -0.48595018569E+02  0.16492838546E+03  0.12508925106E+03 0.  0.
          5    1    3    3  502    0 -0.40238473644E+02  0.25679224949E+02  0.28201335180E+02  0.55599865658E+02  0.41800000000E+01 0. -1.
         -5    1    3    3    0  502  0.33769025895E+02  0.69980181365E+02 -0.76796353750E+02  0.10932851981E+03  0.41800000000E+01 0. -1.
        -11    1    1    2    0    0  0.42122480885E+02 -0.19223848622E+02  0.15796099457E+00  0.46302102581E+02  0.00000000000E+00 0. -1.
         11    1    1    2    0    0 -0.35653033136E+02 -0.76435557693E+02 -0.35783583704E+02  0.91618765077E+02  0.00000000000E+00 0.  1.
</event>
<event>
 7    1  0.2873461E-009  0.1418766E+03  0.7561462E-02  0.1210826E+00
          1   -1    0    0  501    0  0.00000000000E+00  0.00000000000E+00  0.30879105257E+03  0.30879105257E+03  0.00000000000E+00 0. -1.
         -1   -1    0    0    0  501 -0.00000000000E+00 -0.00000000000E+00 -0.95008866672E+02  0.95008866672E+02  0.00000000000E+00 0.  1.
         25    2    1    2    0    0  0.63095797212E+02 -0.10510386876E+03  0.18138168810E+03  0.25214014725E+03  0.12508970470E+03 0.  0.
          5    1    3    3  502    0  0.31513634788E+02  0.50692965015E+01 -0.57108324711E+01  0.32693928368E+02  0.41800000000E+01 0. -1.
         -5    1    3    3    0  502  0.31582162424E+02 -0.11017316526E+03  0.18709252057E+03  0.21944621888E+03  0.41800000000E+01 0. -1.
        -11    1    1    2    0    0 -0.63525845497E+02  0.47627168357E+02  0.47120250276E+02  0.92326584459E+02  0.00000000000E+00 0. -1.
         11    1    1    2    0    0  0.43004828491E+00  0.57476700399E+02 -0.14719752477E+02  0.59333187537E+02  0.00000000000E+00 0.  1.
</event>
<event>
 7    1  0.2873461E-009  0.1247448E+03  0.7561462E-02  0.1235469E+00
         -2   -1    0    0    0  501 -0.00000000000E+00  0.00000000000E+00  0.42399990604E+03  0.42399990604E+03  0.00000000000E+00 0.  1.
          2   -1    0    0  501    0  0.00000000000E+00 -0.00000000000E+00 -0.53030396202E+02  0.53030396202E+02  0.00000000000E+00 0. -1.
         25    2    1    2    0    0  0.55162987140E+02  0.56233204054E+02  0.94564282208E+02  0.17547551140E+03  0.12507646958E+03 0.  0.
          5    1    3    3  502    0 -0.31328236764E+02  0.13970719465E+02  0.66785739058E+02  0.75196055499E+02  0.41800000000E+01 0.  1.
         -5    1    3    3    0  502  0.86491223904E+02  0.42262484589E+02  0.27778543150E+02  0.10027945590E+03  0.41800000000E+01 0.  1.
        -11    1    1    2    0    0 -0.64337606579E+02 -0.28373625237E+01  0.17687374915E+03  0.18823310385E+03  0.00000000000E+00 0.  1.
         11    1    1    2    0    0  0.91746194393E+01 -0.53395841530E+02  0.99531478478E+02  0.11332168699E+03  0.00000000000E+00 0. -1.
</event>
<event>
 7    1  0.2873461E-009  0.8298398E+02  0.7561462E-02  0.1320790E+00
         -3   -1    0    0    0  501 -0.00000000000E+00  0.00000000000E+00  0.20280991597E+03  0.20280991597E+03  0.00000000000E+00 0.  1.
          3   -1    0    0  501    0  0.00000000000E+00 -0.00000000000E+00 -0.59297154262E+02  0.59297154262E+02  0.00000000000E+00 0. -1.
         25    2    1    2    0    0  0.10951488670E+02 -0.14404985683E+02  0.98883963200E+02  0.16047777746E+03  0.12509052788E+03 0.  0.
          5    1    3    3  502    0  0.52397747341E+02  0.17845544211E+02  0.91859915123E+02  0.10732988298E+03  0.41800000000E+01 0. -1.
         -5    1    3    3    0  502 -0.41446258672E+02 -0.32250529894E+02  0.70240480769E+01  0.53147894480E+02  0.41800000000E+01 0. -1.
        -11    1    1    2    0    0 -0.18686390640E+02  0.32839542134E+02 -0.13527820057E+02  0.40132513480E+02  0.00000000000E+00 0. -1.
         11    1    1    2    0    0  0.77349019707E+01 -0.18434556451E+02  0.58156618563E+02  0.61496779287E+02  0.00000000000E+00 0.  1.
</event>
<event>
 7    1  0.2873461E-009  0.1067351E+03  0.7561462E-02  0.1266738E+00
         -2   -1    0    0    0  501 -0.00000000000E+00  0.00000000000E+00  0.44726844221E+02  0.44726844221E+02  0.00000000000E+00 0.  1.
          2   -1    0    0  501    0  0.00000000000E+00 -0.00000000000E+00 -0.32826144917E+03  0.32826144917E+03  0.00000000000E+00 0. -1.
         25    2    1    2    0    0  0.38535411452E+02 -0.37699428224E+02 -0.14681081156E+03  0.20026718273E+03  0.12508918923E+03 0.  0.
          5    1    3    3  502    0  0.38665540457E+01  0.43429016287E+02 -0.27125876020E+02  0.51520047028E+02  0.41800000000E+01 0. -1.
         -5    1    3    3    0  502  0.34668857406E+02 -0.81128444511E+02 -0.11968493554E+03  0.14874713570E+03  0.41800000000E+01 0. -1.
        -11    1    1    2    0    0 -0.32938865733E+02 -0.91312442135E+01 -0.72732339914E+01  0.34946365038E+02  0.00000000000E+00 0.  1.
         11    1    1    2    0    0 -0.55965457185E+01  0.46830672437E+02 -0.12945055940E+03  0.13777474563E+03  0.00000000000E+00 0. -1.
</event>
<event>
 7    1  0.2873461E-009  0.1362581E+03  0.7561462E-02  0.1218455E+00
         -2   -1    0    0    0  501 -0.00000000000E+00  0.00000000000E+00  0.12255094895E+03  0.12255094895E+03  0.00000000000E+00 0. -1.
          2   -1    0    0  501    0  0.00000000000E+00 -0.00000000000E+00 -0.19774871216E+03  0.19774871216E+03  0.00000000000E+00 0.  1.
         25    2    1    2    0    0 -0.31949092411E+02 -0.10291895777E+03 -0.16753382287E+02  0.16595529664E+03  0.12508968099E+03 0.  0.
          5    1    3    3  502    0  0.36130416969E+02 -0.87591966763E+02 -0.15020539410E+02  0.96025250200E+02  0.41800000000E+01 0. -1.
         -5    1    3    3    0  502 -0.68079509380E+02 -0.15326991008E+02 -0.17328428771E+01  0.69930046440E+02  0.41800000000E+01 0. -1.
        -11    1    1    2    0    0  0.89250717757E+01  0.29225340517E+02  0.25857973061E+02  0.40030141211E+02  0.00000000000E+00 0. -1.
         11    1    1    2    0    0  0.23024020635E+02  0.73693617254E+02 -0.84302353989E+02  0.11431422325E+03  0.00000000000E+00 0.  1.
</event>
<event>
 7    1  0.2873461E-009  0.2082189E+03  0.7561462E-02  0.1142984E+00
         -2   -1    0    0    0  501 -0.00000000000E+00  0.00000000000E+00  0.14381666075E+03  0.14381666075E+03  0.00000000000E+00 0.  1.
          2   -1    0    0  501    0  0.00000000000E+00 -0.00000000000E+00 -0.30986669864E+03  0.30986669864E+03  0.00000000000E+00 0. -1.
         25    2    1    2    0    0 -0.13879263260E+03 -0.11430432758E+03 -0.84110405147E+02  0.23462892848E+03  0.12508916682E+03 0.  0.
          5    1    3    3  502    0 -0.61291739436E+02  0.15436127183E+02 -0.38469830446E+01  0.63460405168E+02  0.41800000000E+01 0.  1.
         -5    1    3    3    0  502 -0.77500893165E+02 -0.12974045477E+03 -0.80263422102E+02  0.17116852331E+03  0.41800000000E+01 0.  1.
        -11    1    1    2    0    0  0.48133079444E+01  0.55308305678E+02 -0.11942136566E+02  0.56787245365E+02  0.00000000000E+00 0. -1.
         11    1    1    2    0    0  0.13397932466E+03  0.58996021906E+02 -0.69997496173E+02  0.16226718555E+03  0.00000000000E+00 0.  1.
</event>
<event>
 7    1  0.2873461E-009  0.9275754E+02  0.7561462E-02  0.1296308E+00
         -2   -1    0    0    0  501 -0.00000000000E+00  0.00000000000E+00  0.28041219379E+03  0.28041219379E+03  0.00000000000E+00 0. -1.
          2   -1    0    0  501    0  0.00000000000E+00 -0.00000000000E+00 -0.68066947862E+02  0.68066947862E+02  0.00000000000E+00 0.  1.
         25    2    1    2    0    0 -0.18932722810E+02 -0.27918695194E+02  0.18199779822E+02  0.13082876339E+03  0.12508809619E+03 0.  0.
          5    1    3    3  502    0  0.63764985092E+01 -0.70746080914E+02  0.33454654601E+02  0.78627946764E+02  0.41800000000E+01 0. -1.
         -5    1    3    3    0  502 -0.25309221320E+02  0.42827385720E+02 -0.15254874779E+02  0.52200816622E+02  0.41800000000E+01 0. -1.
        -11    1    1    2    0    0  0.22506426801E+02 -0.11211426936E+02  0.65491808469E+01  0.25983208252E+02  0.00000000000E+00 0.  1.
         11    1    1    2    0    0 -0.35737039902E+01  0.39130122130E+02  0.18759628526E+03  0.19166717001E+03  0.00000000000E+00 0. -1.
</event>
<event>
 7    1  0.2873461E-009  0.1030097E+03  0.7561462E-02  0.1274091E+00
          4   -1    0    0  501    0  0.00000000000E+00  0.00000000000E+00  0.13303108065E+03  0.13303108065E+03  0.00000000000E+00 0. -1.
         -4   -1    0    0    0  501 -0.00000000000E+00 -0.00000000000E+00 -0.10231902932E+03  0.10231902932E+03  0.00000000000E+00 0.  1.
         25    2    1    2    0    0  0.63502135042E+01 -0.26972665730E+02 -0.15705602852E+02  0.12907786228E+03  0.12508628486E+03 0.  0.
          5    1    3    3  502    0  0.46890753532E+02  0.17923430719E+02  0.24810415208E+02  0.56151769681E+02  0.41800000000E+01 0. -1.
         -5    1    3    3    0  502 -0.40540540028E+02 -0.44896096449E+02 -0.40516018060E+02  0.72926092597E+02  0.41800000000E+01 0. -1.
        -11    1    1    2    0    0  0.26746647329E+02 -0.22862470884E+02  0.11576005091E+02  0.37041593002E+02  0.00000000000E+00 0.  1.
         11    1    1    2    0    0 -0.33096860833E+02  0.49835136614E+02  0.34841649090E+02  0.69230654696E+02  0.00000000000E+00 0. -1.
</event>
<event>
 7    1  0.2873461E-009  0.9934186E+02  0.7561462E-02  0.1281686E+00
         -1   -1    0    0    0  501 -0.00000000000E+00  0.00000000000E+00  0.81321386657E+02  0.81321386657E+02  0.00000000000E+00 0.  1.
          1   -1    0    0  501    0  0.00000000000E+00 -0.00000000000E+00 -0.15554532086E+03  0.15554532086E+03  0.00000000000E+00 0. -1.
         25    2    1    2    0    0 -0.31840473013E+02  0.47311743223E+01 -0.34446612143E+02  0.13368127076E+03  0.12509161975E+03 0.  0.
          5    1    3    3  502    0 -0.72442634084E+02 -0.21555719733E+02 -0.38570723324E+02  0.84957385694E+02  0.41800000000E+01 0.  1.
         -5    1    3    3    0  502  0.40602161071E+02  0.26286894055E+02  0.41241111812E+01  0.48723885064E+02  0.41800000000E+01 0.  1.
        -11    1    1    2    0    0  0.52308835119E+02 -0.10104049285E+02 -0.55416425062E+02  0.76871881792E+02  0.00000000000E+00 0. -1.
         11    1    1    2    0    0 -0.20468362107E+02  0.53728749628E+01  0.15639102998E+02  0.26313554972E+02  0.00000000000E+00 0.  1.
</event>
<event>
 7    1  0.2873461E-009  0.1606276E+03  0.7561462E-02  0.1187990E+00
         -1   -1    0    0    0  501 -0.00000000000E+00  0.00000000000E+00  0.47711482810E+03  0.47711482810E+03  0.00000000000E+00 0.  1.
          1   -1    0    0  501    0  0.00000000000E+00 -0.00000000000E+00 -0.61300680679E+02  0.61300680679E+02  0.00000000000E+00 0. -1.
         25    2    1    2    0    0 -0.55228632827E+02  0.11894196957E+03  0.19591022128E+03  0.26688264724E+03  0.12509252011E+03 0.  0.
          5    1    3    3  502    0 -0.33291287236E+02  0.13986752306E+03  0.18512171251E+03  0.23443283612E+03  0.41800000000E+01 0.  1.
         -5    1    3    3    0  502 -0.21937345591E+02 -0.20925553483E+02  0.10788508777E+02  0.32449811121E+02  0.41800000000E+01 0.  1.
        -11    1    1    2    0    0  0.49333057159E+02 -0.12733573016E+03  0.22239766009E+03  0.26097673827E+03  0.00000000000E+00 0.  1.
         11    1    1    2    0    0  0.58955756677E+01  0.83937605897E+01 -0.24937339553E+01  0.10556123262E+02  0.00000000000E+00 0. -1.
</event>
<event>
 7    1  0.2873461E-009  0.9287282E+02  0.7561462E-02  0.1296040E+00
          1   -1    0    0  501    0  0.00000000000E+00  0.00000000000E+00  0.60216707249E+03  0.60216707249E+03  0.00000000000E+00 0. -1.
         -1   -1    0    0    0  501 -0.00000000000E+00 -0.00000000000E+00 -0.23197138492E+02  0.23197138492E+02  0.00000000000E+00 0.  1.
         25    2    1    2    0    0 -0.10771634850E+02 -0.18565594289E+02  0.41178543507E+03  0.43090311521E+03  0.12509812450E+03 0.  0.
          5    1    3    3  502    0 -0.57454596859E+02 -0.20749265631E+01  0.10202600067E+03  0.11718409974E+03  0.41800000000E+01 0.  1.
         -5    1    3    3    0  502  0.46682962008E+02 -0.16490667726E+02  0.30975943440E+03  0.31371901547E+03  0.41800000000E+01 0.  1.
        -11    1    1    2    0    0 -0.17938501302E+02 -0.22208207280E+02  0.12770659365E+03  0.13085858153E+03  0.00000000000E+00 0. -1.
         11    1    1    2    0    0  0.28710136152E+02  0.40773801569E+02  0.39477905279E+02  0.63602514239E+02  0.00000000000E+00 0.  1.
</event>
<event>
 7    1  0.2873461E-009  0.6855748E+02  0.7561462E-02  0.1365068E+00
         -1   -1    0    0    0  501 -0.00000000000E+00  0.00000000000E+00  0.29001787588E+02  0.29001787588E+02  0.00000000000E+00 0. -1.
          1   -1    0    0  501    0  0.00000000000E+00 -0.00000000000E+00 -0.61002822824E+03  0.61002822824E+03  0.00000000000E+00 0.  1.
         25    2    1    2    0    0  0.59654894618E+02  0.17684335054E+02 -0.42632454094E+03  0.44863063303E+03  0.12508152755E+03 0.  0.
          5    1    3    3  502    0  0.11145252544E+02 -0.95874859191E+01 -0.36649609741E+03  0.36681466486E+03  0.41800000000E+01 0.  1.
         -5    1    3    3    0  502  0.48509642074E+02  0.27271820973E+02 -0.59828443530E+02  0.81815968176E+02  0.41800000000E+01 0.  1.
        -11    1    1    2    0    0 -0.42032018688E+02 -0.14406915178E+01 -0.16035180022E+03  0.16577534805E+03  0.00000000000E+00 0.  1.
         11    1    1    2    0    0 -0.17622875930E+02 -0.16243643536E+02  0.56499005052E+01  0.24624034744E+02  0.00000000000E+00 0. -1.
</event>
<event>
 7    1  0.2873461E-009  0.1336257E+03  0.7561462E-02  0.1222173E+00
         -2   -1    0    0    0  501 -0.00000000000E+00  0.00000000000E+00  0.27984109990E+02  0.27984109990E+02  0.00000000000E+00 0.  1.
          2   -1    0    0  501    0  0.00000000000E+00 -0.00000000000E+00 -0.82044192479E+03  0.82044192479E+03  0.00000000000E+00 0. -1.
         25    2    1    2    0    0 -0.53319536372E+02 -0.90235196359E+02 -0.41861528639E+03  0.44930094966E+03  0.12508885543E+03 0.  0.
          5    1    3    3  502    0 -0.31367789168E+01 -0.10854496790E+03 -0.30224528829E+03  0.32118769611E+03  0.41800000000E+01 0.  1.
         -5    1    3    3    0  502 -0.50182757456E+02  0.18309771539E+02 -0.11636999810E+03  0.12811325356E+03  0.41800000000E+01 0.  1.
        -11    1    1    2    0    0  0.67093932896E+01  0.15920428309E+02 -0.23734371340E+01  0.17438727009E+02  0.00000000000E+00 0.  1.
         11    1    1    2    0    0  0.46610143083E+02  0.74314768050E+02 -0.37146909128E+03  0.38168635811E+03  0.00000000000E+00 0. -1.
</event>
<event>
 7    1  0.3568158E-009  0.9805200E+02  0.7561462E-02  0.1284446E+00
          1   -1    0    0  501    0  0.00000000000E+00  0.00000000000E+00  0.34954957970E+03  0.34954957970E+03  0.00000000000E+00 0. -1.
         -1   -1    0    0    0  501 -0.00000000000E+00 -0.00000000000E+00 -0.44196408315E+02  0.44196408315E+02  0.00000000000E+00 0.  1.
         25    2    1    2    0    0 -0.13082858625E+02 -0.57454333597E+02  0.14658783251E+03  0.20148037993E+03  0.12503675146E+03 0.  0.
          5    1    3    3  502    0 -0.49574697068E+02 -0.63586857698E+02  0.14280767276E+03  0.16405012302E+03  0.41800000000E+01 0.  1.
         -5    1    3    3    0  502  0.36491838443E+02  0.61325241008E+01  0.37801597498E+01  0.37430256912E+02  0.41800000000E+01 0.  1.
        -11    1    1    2    0    0 -0.19872837561E+02  0.24141062109E+02  0.51850515841E+01  0.31695509341E+02  0.00000000000E+00 0.  1.
         11    1    1    2    0    0  0.32955696186E+02  0.33313271488E+02  0.15358028728E+03  0.16057009874E+03  0.00000000000E+00 0. -1.
</event>
<event>
 7    1  0.2873461E-009  0.1460249E+03  0.7561462E-02  0.1205444E+00
          2   -1    0    0  501    0  0.00000000000E+00  0.00000000000E+00  0.94268157689E+02  0.94268157689E+02  0.00000000000E+00 0.  1.
         -2   -1    0    0    0  501 -0.00000000000E+00 -0.00000000000E+00 -0.34498618043E+03  0.34498618043E+03  0.00000000000E+00 0. -1.
         25    2    1    2    0    0 -0.13690513579E+02  0.10195434874E+03 -0.25525814468E+03  0.30230166525E+03  0.12508979574E+03 0.  0.
          5    1    3    3  502    0  0.15997405824E+02 -0.25637569960E+02 -0.40440867500E+02  0.50657064174E+02  0.41800000000E+01 0.  1.
         -5    1    3    3    0  502 -0.29687919404E+02  0.12759191870E+03 -0.21481727719E+03  0.25164460108E+03  0.41800000000E+01 0.  1.
        -11    1    1    2    0    0  0.39862560366E+02 -0.20308186557E+02  0.21367809920E+02  0.49578518140E+02  0.00000000000E+00 0.  1.
         11    1    1    2    0    0 -0.26172046787E+02 -0.81646162180E+02 -0.16827687980E+02  0.87374154728E+02  0.00000000000E+00 0. -1.
</event>
<event>
 7    1  0.2873461E-009  0.1243541E+03  0.7561462E-02  0.1236082E+00
         -2   -1    0    0    0  501 -0.00000000000E+00  0.00000000000E+00  0.80266457478E+02  0.80266457478E+02  0.00000000000E+00 0.  1.
          2   -1    0    0  501    0  0.00000000000E+00 -0.00000000000E+00 -0.25915520217E+03  0.25915520217E+03  0.00000000000E+00 0. -1.
         25    2    1    2    0    0  0.89319065167E+02 -0.23780211850E+02 -0.12043634117E+03  0.19670665790E+03  0.12508078633E+03 0.  0.
          5    1    3    3  502    0 -0.30620320774E+02  0.56261726575E+01 -0.31335919885E+02  0.44369698423E+02  0.41800000000E+01 0. -1.
         -5    1    3    3    0  502  0.11993938594E+03 -0.29406384507E+02 -0.89100421288E+02  0.15233695948E+03  0.41800000000E+01 0. -1.
        -11    1    1    2    0    0 -0.29449500883E+02  0.37554233511E+00  0.24122035656E+02  0.38069498795E+02  0.00000000000E+00 0.  1.
         11    1    1    2    0    0 -0.59869564284E+02  0.23404669515E+02 -0.82574439179E+02  0.10464550295E+03  0.00000000000E+00 0. -1.
</event>
<event>
 7    1  0.2873461E-009  0.8099065E+02  0.7561462E-02  0.1326263E+00
         -1   -1    0    0    0  501 -0.00000000000E+00  0.00000000000E+00  0.25458029395E+02  0.25458029395E+02  0.00000000000E+00 0.  1.
          1   -1    0    0  501    0  0.00000000000E+00 -0.00000000000E+00 -0.50124713284E+03  0.50124713284E+03  0.00000000000E+00 0. -1.
         25    2    1    2    0    0  0.12206478606E+02 -0.21443065294E+02 -0.30980188814E+03  0.33501353857E+03  0.12509219784E+03 0.  0.
          5    1    3    3  502    0 -0.88649225183E+01  0.20610045691E+02 -0.27599591762E+03  0.27693786267E+03  0.41800000000E+01 0.  1.
         -5    1    3    3    0  502  0.21071401124E+02 -0.42053110986E+02 -0.33805970524E+02  0.58075675906E+02  0.41800000000E+01 0.  1.
        -11    1    1    2    0    0 -0.10922479209E+02  0.56152089730E+02 -0.75182789370E+02  0.94471210168E+02  0.00000000000E+00 0.  1.
         11    1    1    2    0    0 -0.12839993974E+01 -0.34709024436E+02 -0.90804425925E+02  0.97220413490E+02  0.00000000000E+00 0. -1.
</event>
<event>
 7    1  0.2873461E-009  0.9868199E+02  0.7561462E-02  0.1283092E+00
          3   -1    0    0  501    0  0.00000000000E+00  0.00000000000E+00  0.14226647000E+03  0.14226647000E+03  0.00000000000E+00 0. -1.
         -3   -1    0    0    0  501 -0.00000000000E+00 -0.00000000000E+00 -0.11664246739E+03  0.11664246739E+03  0.00000000000E+00 0.  1.
         25    2    1    2    0    0 -0.10348626650E+02  0.49510982141E+02 -0.33027123366E+02  0.13891394182E+03  0.12509141029E+03 0.  0.
          5    1    3    3  502    0  0.92741191703E+01 -0.26186124651E+02 -0.51310157969E+02  0.58497240289E+02  0.41800000000E+01 0.  1.
         -5    1    3    3    0  502 -0.19622745821E+02  0.75697106792E+02  0.18283034603E+02  0.80416701527E+02  0.41800000000E+01 0.  1.
        -11    1    1    2    0    0  0.40376818584E+02 -0.10479127806E+02  0.57113136531E+02  0.70724889275E+02  0.00000000000E+00 0. -1.
         11    1    1    2    0    0 -0.30028191933E+02 -0.39031854335E+02  0.15379894469E+01  0.49270106303E+02  0.00000000000E+00 0.  1.
</event>
<event>
 7    1  0.2873461E-009  0.8763811E+02  0.7561462E-02  0.1308674E+00
         -1   -1    0    0    0  501 -0.00000000000E+00  0.00000000000E+00  0.76389295341E+02  0.76389295341E+02  0.00000000000E+00 0.  1.
          1   -1    0    0  501    0  0.00000000000E+00 -0.00000000000E+00 -0.20070760564E+03  0.20070760564E+03  0.00000000000E+00 0. -1.
         25    2    1    2    0    0  0.43850197135E+02 -0.23275803527E+02 -0.28919699418E+02  0.13765863314E+03  0.12509575311E+03 0.  0.
          5    1    3    3  502    0 -0.25451023303E+02 -0.20898632069E+02  0.31372665890E+02  0.45675200871E+02  0.41800000000E+01 0. -1.
         -5    1    3    3    0  502  0.69301220438E+02 -0.23771714575E+01 -0.60292365308E+02  0.91983432273E+02  0.41800000000E+01 0. -1.
        -11    1    1    2    0    0 -0.27344409270E+02 -0.14814415939E+02  0.43442167300E+01  0.31401526347E+02  0.00000000000E+00 0.  1.
         11    1    1    2    0    0 -0.16505787865E+02  0.38090219466E+02 -0.99742827613E+02  0.10803674149E+03  0.00000000000E+00 0. -1.
</event>
<event>
 7    1  0.2873461E-009  0.1660837E+03  0.7561462E-02  0.1181995E+00
          2   -1    0    0  501    0  0.00000000000E+00  0.00000000000E+00  0.42882114661E+03  0.42882114661E+03  0.00000000000E+00 0. -1.
         -2   -1    0    0    0  501 -0.00000000000E+00 -0.00000000000E+00 -0.10099910906E+03  0.10099910906E+03  0.00000000000E+00 0.  1.
         25    2    1    2    0    0 -0.13047601873E+03 -0.60964844839E+02  0.31224822472E+03  0.36590518114E+03  0.12508774508E+03 0.  0.
          5    1    3    3  502    0 -0.24501775671E+01 -0.40785159696E+02  0.18976406121E+02  0.45243883684E+02  0.41800000000E+01 0. -1.
         -5    1    3    3    0  502 -0.12802584116E+03 -0.20179685143E+02  0.29327181860E+03  0.32066129745E+03  0.41800000000E+01 0. -1.
        -11    1    1    2    0    0  0.80886577039E+02  0.74553710332E+02  0.21731493599E+02  0.11213006681E+03  0.00000000000E+00 0. -1.
         11    1    1    2    0    0  0.49589441687E+02 -0.13588865493E+02 -0.61576807648E+01  0.51785007720E+02  0.00000000000E+00 0.  1.
</event>
<event>
 7    1  0.2873461E-009  0.9861804E+02  0.7561462E-02  0.1283229E+00
         -2   -1    0    0    0  501 -0.00000000000E+00  0.00000000000E+00  0.42964114305E+02  0.42964114305E+02  0.00000000000E+00 0.  1.
          2   -1    0    0  501    0  0.00000000000E+00 -0.00000000000E+00 -0.32147968475E+03  0.32147968475E+03  0.00000000000E+00 0. -1.
         25    2    1    2    0    0 -0.23667689930E+02  0.17708795770E+01 -0.21934744889E+03  0.25360612687E+03  0.12505786138E+03 0.  0.
          5    1    3    3  502    0  0.38317487263E+01 -0.59618072064E+02 -0.10193535092E+03  0.11822556823E+03  0.41800000000E+01 0. -1.
         -5    1    3    3    0  502 -0.27499438657E+02  0.61388951641E+02 -0.11741209797E+03  0.13538055865E+03  0.41800000000E+01 0. -1.
        -11    1    1    2    0    0  0.58824269403E+00  0.30374313380E+02 -0.64123617950E+02  0.70956207070E+02  0.00000000000E+00 0. -1.
         11    1    1    2    0    0  0.23079447236E+02 -0.32145192957E+02  0.49554963947E+01  0.39881465112E+02  0.00000000000E+00 0.  1.
</event>
<event>
 7    1  0.2873461E-009  0.1863497E+03  0.7561462E-02  0.1161795E+00
         -4   -1    0    0    0  501 -0.00000000000E+00  0.00000000000E+00  0.91614405766E+02  0.91614405766E+02  0.00000000000E+00 0.  1.
          4   -1    0    0  501    0  0.00000000000E+00 -0.00000000000E+00 -0.48626052076E+03  0.48626052076E+03  0.00000000000E+00 0. -1.
         25    2    1    2    0    0 -0.12748428203E+03  0.83871452669E+02 -0.33701355993E+03  0.39052770616E+03  0.12508831664E+03 0.  0.
          5    1    3    3  502    0 -0.13072658338E+03  0.19449703447E+02 -0.21377064366E+03  0.25136246947E+03  0.41800000000E+01 0.  1.
         -5    1    3    3    0  502  0.32423013494E+01  0.64421749222E+02 -0.12324291628E+03  0.13916523669E+03  0.41800000000E+01 0.  1.
        -11    1    1    2    0    0  0.88390250910E+02 -0.58770716737E+01 -0.13606312327E+02  0.89624261015E+02  0.00000000000E+00 0.  1.
         11    1    1    2    0    0  0.39094031120E+02 -0.77994380995E+02 -0.44026242737E+02  0.97722959357E+02  0.00000000000E+00 0. -1.
</event>
<event>
 7    1  0.2873461E-009  0.1442458E+03  0.7561462E-02  0.1207727E+00
          2   -1    0    0  501    0  0.00000000000E+00  0.00000000000E+00  0.98237919374E+03  0.98237919374E+03  0.00000000000E+00 0. -1.
         -2   -1    0    0    0  501 -0.00000000000E+00 -0.00000000000E+00 -0.24608785658E+02  0.24608785658E+02  0.00000000000E+00 0.  1.
         25    2    1    2    0    0 -0.41128256899E+02  0.91929485240E+02  0.66674877308E+03  0.68581680752E+03  0.12509277873E+03 0.  0.
          5    1    3    3  502    0 -0.75023333847E+02  0.93358433995E+02  0.58604595295E+03  0.59817357781E+03  0.41800000000E+01 0.  1.
         -5    1    3    3    0  502  0.33895076948E+02 -0.14289487556E+01  0.80702820129E+02  0.87643229702E+02  0.41800000000E+01 0.  1.
        -11    1    1    2    0    0  0.39314152607E+02 -0.10973848522E+03  0.23436652594E+03  0.26175524104E+03  0.00000000000E+00 0.  1.
         11    1    1    2    0    0  0.18141042923E+01  0.17808999981E+02  0.56655109063E+02  0.59415930840E+02  0.00000000000E+00 0. -1.
</event>
<event>
 7    1  0.2873461E-009  0.1461734E+03  0.7561462E-02  0.1205256E+00
         -1   -1    0    0    0  501 -0.00000000000E+00  0.00000000000E+00  0.48911327481E+02  0.48911327481E+02  0.00000000000E+00 0.  1.
          1   -1    0    0  501    0  0.00000000000E+00 -0.00000000000E+00 -0.52329475228E+03  0.52329475228E+03  0.00000000000E+00 0. -1.
         25    2    1    2    0    0 -0.31969373667E+02  0.10783039633E+03 -0.31184047037E+03  0.35431774908E+03  0.12508858112E+03 0.  0.
          5    1    3    3  502    0  0.34818619735E+02  0.85910367993E+02 -0.13352439387E+03  0.16260124159E+03  0.41800000000E+01 0. -1.
         -5    1    3    3    0  502 -0.66787993402E+02  0.21920028341E+02 -0.17831607650E+03  0.19171650749E+03  0.41800000000E+01 0. -1.
        -11    1    1    2    0    0  0.12624968242E+00 -0.94688815696E+02 -0.66101048004E+02  0.11547872663E+03  0.00000000000E+00 0.  1.
         11    1    1    2    0    0  0.31843123984E+02 -0.13141580639E+02 -0.96441906422E+02  0.10240960405E+03  0.00000000000E+00 0. -1.
</event>
<event>
 7    1  0.2873461E-009  0.8103610E+02  0.7561462E-02  0.1326137E+00
          2   -1    0    0  501    0  0.00000000000E+00  0.00000000000E+00  0.89603441040E+02  0.89603441040E+02  0.00000000000E+00 0. -1.
         -2   -1    0    0    0  501 -0.00000000000E+00 -0.00000000000E+00 -0.14589686085E+03  0.14589686085E+03  0.00000000000E+00 0.  1.
         25    2    1    2    0    0 -0.26588841341E+02  0.20129611368E+02 -0.42010630375E+02  0.13610172235E+03  0.12508644221E+03 0.  0.
          5    1    3    3  502    0 -0.24540476079E+02 -0.14525781880E+02  0.38635315978E+02  0.48201590701E+02  0.41800000000E+01 0.  1.
         -5    1    3    3    0  502 -0.20483652623E+01  0.34655393248E+02 -0.80645946352E+02  0.87900131652E+02  0.41800000000E+01 0.  1.
        -11    1    1    2    0    0 -0.59159843477E+01 -0.52251189990E+02 -0.96827554205E+01  0.53469070300E+02  0.00000000000E+00 0.  1.
         11    1    1    2    0    0  0.32504825689E+02  0.32121578623E+02 -0.46000340195E+01  0.45929509242E+02  0.00000000000E+00 0. -1.
</event>
<event>
 7    1  0.2873461E-009  0.1127750E+03  0.7561462E-02  0.1255516E+00
         -1   -1    0    0    0  501 -0.00000000000E+00  0.00000000000E+00  0.91104717540E+03  0.91104717540E+03  0.00000000000E+00 0.  1.
          1   -1    0    0  501    0  0.00000000000E+00 -0.00000000000E+00 -0.24757806527E+02  0.24757806527E+02  0.00000000000E+00 0. -1.
         25    2    1    2    0    0 -0.61529054993E+02 -0.49928335204E+02  0.68491133759E+03  0.70073517566E+03  0.12509029854E+03 0.  0.
          5    1    3    3  502    0  0.15958622576E+02  0.30379905590E+02  0.11945221138E+03  0.12435400879E+03  0.41800000000E+01 0. -1.
         -5    1    3    3    0  502 -0.77487677569E+02 -0.80308240794E+02  0.56545912621E+03  0.57638116688E+03  0.41800000000E+01 0. -1.
        -11    1    1    2    0    0  0.26949122575E+02  0.19790525166E+02  0.18238285096E+03  0.18542228673E+03  0.00000000000E+00 0.  1.
         11    1    1    2    0    0  0.34579932417E+02  0.30137810037E+02  0.18995180325E+02  0.49647519529E+02  0.00000000000E+00 0. -1.
</event>
<event>
 6    1  0.4293860E-009  0.1506736E+03  0.7561462E-02  0.1199648E+00
          1   -1    0    0  501    0  0.00000000000E+00  0.00000000000E+00  0.11087090310E+04  0.11087090310E+04  0.00000000000E+00 0. -1.
         -1   -1    0    0    0  501 -0.00000000000E+00 -0.00000000000E+00 -0.27985092483E+02  0.27985092483E+02  0.00000000000E+00 0.  1.
          5    1    1    2  502    0 -0.24710846250E+02  0.14079230621E+02  0.10566391105E+02  0.30626323290E+02  0.41800000000E+01 0. -1.
         -5    1    1    2    0  502  0.54789888336E+02  0.10672453011E+03  0.36655938938E+03  0.38571403336E+03  0.41800000000E+01 0. -1.
        -11    1    1    2    0    0  0.27930555599E+02 -0.14523955763E+02  0.10434056833E+03  0.10898630844E+03  0.00000000000E+00 0.  1.
         11    1    1    2    0    0 -0.58009597685E+02 -0.10627980497E+03  0.59925758975E+03  0.61136745844E+03  0.00000000000E+00 0. -1.
</event>
<event>
 7    1  0.2873461E-009  0.2068042E+03  0.7561462E-02  0.1144122E+00
         -2   -1    0    0    0  501 -0.00000000000E+00  0.00000000000E+00  0.29431927086E+02  0.29431927086E+02  0.00000000000E+00 0. -1.
          2   -1    0    0  501    0  0.00000000000E+00 -0.00000000000E+00 -0.18029054760E+04  0.18029054760E+04  0.00000000000E+00 0.  1.
         25    2    1    2    0    0 -0.19512511326E+03 -0.11706151685E+02 -0.11284379543E+04  0.11520563296E+04  0.12510286275E+03 0.  0.
          5    1    3    3  502    0 -0.10651280234E+03  0.33939349360E+02 -0.35495102811E+03  0.37216200942E+03  0.41800000000E+01 0. -1.
         -5    1    3    3    0  502 -0.88612310920E+02 -0.45645501045E+02 -0.77348692615E+03  0.77989432023E+03  0.41800000000E+01 0. -1.
        -11    1    1    2    0    0  0.11914665313E+03 -0.17799920406E+02 -0.25777340536E+03  0.28453451571E+03  0.00000000000E+00 0. -1.
         11    1    1    2    0    0  0.75978460125E+02  0.29506072090E+02 -0.38726218930E+03  0.39574655773E+03  0.00000000000E+00 0.  1.
</event>
<event>
 7    1  0.2873461E-009  0.6719779E+02  0.7561462E-02  0.1369890E+00
         -1   -1    0    0    0  501 -0.00000000000E+00  0.00000000000E+00  0.13256680153E+03  0.13256680153E+03  0.00000000000E+00 0.  1.
          1   -1    0    0  501    0  0.00000000000E+00 -0.00000000000E+00 -0.12266300418E+03  0.12266300418E+03  0.00000000000E+00 0. -1.
         25    2    1    2    0    0  0.32574938578E+02  0.11064272423E+02  0.60218967448E+02  0.14303697569E+03  0.12509879147E+03 0.  0.
          5    1    3    3  502    0 -0.72130359581E+01 -0.85063094736E+01 -0.35510313166E+02  0.37454504799E+02  0.41800000000E+01 0.  1.
         -5    1    3    3    0  502  0.39787974537E+02  0.19570581897E+02  0.95729280614E+02  0.10558247090E+03  0.41800000000E+01 0.  1.
        -11    1    1    2    0    0 -0.54622027331E+02 -0.38791348267E+01  0.21813907376E+01  0.54803029317E+02  0.00000000000E+00 0.  1.
         11    1    1    2    0    0  0.22047088752E+02 -0.71851375965E+01 -0.52496560832E+02  0.57389800696E+02  0.00000000000E+00 0. -1.
</event>
<event>
 7    1  0.2873461E-009  0.1245549E+03  0.7561462E-02  0.1235767E+00
          1   -1    0    0  501    0  0.00000000000E+00  0.00000000000E+00  0.85207169667E+02  0.85207169667E+02  0.00000000000E+00 0. -1.
         -1   -1    0    0    0  501 -0.00000000000E+00 -0.00000000000E+00 -0.32592533179E+03  0.32592533179E+03  0.00000000000E+00 0.  1.
         25    2    1    2    0    0  0.88246974505E+02  0.55683900840E+02 -0.38628724098E+02  0.16741459528E+03  0.12508894062E+03 0.  0.
          5    1    3    3  502    0  0.88171877813E+02  0.37579438374E+01  0.18323331018E+02  0.90230920635E+02  0.41800000000E+01 0. -1.
         -5    1    3    3    0  502  0.75096691428E-01  0.51925957002E+02 -0.56952055116E+02  0.77183674647E+02  0.41800000000E+01 0. -1.
        -11    1    1    2    0    0 -0.41850172433E+02 -0.44197333222E+02 -0.35623336460E+02  0.70525621565E+02  0.00000000000E+00 0.  1.
         11    1    1    2    0    0 -0.46396802072E+02 -0.11486567618E+02 -0.16646610157E+03  0.17319228461E+03  0.00000000000E+00 0. -1.
</event>
<event>
 7    1  0.2873461E-009  0.1096965E+03  0.7561462E-02  0.1261133E+00
          1   -1    0    0  501    0  0.00000000000E+00  0.00000000000E+00  0.62071320171E+03  0.62071320171E+03  0.00000000000E+00 0. -1.
         -1   -1    0    0    0  501 -0.00000000000E+00 -0.00000000000E+00 -0.28207231319E+02  0.28207231319E+02  0.00000000000E+00 0.  1.
         25    2    1    2    0    0  0.62692373268E+02  0.40294345498E+02  0.36773854359E+03  0.39551779319E+03  0.12509484539E+03 0.  0.
          5    1    3    3  502    0  0.95961084071E+02  0.86966890718E+01  0.20807965844E+03  0.22934423628E+03  0.41800000000E+01 0.  1.
         -5    1    3    3    0  502 -0.33268710804E+02  0.31597656427E+02  0.15965888515E+03  0.16617355692E+03  0.41800000000E+01 0.  1.
        -11    1    1    2    0    0 -0.34308461306E+02 -0.32922989733E+02  0.21823932810E+03  0.22335934747E+03  0.00000000000E+00 0. -1.
         11    1    1    2    0    0 -0.28383911962E+02 -0.73713557657E+01  0.65280987012E+01  0.30043292375E+02  0.00000000000E+00 0.  1.
</event>
<event>
 7    1  0.2873461E-009  0.1228687E+03  0.7561462E-02  0.1238438E+00
          1   -1    0    0  501    0  0.00000000000E+00  0.00000000000E+00  0.23609603562E+03  0.23609603562E+03  0.00000000000E+00 0. -1.
         -1   -1    0    0    0  501 -0.00000000000E+00 -0.00000000000E+00 -0.69315778049E+02  0.69315778049E+02  0.00000000000E+00 0.  1.
         25    2    1    2    0    0  0.57680943550E+02 -0.15014246117E+02  0.58924634454E+02  0.15057931412E+03  0.12509795546E+03 0.  0.
          5    1    3    3  502    0 -0.37950161859E+02 -0.71651808893E+01  0.19221543029E+01  0.38893722880E+02  0.41800000000E+01 0.  1.
         -5    1    3    3    0  502  0.95631105409E+02 -0.78490652274E+01  0.57002480151E+02  0.11168559124E+03  0.41800000000E+01 0.  1.
        -11    1    1    2    0    0  0.20488353089E+02 -0.16756955627E+02  0.21540985978E+02  0.34125976193E+02  0.00000000000E+00 0.  1.
         11    1    1    2    0    0 -0.78169296640E+02  0.31771201743E+02  0.86314637140E+02  0.12070652336E+03  0.00000000000E+00 0. -1.
</event>
<event>
 7    1  0.2873461E-009  0.1291728E+03  0.7561462E-02  0.1228688E+00
         -1   -1    0    0    0  501 -0.00000000000E+00  0.00000000000E+00  0.58670089375E+03  0.58670089375E+03  0.00000000000E+00 0.  1.
          1   -1    0    0  501    0  0.00000000000E+00 -0.00000000000E+00 -0.29106917579E+02  0.29106917579E+02  0.00000000000E+00 0. -1.
         25    2    1    2    0    0 -0.40086893402E+02 -0.55561835546E+02  0.35323804854E+03  0.38094432820E+03  0.12508951058E+03 0.  0.
          5    1    3    3  502    0  0.38707709827E+02  0.97960869327E+01  0.96678812356E+02  0.10468292735E+03  0.41800000000E+01 0.  1.
         -5    1    3    3    0  502 -0.78794603229E+02 -0.65357922479E+02  0.25655923618E+03  0.27626140085E+03  0.41800000000E+01 0.  1.
        -11    1    1    2    0    0  0.64304848801E+02  0.11304749493E+02  0.11338178568E+03  0.13083707527E+03  0.00000000000E+00 0.  1.
         11    1    1    2    0    0 -0.24217955399E+02  0.44257086053E+02  0.90974141951E+02  0.10402640787E+03  0.00000000000E+00 0. -1.
</event>
<event>
 7    1  0.2873461E-009  0.9930335E+02  0.7561462E-02  0.1281768E+00
          1   -1    0    0  501    0  0.00000000000E+00  0.00000000000E+00  0.31249224583E+03  0.31249224583E+03  0.00000000000E+00 0. -1.
         -1   -1    0    0    0  501 -0.00000000000E+00 -0.00000000000E+00 -0.42662477876E+02  0.42662477876E+02  0.00000000000E+00 0.  1.
         25    2    1    2    0    0  0.18338818529E+02 -0.11744731883E+02  0.19011743335E+03  0.22861488352E+03  0.12508347416E+03 0.  0.
          5    1    3    3  502    0 -0.12632343515E+02  0.39221972669E+02  0.15797860844E+02  0.44328140610E+02  0.41800000000E+01 0.  1.
         -5    1    3    3    0  502  0.30971162044E+02 -0.50966704552E+02  0.17431957251E+03  0.18428674291E+03  0.41800000000E+01 0.  1.
        -11    1    1    2    0    0  0.20019097586E+02 -0.32919805471E+02  0.39909029526E+02  0.55472592315E+02  0.00000000000E+00 0. -1.
         11    1    1    2    0    0 -0.38357916115E+02  0.44664537355E+02  0.39803305076E+02  0.71067247877E+02  0.00000000000E+00 0.  1.
</event>
<event>
 7    1  0.2873461E-009  0.9818760E+02  0.7561462E-02  0.1284154E+00
          2   -1    0    0  501    0  0.00000000000E+00  0.00000000000E+00  0.11146175563E+03  0.11146175563E+03  0.00000000000E+00 0. -1.
         -2   -1    0    0    0  501 -0.00000000000E+00 -0.00000000000E+00 -0.13077638576E+03  0.13077638576E+03  0.00000000000E+00 0.  1.
         25    2    1    2    0    0  0.39385469110E+02  0.36306018746E+02 -0.23251693682E+02  0.13805093445E+03  0.12509227422E+03 0.  0.
          5    1    3    3  502    0 -0.44111305787E+02  0.91650188593E+01 -0.21601467306E+02  0.50138813894E+02  0.41800000000E+01 0.  1.
         -5    1    3    3    0  502  0.83496774897E+02  0.27140999887E+02 -0.16502263760E+01  0.87912120553E+02  0.41800000000E+01 0.  1.
        -11    1    1    2    0    0 -0.23198859407E+02  0.30629098205E+00 -0.39065835380E+02  0.45435893145E+02  0.00000000000E+00 0.  1.
         11    1    1    2    0    0 -0.16186609703E+02 -0.36612309728E+02  0.43002898932E+02  0.58751313806E+02  0.00000000000E+00 0. -1.
</event>
<event>
 7    1  0.2873461E-009  0.2830283E+03  0.7561462E-02  0.1094046E+00
          1   -1    0    0  501    0  0.00000000000E+00  0.00000000000E+00  0.47479143582E+03  0.47479143582E+03  0.00000000000E+00 0. -1.
         -1   -1    0    0    0  501 -0.00000000000E+00 -0.00000000000E+00 -0.20494081664E+03  0.20494081664E+03  0.00000000000E+00 0.  1.
         25    2    1    2    0    0 -0.99510651587E+02  0.26097449320E+03  0.23082995522E+03  0.38332765635E+03  0.12509023948E+03 0.  0.
          5    1    3    3  502    0 -0.94285069772E+02  0.22445573534E+03  0.13030256466E+03  0.27616350640E+03  0.41800000000E+01 0. -1.
         -5    1    3    3    0  502 -0.52255818151E+01  0.36518757861E+02  0.10052739056E+03  0.10716414995E+03  0.41800000000E+01 0. -1.
        -11    1    1    2    0    0  0.28478528934E+02 -0.21585907344E+02 -0.18383982143E+02  0.40186425638E+02  0.00000000000E+00 0.  1.
         11    1    1    2    0    0  0.71032122653E+02 -0.23938858586E+03  0.57404646105E+02  0.25621817048E+03  0.00000000000E+00 0. -1.
</event>
<event>
 7    1  0.2873461E-009  0.1081129E+03  0.7561462E-02  0.1264105E+00
          2   -1    0    0  501    0  0.00000000000E+00  0.00000000000E+00  0.51351475575E+03  0.51351475575E+03  0.00000000000E+00 0. -1.
         -2   -1    0    0    0  501 -0.00000000000E+00 -0.00000000000E+00 -0.42116601131E+02  0.42116601131E+02  0.00000000000E+00 0.  1.
         25    2    1    2    0    0  0.13106140076E+02  0.54645449112E+02  0.11276014951E+03  0.17755100386E+03  0.12510640127E+03 0.  0.
          5    1    3    3  502    0 -0.47710181347E+02  0.10693284568E+02  0.97355205030E+01  0.50028596807E+02  0.41800000000E+01 0.  1.
         -5    1    3    3    0  502  0.60816321423E+02  0.43952164545E+02  0.10302462901E+03  0.12752240706E+03  0.41800000000E+01 0.  1.
        -11    1    1    2    0    0 -0.42610670185E+02 -0.42226131089E+02  0.32910026681E+03  0.33452309483E+03  0.00000000000E+00 0. -1.
         11    1    1    2    0    0  0.29504530109E+02 -0.12419318024E+02  0.29537738309E+02  0.43557258196E+02  0.00000000000E+00 0.  1.
</event>
<event>
 7    1  0.2873461E-009  0.1045634E+03  0.7561462E-02  0.1270982E+00
          4   -1    0    0  501    0  0.00000000000E+00  0.00000000000E+00  0.63093576860E+02  0.63093576860E+02  0.00000000000E+00 0. -1.
         -4   -1    0    0    0  501 -0.00000000000E+00 -0.00000000000E+00 -0.33595533754E+03  0.33595533754E+03  0.00000000000E+00 0.  1.
         25    2    1    2    0    0 -0.58290949011E+02 -0.75429484165E+02 -0.16816942785E+03  0.23025181086E+03  0.12508996012E+03 0.  0.
          5    1    3    3  502    0 -0.16654312457E+02 -0.35018721021E+02 -0.16759761321E+03  0.17207588239E+03  0.41800000000E+01 0.  1.
         -5    1    3    3    0  502 -0.41636636553E+02 -0.40410763144E+02 -0.57181463909E+00  0.58175928470E+02  0.41800000000E+01 0.  1.
        -11    1    1    2    0    0  0.22390088381E+02  0.72560515817E+02 -0.22721063546E+02  0.79262798601E+02  0.00000000000E+00 0. -1.
         11    1    1    2    0    0  0.35900860629E+02  0.28689683477E+01 -0.81971269282E+02  0.89534304939E+02  0.00000000000E+00 0.  1.
</event>
<event>
 7    1  0.6271299E-009  0.1839769E+03  0.7561462E-02  0.1164009E+00
          1   -1    0    0  501    0  0.00000000000E+00  0.00000000000E+00  0.69132583261E+03  0.69132583261E+03  0.00000000000E+00 0. -1.
         -1   -1    0    0    0  501 -0.00000000000E+00 -0.00000000000E+00 -0.67722278448E+02  0.67722278448E+02  0.00000000000E+00 0.  1.
         25    2    1    2    0    0 -0.10103112555E+03 -0.14354202088E+03  0.43629965880E+03  0.48663766047E+03  0.12508884932E+03 0.  0.
          5    1    3    3  502    0 -0.77789487495E+02 -0.51892015022E+02  0.33574446181E+03  0.34854813387E+03  0.41800000000E+01 0.  1.
         -5    1    3    3    0  502 -0.23241638051E+02 -0.91650005861E+02  0.10055519700E+03  0.13808952660E+03  0.41800000000E+01 0.  1.
        -11    1    1    2    0    0  0.25106166650E+02  0.68500733152E+02  0.23043551326E+02  0.76509315145E+02  0.00000000000E+00 0. -1.
         11    1    1    2    0    0  0.75924958896E+02  0.75041287731E+02  0.16426034403E+03  0.19590113545E+03  0.00000000000E+00 0.  1.
</event>
<event>
 7    1  0.2873461E-009  0.2388521E+03  0.7561462E-02  0.1120560E+00
          1   -1    0    0  501    0  0.00000000000E+00  0.00000000000E+00  0.41026475619E+03  0.41026475619E+03  0.00000000000E+00 0. -1.
         -1   -1    0    0    0  501 -0.00000000000E+00 -0.00000000000E+00 -0.26147256269E+03  0.26147256269E+03  0.00000000000E+00 0.  1.
         25    2    1    2    0    0 -0.89812235048E+02  0.19897416452E+03 -0.14802142751E+03  0.29191667460E+03  0.12509215083E+03 0.  0.
          5    1    3    3  502    0 -0.76199319705E+02  0.21440773428E+03 -0.14692190334E+03  0.27088841046E+03  0.41800000000E+01 0.  1.
         -5    1    3    3    0  502 -0.13612915342E+02 -0.15433569755E+02 -0.10995241683E+01  0.21028264144E+02  0.41800000000E+01 0.  1.
        -11    1    1    2    0    0  0.33295200324E+02 -0.15207986528E+03  0.15267463021E+03  0.21805136664E+03  0.00000000000E+00 0. -1.
         11    1    1    2    0    0  0.56517034723E+02 -0.46894299245E+02  0.14413899080E+03  0.16176927763E+03  0.00000000000E+00 0.  1.
</event>
<event>
 7    1  0.2873461E-009  0.1680131E+03  0.7561462E-02  0.1179936E+00
          2   -1    0    0  501    0  0.00000000000E+00  0.00000000000E+00  0.21448052439E+04  0.21448052439E+04  0.00000000000E+00 0. -1.
         -2   -1    0    0    0  501 -0.00000000000E+00 -0.00000000000E+00 -0.15541131897E+02  0.15541131897E+02  0.00000000000E+00 0.  1.
         25    2    1    2    0    0  0.13346835977E+02  0.14540027059E+03  0.11914051714E+04  0.12068191491E+04  0.12508716744E+03 0.  0.
          5    1    3    3  502    0  0.15560435993E+02 -0.22817687263E+01  0.47781288531E+03  0.47808990724E+03  0.41800000000E+01 0. -1.
         -5    1    3    3    0  502 -0.22136000160E+01  0.14768203932E+03  0.71359228608E+03  0.72872924184E+03  0.41800000000E+01 0. -1.
        -11    1    1    2    0    0  0.38030805209E+02 -0.82009994932E+02  0.51289319110E+03  0.52079881614E+03  0.00000000000E+00 0.  1.
         11    1    1    2    0    0 -0.51377641186E+02 -0.63390275661E+02  0.42496574951E+03  0.43272841058E+03  0.00000000000E+00 0. -1.
</event>
<event>
 7    1  0.2873461E-009  0.2001756E+03  0.7561462E-02  0.1149591E+00
         -1   -1    0    0    0  501 -0.00000000000E+00  0.00000000000E+00  0.99918502969E+02  0.99918502969E+02  0.00000000000E+00 0.  1.
          1   -1    0    0  501    0  0.00000000000E+00 -0.00000000000E+00 -0.42366705532E+03  0.42366705532E+03  0.00000000000E+00 0. -1.
         25    2    1    2    0    0  0.72347105900E+02  0.15651702019E+03 -0.13405383404E+03  0.25169306427E+03  0.12508911559E+03 0.  0.
          5    1    3    3  502    0  0.77979783266E+02  0.17348971600E+03 -0.13502933536E+03  0.23330221165E+03  0.41800000000E+01 0.  1.
         -5    1    3    3    0  502 -0.56326773656E+01 -0.16972695807E+02  0.97550131433E+00  0.18390852619E+02  0.41800000000E+01 0.  1.
        -11    1    1    2    0    0 -0.28620931122E+02  0.61606907785E+00 -0.47742260823E+02  0.55667411543E+02  0.00000000000E+00 0. -1.
         11    1    1    2    0    0 -0.43726174778E+02 -0.15713308927E+03 -0.14195245748E+03  0.21622508247E+03  0.00000000000E+00 0.  1.
</event>
<event>
 7    1  0.2873461E-009  0.1620082E+03  0.7561462E-02  0.1186448E+00
          2   -1    0    0  501    0  0.00000000000E+00  0.00000000000E+00  0.45959774148E+03  0.45959774148E+03  0.00000000000E+00 0.  1.
         -2   -1    0    0    0  501 -0.00000000000E+00 -0.00000000000E+00 -0.88879228803E+02  0.88879228803E+02  0.00000000000E+00 0. -1.
         25    2    1    2    0    0 -0.36193011902E+02  0.15014305759E+03  0.18077466877E+03  0.26866394854E+03  0.12509182436E+03 0.  0.
          5    1    3    3  502    0 -0.35902259362E+02  0.24240386651E+02 -0.54217939120E+01  0.43857004246E+02  0.41800000000E+01 0.  1.
         -5    1    3    3    0  502 -0.29075253997E+00  0.12590267094E+03  0.18619646269E+03  0.22480694430E+03  0.41800000000E+01 0.  1.
        -11    1    1    2    0    0  0.13917570518E+02 -0.68267606022E+02  0.18165484445E+03  0.19455756812E+03  0.00000000000E+00 0.  1.
         11    1    1    2    0    0  0.22275441383E+02 -0.81875451570E+02  0.82889994451E+01  0.85255453611E+02  0.00000000000E+00 0. -1.
</event>
<event>
 7    1  0.2873461E-009  0.1068903E+03  0.7561462E-02  0.1266439E+00
         -2   -1    0    0    0  501 -0.00000000000E+00  0.00000000000E+00  0.62024841047E+03  0.62024841047E+03  0.00000000000E+00 0.  1.
          2   -1    0    0  501    0  0.00000000000E+00 -0.00000000000E+00 -0.40667648703E+02  0.40667648703E+02  0.00000000000E+00 0. -1.
         25    2    1    2    0    0 -0.91633979084E+02  0.30032024172E+02  0.42949678931E+03  0.45761731252E+03  0.12508958426E+03 0.  0.
          5    1    3    3  502    0 -0.91152282657E+01  0.83896351189E+01 -0.55948453709E+01  0.14221394393E+02  0.41800000000E+01 0. -1.
         -5    1    3    3    0  502 -0.82518750818E+02  0.21642389053E+02  0.43509163468E+03  0.44339591812E+03  0.41800000000E+01 0. -1.
        -11    1    1    2    0    0  0.87927582482E+02 -0.45769019145E+02  0.15703180477E+03  0.18570150937E+03  0.00000000000E+00 0.  1.
         11    1    1    2    0    0  0.37063966018E+01  0.15736994972E+02 -0.69478323025E+01  0.17597237290E+02  0.00000000000E+00 0. -1.
</event>
<event>
 7    1  0.2873461E-009  0.1819742E+03  0.7561462E-02  0.1165906E+00
         -2   -1    0    0    0  501 -0.00000000000E+00  0.00000000000E+00  0.12374296017E+03  0.12374296017E+03  0.00000000000E+00 0. -1.
          2   -1    0    0  501    0  0.00000000000E+00 -0.00000000000E+00 -0.32882141259E+03  0.32882141259E+03  0.00000000000E+00 0.  1.
         25    2    1    2    0    0  0.36707368201E+02 -0.16508427960E+03 -0.11654393532E+03  0.24047954023E+03  0.12509064775E+03 0.  0.
          5    1    3    3  502    0  0.19135631291E+02  0.52556596368E+01 -0.54740511920E+02  0.58376282755E+02  0.41800000000E+01 0. -1.
         -5    1    3    3    0  502  0.17571736911E+02 -0.17033993924E+03 -0.61803423404E+02  0.18210325747E+03  0.41800000000E+01 0. -1.
        -11    1    1    2    0    0 -0.39768492740E+02  0.10606757765E+03 -0.98860398978E+01  0.11370838943E+03  0.00000000000E+00 0. -1.
         11    1    1    2    0    0  0.30611245381E+01  0.59016701952E+02 -0.78648477192E+02  0.98376443102E+02  0.00000000000E+00 0.  1.
</event>
<event>
 7    1  0.2873461E-009  0.9935741E+02  0.7561462E-02  0.1281653E+00
          2   -1    0    0  501    0  0.00000000000E+00  0.00000000000E+00  0.10466915818E+03  0.10466915818E+03  0.00000000000E+00 0. -1.
         -2   -1    0    0    0  501 -0.00000000000E+00 -0.00000000000E+00 -0.16929515848E+03  0.16929515848E+03  0.00000000000E+00 0.  1.
         25    2    1    2    0    0 -0.46017845882E+02  0.52333364924E+02  0.48344263231E+00  0.14320028191E+03  0.12509861629E+03 0.  0.
          5    1    3    3  502    0 -0.55660484471E+02 -0.23391002972E+01  0.45144848239E+02  0.71826810066E+02  0.41800000000E+01 0. -1.
         -5    1    3    3    0  502  0.96426385891E+01  0.54672465222E+02 -0.44661405606E+02  0.71373471844E+02  0.41800000000E+01 0. -1.
        -11    1    1    2    0    0  0.34164952896E+01 -0.43542419753E+02  0.92228920661E+01  0.44639405194E+02  0.00000000000E+00 0. -1.
         11    1    1    2    0    0  0.42601350592E+02 -0.87909451718E+01 -0.74332334998E+02  0.86124629552E+02  0.00000000000E+00 0.  1.
</event>
<event>
 7    1  0.2873461E-009  0.1603202E+03  0.7561462E-02  0.1188336E+00
          1   -1    0    0  501    0  0.00000000000E+00  0.00000000000E+00  0.69378791562E+02  0.69378791562E+02  0.00000000000E+00 0. -1.
         -1   -1    0    0    0  501 -0.00000000000E+00 -0.00000000000E+00 -0.56234943103E+03  0.56234943103E+03  0.00000000000E+00 0.  1.
         25    2    1    2    0    0  0.26623495614E+02 -0.13876330534E+03 -0.39381352664E+03  0.43669698276E+03  0.12510433867E+03 0.  0.
          5    1    3    3  502    0  0.51213469059E+02 -0.97665864885E+02 -0.13947250503E+03  0.17785244625E+03  0.41800000000E+01 0. -1.
         -5    1    3    3    0  502 -0.24589973446E+02 -0.41097440456E+02 -0.25434102161E+03  0.25884453651E+03  0.41800000000E+01 0. -1.
        -11    1    1    2    0    0 -0.32395562926E+02  0.10849604241E+02 -0.43761692122E+02  0.55518214189E+02  0.00000000000E+00 0.  1.
         11    1    1    2    0    0  0.57720673116E+01  0.12791370110E+03 -0.55395420708E+02  0.13951302565E+03  0.00000000000E+00 0. -1.
</event>
<event>
 7    1  0.2873461E-009  0.1456486E+03  0.7561462E-02  0.1205924E+00
          2   -1    0    0  501    0  0.00000000000E+00  0.00000000000E+00  0.27197461339E+03  0.27197461339E+03  0.00000000000E+00 0. -1.
         -2   -1    0    0    0  501 -0.00000000000E+00 -0.00000000000E+00 -0.19110263182E+03  0.19110263182E+03  0.00000000000E+00 0.  1.
         25    2    1    2    0    0  0.11587450377E+03  0.34061983885E+01 -0.12339725585E+03  0.21050725958E+03  0.12509164949E+03 0.  0.
          5    1    3    3  502    0  0.70630182071E+02 -0.59738287759E+02 -0.62588862902E+02  0.11176816990E+03  0.41800000000E+01 0.  1.
         -5    1    3    3    0  502  0.45244321702E+02  0.63144486147E+02 -0.60808392945E+02  0.98739089674E+02  0.41800000000E+01 0.  1.
        -11    1    1    2    0    0 -0.93004571170E+02  0.11338551899E+02  0.20494975053E+03  0.22535042325E+03  0.00000000000E+00 0. -1.
         11    1    1    2    0    0 -0.22869932603E+02 -0.14744750288E+02 -0.68051311899E+00  0.27219562385E+02  0.00000000000E+00 0.  1.
</event>
<event>
 7    1  0.2873461E-009  0.1449391E+03  0.7561462E-02  0.1206833E+00
         -2   -1    0    0    0  501 -0.00000000000E+00  0.00000000000E+00  0.25006050179E+02  0.25006050179E+02  0.00000000000E+00 0.  1.
          2   -1    0    0  501    0  0.00000000000E+00 -0.00000000000E+00 -0.90858818464E+03  0.90858818464E+03  0.00000000000E+00 0. -1.
         25    2    1    2    0    0  0.31296580975E+02 -0.96178793897E+02 -0.56373744728E+03  0.58623912871E+03  0.12508625102E+03 0.  0.
          5    1    3    3  502    0 -0.45901806122E+02 -0.16798327630E+02 -0.20441674704E+03  0.21022092780E+03  0.41800000000E+01 0. -1.
         -5    1    3    3    0  502  0.77198387097E+02 -0.79380466267E+02 -0.35932070024E+03  0.37601820091E+03  0.41800000000E+01 0. -1.
        -11    1    1    2    0    0  0.83153004581E+01  0.89447748053E+02 -0.17072665267E+03  0.19291872327E+03  0.00000000000E+00 0. -1.
         11    1    1    2    0    0 -0.39611881433E+02  0.67310458445E+01 -0.14911803451E+03  0.15443638284E+03  0.00000000000E+00 0.  1.
</event>
<event>
 7    1  0.2969734E-009  0.1029245E+03  0.7561462E-02  0.1274264E+00
         -2   -1    0    0    0  501 -0.00000000000E+00  0.00000000000E+00  0.56685675150E+02  0.56685675150E+02  0.00000000000E+00 0.  1.
          2   -1    0    0  501    0  0.00000000000E+00 -0.00000000000E+00 -0.22773493291E+03  0.22773493291E+03  0.00000000000E+00 0. -1.
         25    2    1    2    0    0 -0.66781732682E+01  0.27237953854E+00 -0.13986565392E+03  0.18776885103E+03  0.12510023214E+03 0.  0.
          5    1    3    3  502    0  0.57282342238E+02  0.13001795428E+02 -0.78423864785E+02  0.98071853171E+02  0.41800000000E+01 0. -1.
         -5    1    3    3    0  502 -0.63960515506E+02 -0.12729415889E+02 -0.61441789131E+02  0.89696997855E+02  0.41800000000E+01 0. -1.
        -11    1    1    2    0    0 -0.37021773561E+02  0.58648985925E+01  0.71961220037E+01  0.38167956783E+02  0.00000000000E+00 0.  1.
         11    1    1    2    0    0  0.43699946829E+02 -0.61372781311E+01 -0.38379725850E+02  0.58483800253E+02  0.00000000000E+00 0. -1.
</event>
<event>
 7    1  0.2873461E-009  0.1143967E+03  0.7561462E-02  0.1252638E+00
          2   -1    0    0  501    0  0.00000000000E+00  0.00000000000E+00  0.42888619080E+02  0.42888619080E+02  0.00000000000E+00 0. -1.
         -2   -1    0    0    0  501 -0.00000000000E+00 -0.00000000000E+00 -0.34800483349E+03  0.34800483349E+03  0.00000000000E+00 0.  1.
         25    2    1    2    0    0  0.45630267203E+02  0.33238504921E+02 -0.15081784367E+03  0.20391528149E+03  0.12509396693E+03 0.  0.
          5    1    3    3  502    0  0.76595970072E+02 -0.17607231243E+01 -0.46981213855E+02  0.89970826563E+02  0.41800000000E+01 0. -1.
         -5    1    3    3    0  502 -0.30965702868E+02  0.34999228045E+02 -0.10383662981E+03  0.11394445493E+03  0.41800000000E+01 0. -1.
        -11    1    1    2    0    0 -0.67895080419E+02 -0.43494433030E+02 -0.12536404272E+03  0.14905586489E+03  0.00000000000E+00 0. -1.
         11    1    1    2    0    0  0.22264813216E+02  0.10255928108E+02 -0.28934328020E+02  0.37922306192E+02  0.00000000000E+00 0.  1.
</event>
<event>
 7    1  0.2873461E-009  0.1058836E+03  0.7561462E-02  0.1268388E+00
         -1   -1    0    0    0  501 -0.00000000000E+00  0.00000000000E+00  0.75326734639E+02  0.75326734639E+02  0.00000000000E+00 0.  1.
          1   -1    0    0  501    0  0.00000000000E+00 -0.00000000000E+00 -0.20700188829E+03  0.20700188829E+03  0.00000000000E+00 0. -1.
         25    2    1    2    0    0  0.13496486403E+02 -0.60996123179E+02 -0.62060411908E+02  0.15297650481E+03  0.12509050367E+03 0.  0.
          5    1    3    3  502    0  0.49729015494E+02 -0.31265464767E+02 -0.82756852449E+02  0.10157102587E+03  0.41800000000E+01 0.  1.
         -5    1    3    3    0  502 -0.36232529091E+02 -0.29730658413E+02  0.20696440541E+02  0.51405478940E+02  0.41800000000E+01 0.  1.
        -11    1    1    2    0    0 -0.49935750659E+02  0.32741564841E+02 -0.23591408770E+02  0.64203923788E+02  0.00000000000E+00 0.  1.
         11    1    1    2    0    0  0.36439264256E+02  0.28254558339E+02 -0.46023332970E+02  0.65148194327E+02  0.00000000000E+00 0. -1.
</event>
<event>
 7    1  0.2873461E-009  0.9930441E+02  0.7561462E-02  0.1281766E+00
          3   -1    0    0  501    0  0.00000000000E+00  0.00000000000E+00  0.10758173178E+03  0.10758173178E+03  0.00000000000E+00 0. -1.
         -3   -1    0    0    0  501 -0.00000000000E+00 -0.00000000000E+00 -0.16529159774E+03  0.16529159774E+03  0.00000000000E+00 0.  1.
         25    2    1    2    0    0 -0.20001940861E+02 -0.57631723367E+02  0.13963050656E+02  0.13987026844E+03  0.12508889652E+03 0.  0.
          5    1    3    3  502    0 -0.12170906661E+02 -0.71666753793E+02  0.57817863111E+02  0.92976514577E+02  0.41800000000E+01 0. -1.
         -5    1    3    3    0  502 -0.78310342008E+01  0.14035030426E+02 -0.43854812454E+02  0.46893753861E+02  0.41800000000E+01 0. -1.
        -11    1    1    2    0    0 -0.36190089007E+02  0.17940332363E+02 -0.12565154929E+02  0.42302023427E+02  0.00000000000E+00 0. -1.
         11    1    1    2    0    0  0.56192029868E+02  0.39691391004E+02 -0.59107761686E+02  0.90701037657E+02  0.00000000000E+00 0.  1.
</event>
<event>
 7    1  0.2873461E-009  0.9005440E+02  0.7561462E-02  0.1302720E+00
          3   -1    0    0  501    0  0.00000000000E+00  0.00000000000E+00  0.29229670885E+02  0.29229670885E+02  0.00000000000E+00 0. -1.
         -3   -1    0    0    0  501 -0.00000000000E+00 -0.00000000000E+00 -0.54979956552E+03  0.54979956552E+03  0.00000000000E+00 0.  1.
         25    2    1    2    0    0  0.31237917023E+01  0.53680811135E+02 -0.20766649730E+03  0.24832276803E+03  0.12508970966E+03 0.  0.
          5    1    3    3  502    0 -0.24481338043E+02  0.23091680877E+02  0.26044872698E+01  0.34012018347E+02  0.41800000000E+01 0.  1.
         -5    1    3    3    0  502  0.27605129745E+02  0.30589130258E+02 -0.21027098457E+03  0.21431074968E+03  0.41800000000E+01 0.  1.
        -11    1    1    2    0    0 -0.45924624195E+02 -0.36493512245E+02 -0.14080925556E+03  0.15253882783E+03  0.00000000000E+00 0.  1.
         11    1    1    2    0    0  0.42800832492E+02 -0.17187298890E+02 -0.17209414177E+03  0.17816764054E+03  0.00000000000E+00 0. -1.
</event>
<event>
 7    1  0.2873461E-009  0.6516495E+02  0.7561462E-02  0.1377352E+00
          2   -1    0    0  501    0  0.00000000000E+00  0.00000000000E+00  0.84427175140E+03  0.84427175140E+03  0.00000000000E+00 0. -1.
         -2   -1    0    0    0  501 -0.00000000000E+00 -0.00000000000E+00 -0.16443380796E+02  0.16443380796E+02  0.00000000000E+00 0.  1.
         25    2    1    2    0    0 -0.31810542159E+02  0.14175331268E+02  0.55973191412E+03  0.57460155825E+03  0.12511708294E+03 0.  0.
          5    1    3    3  502    0 -0.29800537236E+02  0.11151774064E+02  0.27277915479E+02  0.42118774403E+02  0.41800000000E+01 0. -1.
         -5    1    3    3    0  502 -0.20100049222E+01  0.30235572038E+01  0.53245399864E+03  0.53248278384E+03  0.41800000000E+01 0. -1.
        -11    1    1    2    0    0  0.61452528242E+02 -0.14143437516E+02  0.22596876749E+03  0.23460250197E+03  0.00000000000E+00 0.  1.
         11    1    1    2    0    0 -0.29641986083E+02 -0.31893752237E-01  0.42127688995E+02  0.51511071977E+02  0.00000000000E+00 0. -1.
</event>
<event>
 7    1  0.3500469E-009  0.1146913E+03  0.7561462E-02  0.1252121E+00
          2   -1    0    0  501    0  0.00000000000E+00  0.00000000000E+00  0.90735602209E+03  0.90735602209E+03  0.00000000000E+00 0. -1.
         -2   -1    0    0    0  501 -0.00000000000E+00 -0.00000000000E+00 -0.26896759422E+02  0.26896759422E+02  0.00000000000E+00 0.  1.
         25    2    1    2    0    0  0.50632910255E+02  0.89320083282E+02  0.60529211090E+03  0.62655202973E+03  0.12508851894E+03 0.  0.
          5    1    3    3  502    0  0.35989654819E+02  0.18370024913E+02  0.48035707652E+03  0.48207168184E+03  0.41800000000E+01 0. -1.
         -5    1    3    3    0  502  0.14643255435E+02  0.70950058370E+02  0.12493503438E+03  0.14448034789E+03  0.41800000000E+01 0. -1.
        -11    1    1    2    0    0 -0.22631069644E+02 -0.45544434955E-01  0.70135111973E+01  0.23692967878E+02  0.00000000000E+00 0.  1.
         11    1    1    2    0    0 -0.28001840610E+02 -0.89274538847E+02  0.26815364058E+03  0.28400778391E+03  0.00000000000E+00 0. -1.
</event>
<event>
 7    1  0.2873461E-009  0.1357157E+03  0.7561462E-02  0.1219213E+00
         -1   -1    0    0    0  501 -0.00000000000E+00  0.00000000000E+00  0.57661863482E+02  0.57661863482E+02  0.00000000000E+00 0.  1.
          1   -1    0    0  501    0  0.00000000000E+00 -0.00000000000E+00 -0.46521999504E+03  0.46521999504E+03  0.00000000000E+00 0. -1.
         25    2    1    2    0    0  0.36112540918E+02 -0.10452481034E+03 -0.29594616529E+03  0.33980421472E+03  0.12511282909E+03 0.  0.
          5    1    3    3  502    0  0.55213128285E+02 -0.83596259433E+02 -0.29452736860E+03  0.31112805624E+03  0.41800000000E+01 0. -1.
         -5    1    3    3    0  502 -0.19100587367E+02 -0.20928550910E+02 -0.14187966878E+01  0.28676158477E+02  0.41800000000E+01 0. -1.
        -11    1    1    2    0    0  0.28979774829E+02  0.49158993986E+02 -0.28161319594E+02  0.63635634358E+02  0.00000000000E+00 0. -1.
         11    1    1    2    0    0 -0.65092315747E+02  0.55365816357E+02 -0.83450646678E+02  0.11944200945E+03  0.00000000000E+00 0.  1.
</event>
<event>
 7    1  0.2873461E-009  0.1228973E+03  0.7561462E-02  0.1238393E+00
         -2   -1    0    0    0  501 -0.00000000000E+00  0.00000000000E+00  0.43054851652E+02  0.43054851652E+02  0.00000000000E+00 0.  1.
          2   -1    0    0  501    0  0.00000000000E+00 -0.00000000000E+00 -0.42847027410E+03  0.42847027410E+03  0.00000000000E+00 0. -1.
         25    2    1    2    0    0 -0.65061830793E+02  0.18910925615E+02 -0.13326020298E+03  0.19492572214E+03  0.12508833087E+03 0.  0.
          5    1    3    3  502    0  0.26485356956E+02 -0.20444863058E+02 -0.77219937677E+01  0.34591446144E+02  0.41800000000E+01 0.  1.
         -5    1    3    3    0  502 -0.91547187749E+02  0.39355788673E+02 -0.12553820922E+03  0.16033427600E+03  0.41800000000E+01 0.  1.
        -11    1    1    2    0    0  0.84880649559E+02  0.95380424848E-01 -0.17067604993E+03  0.19061754323E+03  0.00000000000E+00 0.  1.
         11    1    1    2    0    0 -0.19818818766E+02 -0.19006306040E+02 -0.81479169537E+02  0.85981860383E+02  0.00000000000E+00 0. -1.
</event>
<event>
 7    1  0.2873461E-009  0.3028503E+03  0.7561462E-02  0.1083824E+00
          2   -1    0    0  501    0  0.00000000000E+00  0.00000000000E+00  0.39391627326E+03  0.39391627326E+03  0.00000000000E+00 0. -1.
         -2   -1    0    0    0  501 -0.00000000000E+00 -0.00000000000E+00 -0.25603764460E+03  0.25603764460E+03  0.00000000000E+00 0.  1.
         25    2    1    2    0    0  0.29254617407E+03  0.57522768935E+02  0.80329187818E+02  0.33315544083E+03  0.12509051294E+03 0.  0.
          5    1    3    3  502    0  0.28379086293E+03  0.41513951938E+02  0.41208229436E+02  0.28978656397E+03  0.41800000000E+01 0.  1.
         -5    1    3    3    0  502  0.87553111435E+01  0.16008816998E+02  0.39120958382E+02  0.43368876854E+02  0.41800000000E+01 0.  1.
        -11    1    1    2    0    0 -0.26792670815E+03 -0.42439474143E+02  0.23688854349E+02  0.27229945231E+03  0.00000000000E+00 0.  1.
         11    1    1    2    0    0 -0.24619465921E+02 -0.15083294792E+02  0.33860586487E+02  0.44499024723E+02  0.00000000000E+00 0. -1.
</event>
<event>
 7    1  0.2873461E-009  0.1496735E+03  0.7561462E-02  0.1200875E+00
          1   -1    0    0  501    0  0.00000000000E+00  0.00000000000E+00  0.53644177577E+03  0.53644177577E+03  0.00000000000E+00 0. -1.
         -1   -1    0    0    0  501 -0.00000000000E+00 -0.00000000000E+00 -0.61587061888E+02  0.61587061888E+02  0.00000000000E+00 0.  1.
         25    2    1    2    0    0  0.99491991159E+02 -0.48403113238E+02  0.95287883089E+02  0.19227193153E+03  0.12508875775E+03 0.  0.
          5    1    3    3  502    0 -0.20822748586E+00 -0.58111564170E+02  0.70006623338E+01  0.58681163265E+02  0.41800000000E+01 0. -1.
         -5    1    3    3    0  502  0.99700218644E+02  0.97084509323E+01  0.88287220755E+02  0.13359076827E+03  0.41800000000E+01 0. -1.
        -11    1    1    2    0    0 -0.19489772482E+02  0.57116976930E+02  0.12564156687E+03  0.13938437363E+03  0.00000000000E+00 0. -1.
         11    1    1    2    0    0 -0.80002218677E+02 -0.87138636919E+01  0.25392526392E+03  0.26637253250E+03  0.00000000000E+00 0.  1.
</event>
<event>
 7    1  0.2873461E-009  0.1754569E+03  0.7561462E-02  0.1172274E+00
          2   -1    0    0  501    0  0.00000000000E+00  0.00000000000E+00  0.10646000144E+04  0.10646000144E+04  0.00000000000E+00 0. -1.
         -2   -1    0    0    0  501 -0.00000000000E+00 -0.00000000000E+00 -0.33439532572E+02  0.33439532572E+02  0.00000000000E+00 0.  1.
         25    2    1    2    0    0 -0.10538224967E+03  0.94458455838E+02  0.74741563108E+03  0.77091230761E+03  0.12509133475E+03 0.  0.
          5    1    3    3  502    0  0.12063563124E+02  0.66479048255E+02  0.24534978589E+03  0.25451715708E+03  0.41800000000E+01 0. -1.
         -5    1    3    3    0  502 -0.11744581280E+03  0.27979407584E+02  0.50206584519E+03  0.51639515053E+03  0.41800000000E+01 0. -1.
        -11    1    1    2    0    0  0.52238421025E+02  0.20095615788E+01  0.10195744175E+03  0.11457840502E+03  0.00000000000E+00 0.  1.
         11    1    1    2    0    0  0.53143828647E+02 -0.96468017417E+02  0.18178740902E+03  0.21254883435E+03  0.00000000000E+00 0. -1.
</event>
<event>
 7    1  0.2873461E-009  0.8903554E+02  0.7561462E-02  0.1305204E+00
         -2   -1    0    0    0  501 -0.00000000000E+00  0.00000000000E+00  0.50080802245E+02  0.50080802245E+02  0.00000000000E+00 0.  1.
          2   -1    0    0  501    0  0.00000000000E+00 -0.00000000000E+00 -0.29846362416E+03  0.29846362416E+03  0.00000000000E+00 0. -1.
         25    2    1    2    0    0  0.37044124768E+02 -0.25113098564E+01 -0.76491946232E+02  0.15125196392E+03  0.12509022701E+03 0.  0.
          5    1    3    3  502    0  0.16263690419E+01 -0.34242470451E+02 -0.94204698844E+02  0.10033538530E+03  0.41800000000E+01 0. -1.
         -5    1    3    3    0  502  0.35417755726E+02  0.31731160595E+02  0.17712752612E+02  0.50916578621E+02  0.41800000000E+01 0. -1.
        -11    1    1    2    0    0  0.11006895024E+02  0.35728182555E+02 -0.53411285156E+02  0.65195246367E+02  0.00000000000E+00 0.  1.
         11    1    1    2    0    0 -0.48051019792E+02 -0.33216872699E+02 -0.11847959053E+03  0.13209721612E+03  0.00000000000E+00 0. -1.
</event>
<event>
 7    1  0.2873461E-009  0.4439792E+03  0.7561462E-02  0.1029533E+00
          1   -1    0    0  501    0  0.00000000000E+00  0.00000000000E+00  0.57288452065E+03  0.57288452065E+03  0.00000000000E+00 0. -1.
         -1   -1    0    0    0  501 -0.00000000000E+00 -0.00000000000E+00 -0.35078557116E+03  0.35078557116E+03  0.00000000000E+00 0.  1.
         25    2    1    2    0    0  0.10429211329E+03 -0.42204073522E+03  0.11926898447E+03  0.46783344663E+03  0.12509123090E+03 0.  0.
          5    1    3    3  502    0  0.98938930227E+02 -0.43013669045E+03  0.11944374009E+03  0.45726443535E+03  0.41800000000E+01 0.  1.
         -5    1    3    3    0  502  0.53531830641E+01  0.80959552286E+01 -0.17475562078E+00  0.10569011283E+02  0.41800000000E+01 0.  1.
        -11    1    1    2    0    0 -0.84585052722E+02  0.38347676341E+03  0.11785190829E+03  0.40999772134E+03  0.00000000000E+00 0. -1.
         11    1    1    2    0    0 -0.19707060570E+02  0.38563971815E+02 -0.15021943274E+02  0.45838923833E+02  0.00000000000E+00 0.  1.
</event>
<event>
 7    1  0.2873461E-009  0.1088660E+03  0.7561462E-02  0.1262684E+00
         -1   -1    0    0    0  501 -0.00000000000E+00  0.00000000000E+00  0.11890415211E+03  0.11890415211E+03  0.00000000000E+00 0. -1.
          1   -1    0    0  501    0  0.00000000000E+00 -0.00000000000E+00 -0.32423674706E+03  0.32423674706E+03  0.00000000000E+00 0.  1.
         25    2    1    2    0    0 -0.76421288036E+02 -0.65298182882E+00 -0.27065770466E+03  0.30780473277E+03  0.12509005065E+03 0.  0.
          5    1    3    3  502    0  0.18928450419E+02  0.34480183442E+02 -0.42795485448E+02  0.58276026462E+02  0.41800000000E+01 0.  1.
         -5    1    3    3    0  502 -0.95349738456E+02 -0.35133165271E+02 -0.22786221921E+03  0.24952870630E+03  0.41800000000E+01 0.  1.
        -11    1    1    2    0    0  0.13486169904E+02 -0.93794625539E+00 -0.23114639235E+02  0.26777659883E+02  0.00000000000E+00 0.  1.
         11    1    1    2    0    0  0.62935118132E+02  0.15909280842E+01  0.88439748936E+02  0.10855850652E+03  0.00000000000E+00 0. -1.
</event>
<event>
 7    1  0.2873461E-009  0.4094265E+03  0.7561462E-02  0.1040564E+00
          2   -1    0    0  501    0  0.00000000000E+00  0.00000000000E+00  0.28438780214E+03  0.28438780214E+03  0.00000000000E+00 0.  1.
         -2   -1    0    0    0  501 -0.00000000000E+00 -0.00000000000E+00 -0.61897940826E+03  0.61897940826E+03  0.00000000000E+00 0. -1.
         25    2    1    2    0    0  0.33979183304E+03 -0.21682612973E+03 -0.21334660990E+03  0.47290186430E+03  0.12508931598E+03 0.  0.
          5    1    3    3  502    0  0.33310496160E+03 -0.18702898609E+03 -0.22070767876E+03  0.44121209066E+03  0.41800000000E+01 0.  1.
         -5    1    3    3    0  502  0.66868714366E+01 -0.29797143641E+02  0.73610688620E+01  0.31689773643E+02  0.41800000000E+01 0.  1.
        -11    1    1    2    0    0 -0.81186823637E+02  0.28373768396E+02  0.57635862680E+01  0.86195069418E+02  0.00000000000E+00 0. -1.
         11    1    1    2    0    0 -0.25860500940E+03  0.18845236133E+03 -0.12700858249E+03  0.34427027668E+03  0.00000000000E+00 0.  1.
</event>
<event>
 7    1  0.2873461E-009  0.9450912E+02  0.7561462E-02  0.1292286E+00
         -2   -1    0    0    0  501 -0.00000000000E+00  0.00000000000E+00  0.75275610039E+02  0.75275610039E+02  0.00000000000E+00 0.  1.
          2   -1    0    0  501    0  0.00000000000E+00 -0.00000000000E+00 -0.18680086981E+03  0.18680086981E+03  0.00000000000E+00 0. -1.
         25    2    1    2    0    0  0.16167593948E+02 -0.35117177795E+02 -0.95889482014E+02  0.16229107044E+03  0.12509592925E+03 0.  0.
          5    1    3    3  502    0  0.29787191416E+02 -0.78646416881E+02 -0.52676214736E+02  0.99321657556E+02  0.41800000000E+01 0.  1.
         -5    1    3    3    0  502 -0.13619597468E+02  0.43529239086E+02 -0.43213267278E+02  0.62969412888E+02  0.41800000000E+01 0.  1.
        -11    1    1    2    0    0 -0.15739078253E+02 -0.67642776477E+01  0.32035551766E+02  0.36328372016E+02  0.00000000000E+00 0.  1.
         11    1    1    2    0    0 -0.42851569512E+00  0.41881455443E+02 -0.47671329523E+02  0.63457037389E+02  0.00000000000E+00 0. -1.
</event>
<event>
 7    1  0.2873461E-009  0.1498178E+03  0.7561462E-02  0.1200697E+00
         -1   -1    0    0    0  501 -0.00000000000E+00  0.00000000000E+00  0.18310914705E+03  0.18310914705E+03  0.00000000000E+00 0.  1.
          1   -1    0    0  501    0  0.00000000000E+00 -0.00000000000E+00 -0.14933852782E+03  0.14933852782E+03  0.00000000000E+00 0. -1.
         25    2    1    2    0    0  0.83974479026E+02  0.89459089362E+02 -0.14882671264E+01  0.17522768693E+03  0.12509150863E+03 0.  0.
          5    1    3    3  502    0  0.59995627950E+02 -0.13367673806E+02 -0.25809488175E+02  0.66796498081E+02  0.41800000000E+01 0. -1.
         -5    1    3    3    0  502  0.23978851077E+02  0.10282676317E+03  0.24321221048E+02  0.10843118885E+03  0.41800000000E+01 0. -1.
        -11    1    1    2    0    0 -0.30105311275E+02 -0.26872576798E+01  0.45446597181E+02  0.54579706084E+02  0.00000000000E+00 0.  1.
         11    1    1    2    0    0 -0.53869167751E+02 -0.86771831682E+02 -0.10187710819E+02  0.10264028186E+03  0.00000000000E+00 0. -1.
</event>
<event>
 7    1  0.2873461E-009  0.1885981E+03  0.7561462E-02  0.1159732E+00
          4   -1    0    0  501    0  0.00000000000E+00  0.00000000000E+00  0.13112233136E+03  0.13112233136E+03  0.00000000000E+00 0. -1.
         -4   -1    0    0    0  501 -0.00000000000E+00 -0.00000000000E+00 -0.31053000526E+03  0.31053000526E+03  0.00000000000E+00 0.  1.
         25    2    1    2    0    0  0.15862246079E+03 -0.38022472576E+02 -0.14519247171E+03  0.25166172293E+03  0.12508387371E+03 0.  0.
          5    1    3    3  502    0  0.34392161834E+02  0.36983083240E+02 -0.68716985854E+01  0.51139631236E+02  0.41800000000E+01 0.  1.
         -5    1    3    3    0  502  0.12423029896E+03 -0.75005555816E+02 -0.13832077312E+03  0.20052209170E+03  0.41800000000E+01 0.  1.
        -11    1    1    2    0    0 -0.13647354116E+03 -0.99492727800E+00 -0.52317899099E+01  0.13657741008E+03  0.00000000000E+00 0. -1.
         11    1    1    2    0    0 -0.22148919632E+02  0.39017399854E+02 -0.28983412280E+02  0.53413203608E+02  0.00000000000E+00 0.  1.
</event>
<event>
 6    1  0.2873461E-009  0.1827143E+03  0.7561462E-02  0.1165202E+00
          2   -1    0    0  501    0  0.00000000000E+00  0.00000000000E+00  0.21660372731E+03  0.21660372731E+03  0.00000000000E+00 0. -1.
         -2   -1    0    0    0  501 -0.00000000000E+00 -0.00000000000E+00 -0.19810652850E+03  0.19810652850E+03  0.00000000000E+00 0.  1.
          5    1    1    2  502    0 -0.74387476383E+02  0.23046350714E+02 -0.30776707229E+01  0.78048545027E+02  0.41800000000E+01 0. -1.
         -5    1    1    2    0  502 -0.14821710916E+02  0.11843821513E+03  0.83887396819E+02  0.14595157301E+03  0.41800000000E+01 0. -1.
        -11    1    1    2    0    0  0.51774717732E+02 -0.67300680758E+02 -0.65983511217E+02  0.10753523506E+03  0.00000000000E+00 0.  1.
         11    1    1    2    0    0  0.37434469567E+02 -0.74183885087E+02  0.36709839285E+01  0.83174902713E+02  0.00000000000E+00 0. -1.
</event>
<event>
 7    1  0.2873461E-009  0.1429781E+03  0.7561462E-02  0.1209377E+00
         -1   -1    0    0    0  501 -0.00000000000E+00  0.00000000000E+00  0.28805924865E+02  0.28805924865E+02  0.00000000000E+00 0.  1.
          1   -1    0    0  501    0  0.00000000000E+00 -0.00000000000E+00 -0.83657485699E+03  0.83657485699E+03  0.00000000000E+00 0. -1.
         25    2    1    2    0    0 -0.23960104577E+02  0.97690959251E+02 -0.30655992441E+03  0.34603945183E+03  0.12508678923E+03 0.  0.
          5    1    3    3  502    0  0.41966028838E+02  0.63550645866E+02 -0.21476065520E+03  0.22790226763E+03  0.41800000000E+01 0. -1.
         -5    1    3    3    0  502 -0.65926133415E+02  0.34140313386E+02 -0.91799269205E+02  0.11813718420E+03  0.41800000000E+01 0. -1.
        -11    1    1    2    0    0  0.14572269286E+02  0.15772947992E+02 -0.10071918902E+03  0.10298296926E+03  0.00000000000E+00 0.  1.
         11    1    1    2    0    0  0.93878352910E+01 -0.11346390724E+03 -0.40048981870E+03  0.41635836076E+03  0.00000000000E+00 0. -1.
</event>
<event>
 7    1  0.2873461E-009  0.1385289E+03  0.7561462E-02  0.1215322E+00
         -4   -1    0    0    0  501 -0.00000000000E+00  0.00000000000E+00  0.28792692009E+02  0.28792692009E+02  0.00000000000E+00 0.  1.
          4   -1    0    0  501    0  0.00000000000E+00 -0.00000000000E+00 -0.79535450986E+03  0.79535450986E+03  0.00000000000E+00 0. -1.
         25    2    1    2    0    0 -0.68458949103E+02  0.80182336381E+02 -0.42651294477E+03  0.45681171362E+03  0.12509122615E+03 0.  0.
          5    1    3    3  502    0 -0.18724566429E+02  0.87919153800E+02 -0.14389473433E+03  0.16971609812E+03  0.41800000000E+01 0.  1.
         -5    1    3    3    0  502 -0.49734382675E+02 -0.77368174190E+01 -0.28261821044E+03  0.28709561550E+03  0.41800000000E+01 0.  1.
        -11    1    1    2    0    0  0.97973941245E+01  0.18974288585E+02 -0.32225720658E+02  0.38658888122E+02  0.00000000000E+00 0. -1.
         11    1    1    2    0    0  0.58661554979E+02 -0.99156624966E+02 -0.30782315242E+03  0.32867660013E+03  0.00000000000E+00 0.  1.
</event>
<event>
 7    1  0.2873461E-009  0.1133716E+03  0.7561462E-02  0.1254451E+00
          2   -1    0    0  501    0  0.00000000000E+00  0.00000000000E+00  0.10416165388E+03  0.10416165388E+03  0.00000000000E+00 0.  1.
         -2   -1    0    0    0  501 -0.00000000000E+00 -0.00000000000E+00 -0.22219329199E+03  0.22219329199E+03  0.00000000000E+00 0. -1.
         25    2    1    2    0    0  0.67061656520E+02 -0.41797141162E+02 -0.59271212146E+01  0.14808068126E+03  0.12509392716E+03 0.  0.
          5    1    3    3  502    0  0.90012094274E+02 -0.21420161576E+02  0.33009519166E+02  0.98326503005E+02  0.41800000000E+01 0. -1.
         -5    1    3    3    0  502 -0.22950437754E+02 -0.20376979586E+02 -0.38936640381E+02  0.49754178260E+02  0.41800000000E+01 0. -1.
        -11    1    1    2    0    0 -0.65817241327E+02  0.46505556817E+01 -0.64770706290E+01  0.66298486921E+02  0.00000000000E+00 0.  1.
         11    1    1    2    0    0 -0.12444151926E+01  0.37146585481E+02 -0.10562744627E+03  0.11197577768E+03  0.00000000000E+00 0. -1.
</event>
<event>
 7    1  0.2873461E-009  0.1021632E+03  0.7561462E-02  0.1275812E+00
         -3   -1    0    0    0  501 -0.00000000000E+00  0.00000000000E+00  0.71145903837E+03  0.71145903837E+03  0.00000000000E+00 0.  1.
          3   -1    0    0  501    0  0.00000000000E+00 -0.00000000000E+00 -0.20973516502E+02  0.20973516502E+02  0.00000000000E+00 0. -1.
         25    2    1    2    0    0  0.27776271334E+02  0.27295357034E+02  0.51038865130E+03  0.52693512963E+03  0.12508995840E+03 0.  0.
          5    1    3    3  502    0 -0.48597753472E+02  0.22824531076E+01  0.15322451390E+03  0.16081721082E+03  0.41800000000E+01 0. -1.
         -5    1    3    3    0  502  0.76374024806E+02  0.25012903926E+02  0.35716413740E+03  0.36611791881E+03  0.41800000000E+01 0. -1.
        -11    1    1    2    0    0 -0.24619488495E+01 -0.44401353313E+02  0.16599397804E+03  0.17184743848E+03  0.00000000000E+00 0.  1.
         11    1    1    2    0    0 -0.25314322485E+02  0.17105996279E+02  0.14102892528E+02  0.33649986764E+02  0.00000000000E+00 0. -1.
</event>
<event>
 7    1  0.2873461E-009  0.9153655E+02  0.7561462E-02  0.1299173E+00
          2   -1    0    0  501    0  0.00000000000E+00  0.00000000000E+00  0.58256543174E+03  0.58256543174E+03  0.00000000000E+00 0. -1.
         -2   -1    0    0    0  501 -0.00000000000E+00 -0.00000000000E+00 -0.20763620331E+02  0.20763620331E+02  0.00000000000E+00 0.  1.
         25    2    1    2    0    0 -0.23088017830E+01 -0.21717744451E+02  0.28635899679E+03  0.31325418989E+03  0.12509884672E+03 0.  0.
          5    1    3    3  502    0 -0.29876555722E+02  0.25889912040E+02  0.26913583916E+02  0.48007390332E+02  0.41800000000E+01 0.  1.
         -5    1    3    3    0  502  0.27567753939E+02 -0.47607656491E+02  0.25944541288E+03  0.26524679956E+03  0.41800000000E+01 0.  1.
        -11    1    1    2    0    0 -0.32721874183E+02 -0.16210298128E+02  0.80225905009E+02  0.88145848739E+02  0.00000000000E+00 0.  1.
         11    1    1    2    0    0  0.35030675966E+02  0.37928042579E+02  0.19521690961E+03  0.20192901344E+03  0.00000000000E+00 0. -1.
</event>
<event>
 7    1  0.2873461E-009  0.1176825E+03  0.7561462E-02  0.1246970E+00
          3   -1    0    0  501    0  0.00000000000E+00  0.00000000000E+00  0.67329023377E+02  0.67329023377E+02  0.00000000000E+00 0. -1.
         -3   -1    0    0    0  501 -0.00000000000E+00 -0.00000000000E+00 -0.27910090527E+03  0.27910090527E+03  0.00000000000E+00 0.  1.
         25    2    1    2    0    0  0.61459421745E+02 -0.38562811333E+02 -0.17200737644E+03  0.22474238294E+03  0.12513293013E+03 0.  0.
          5    1    3    3  502    0  0.34078609610E+02  0.38665577257E+02 -0.11115308595E+03  0.12259224859E+03  0.41800000000E+01 0.  1.
         -5    1    3    3    0  502  0.27380812134E+02 -0.77228388589E+02 -0.60854290481E+02  0.10215013435E+03  0.41800000000E+01 0.  1.
        -11    1    1    2    0    0 -0.73928896474E+02  0.15713836931E+02 -0.17320164349E+01  0.75600306123E+02  0.00000000000E+00 0. -1.
         11    1    1    2    0    0  0.12469474730E+02  0.22848974401E+02 -0.38032489019E+02  0.46087239581E+02  0.00000000000E+00 0.  1.
</event>
<event>
 7    1  0.2873461E-009  0.1488607E+03  0.7561462E-02  0.1201880E+00
          2   -1    0    0  501    0  0.00000000000E+00  0.00000000000E+00  0.16953348387E+02  0.16953348387E+02  0.00000000000E+00 0. -1.
         -2   -1    0    0    0  501 -0.00000000000E+00 -0.00000000000E+00 -0.31548650844E+04  0.31548650844E+04  0.00000000000E+00 0.  1.
         25    2    1    2    0    0 -0.84552652195E+02  0.11371295243E+03 -0.26100935273E+04  0.26169312627E+04  0.12514481838E+03 0.  0.
          5    1    3    3  502    0 -0.61091239593E+02  0.98157716355E+02 -0.10131238273E+04  0.10197080164E+04  0.41800000000E+01 0. -1.
         -5    1    3    3    0  502 -0.23461412602E+02  0.15555236075E+02 -0.15969697000E+04  0.15972232463E+04  0.41800000000E+01 0. -1.
        -11    1    1    2    0    0  0.50875369026E+02 -0.21193213893E+02 -0.32257960915E+03  0.32725381545E+03  0.00000000000E+00 0.  1.
         11    1    1    2    0    0  0.33677283169E+02 -0.92519738537E+02 -0.20523859957E+03  0.22763335471E+03  0.00000000000E+00 0. -1.
</event>
<event>
 7    1  0.2873461E-009  0.8553674E+02  0.7561462E-02  0.1314035E+00
          1   -1    0    0  501    0  0.00000000000E+00  0.00000000000E+00  0.31509335871E+03  0.31509335871E+03  0.00000000000E+00 0. -1.
         -1   -1    0    0    0  501 -0.00000000000E+00 -0.00000000000E+00 -0.40848385033E+02  0.40848385033E+02  0.00000000000E+00 0.  1.
         25    2    1    2    0    0 -0.54843797988E+01  0.10703869529E+01  0.21542025645E+03  0.24916661822E+03  0.12508753973E+03 0.  0.
          5    1    3    3  502    0  0.26490762020E+01  0.56899430780E+02  0.16034088317E+03  0.17020938295E+03  0.41800000000E+01 0. -1.
         -5    1    3    3    0  502 -0.81334560008E+01 -0.55829043827E+02  0.55079373284E+02  0.78957235276E+02  0.41800000000E+01 0. -1.
        -11    1    1    2    0    0  0.85793379683E+00  0.27968218216E+02 -0.11728144803E+02  0.30339852687E+02  0.00000000000E+00 0.  1.
         11    1    1    2    0    0  0.46264460019E+01 -0.29038605169E+02  0.70552862022E+02  0.76435272828E+02  0.00000000000E+00 0. -1.
</event>
<event>
 7    1  0.2873461E-009  0.8283424E+02  0.7561462E-02  0.1321195E+00
          2   -1    0    0  501    0  0.00000000000E+00  0.00000000000E+00  0.22859340502E+03  0.22859340502E+03  0.00000000000E+00 0. -1.
         -2   -1    0    0    0  501 -0.00000000000E+00 -0.00000000000E+00 -0.69602963535E+02  0.69602963535E+02  0.00000000000E+00 0.  1.
         25    2    1    2    0    0  0.56201245952E+02 -0.27686814074E+02  0.96559081048E+02  0.16999332975E+03  0.12509570859E+03 0.  0.
          5    1    3    3  502    0  0.14614364460E+02  0.30193449229E+01 -0.29698442191E+02  0.33498745661E+02  0.41800000000E+01 0.  1.
         -5    1    3    3    0  502  0.41586881492E+02 -0.30706158996E+02  0.12625752324E+03  0.13649458409E+03  0.41800000000E+01 0.  1.
        -11    1    1    2    0    0  0.18831051316E+02  0.17208628220E+01 -0.94150083935E+01  0.21123736543E+02  0.00000000000E+00 0.  1.
         11    1    1    2    0    0 -0.75032297268E+02  0.25965951252E+02  0.71846368833E+02  0.10707930226E+03  0.00000000000E+00 0. -1.
</event>
<event>
 7    1  0.2873461E-009  0.8931959E+02  0.7561462E-02  0.1304508E+00
          2   -1    0    0  501    0  0.00000000000E+00  0.00000000000E+00  0.13605669049E+03  0.13605669049E+03  0.00000000000E+00 0. -1.
         -2   -1    0    0    0  501 -0.00000000000E+00 -0.00000000000E+00 -0.13591422728E+03  0.13591422728E+03  0.00000000000E+00 0.  1.
         25    2    1    2    0    0 -0.37747549172E+02 -0.27397794426E+02  0.66837439782E+02  0.14930221845E+03  0.12509353488E+03 0.  0.
          5    1    3    3  502    0  0.13629139056E+02 -0.57940883433E+02  0.17276467701E+00  0.59669101318E+02  0.41800000000E+01 0. -1.
         -5    1    3    3    0  502 -0.51376688228E+02  0.30543089008E+02  0.66664675105E+02  0.89633117129E+02  0.41800000000E+01 0. -1.
        -11    1    1    2    0    0  0.37984294302E+02  0.69617421092E+01 -0.86176673597E+02  0.94433529740E+02  0.00000000000E+00 0.  1.
         11    1    1    2    0    0 -0.23674512990E+00  0.20436052316E+02  0.19481697024E+02  0.28235169585E+02  0.00000000000E+00 0. -1.
</event>
<event>
 7    1  0.2873461E-009  0.1073644E+03  0.7561462E-02  0.1265530E+00
          1   -1    0    0  501    0  0.00000000000E+00  0.00000000000E+00  0.36451716674E+03  0.36451716674E+03  0.00000000000E+00 0.  1.
         -1   -1    0    0    0  501 -0.00000000000E+00 -0.00000000000E+00 -0.53924997149E+02  0.53924997149E+02  0.00000000000E+00 0. -1.
         25    2    1    2    0    0  0.23864419434E+02  0.82034770533E+02  0.14103032325E+03  0.20697011709E+03  0.12509141937E+03 0.  0.
          5    1    3    3  502    0  0.43270047160E+02  0.87342853354E+02  0.15426596842E+03  0.18252816886E+03  0.41800000000E+01 0.  1.
         -5    1    3    3    0  502 -0.19405627726E+02 -0.53080828206E+01 -0.13235645166E+02  0.24441948237E+02  0.41800000000E+01 0.  1.
        -11    1    1    2    0    0 -0.94684758746E+01 -0.81670041103E+02  0.17707371694E+03  0.19522998970E+03  0.00000000000E+00 0.  1.
         11    1    1    2    0    0 -0.14395943559E+02 -0.36472942971E+00 -0.75118706045E+01  0.16242057089E+02  0.00000000000E+00 0. -1.
</event>
<event>
 7    1  0.2873461E-009  0.1586811E+03  0.7561462E-02  0.1190194E+00
         -2   -1    0    0    0  501 -0.00000000000E+00  0.00000000000E+00  0.35885220120E+02  0.35885220120E+02  0.00000000000E+00 0.  1.
          2   -1    0    0  501    0  0.00000000000E+00 -0.00000000000E+00 -0.83294654056E+03  0.83294654056E+03  0.00000000000E+00 0. -1.
         25    2    1    2    0    0 -0.89320265386E+01  0.13238482267E+03 -0.35775686060E+03  0.40155039639E+03  0.12508887706E+03 0.  0.
          5    1    3    3  502    0  0.21699391907E+02 -0.18067239252E+02 -0.63428508643E+02  0.69555279110E+02  0.41800000000E+01 0. -1.
         -5    1    3    3    0  502 -0.30631418446E+02  0.15045206192E+03 -0.29432835195E+03  0.33199511728E+03  0.41800000000E+01 0. -1.
        -11    1    1    2    0    0  0.17995410304E+02 -0.99372912906E+02 -0.40988695614E+03  0.42214467594E+03  0.00000000000E+00 0. -1.
         11    1    1    2    0    0 -0.90633837657E+01 -0.33011909761E+02 -0.29417503702E+02  0.45136688352E+02  0.00000000000E+00 0.  1.
</event>
<event>
 7    1  0.2873461E-009  0.1603563E+03  0.7561462E-02  0.1188295E+00
         -1   -1    0    0    0  501 -0.00000000000E+00  0.00000000000E+00  0.21954531488E+03  0.21954531488E+03  0.00000000000E+00 0.  1.
          1   -1    0    0  501    0  0.00000000000E+00 -0.00000000000E+00 -0.14161215779E+03  0.14161215779E+03  0.00000000000E+00 0. -1.
         25    2    1    2    0    0 -0.46049307907E+02 -0.10911549744E+03 -0.33402093240E+02  0.17547106504E+03  0.12509062432E+03 0.  0.
          5    1    3    3  502    0 -0.34864308859E+02  0.21393272734E+02 -0.10418422153E+02  0.42417072867E+02  0.41800000000E+01 0.  1.
         -5    1    3    3    0  502 -0.11184999048E+02 -0.13050877017E+03 -0.22983671087E+02  0.13305399217E+03  0.41800000000E+01 0.  1.
        -11    1    1    2    0    0  0.71788817736E+02  0.62012577687E+02  0.68439568717E+02  0.11697507730E+03  0.00000000000E+00 0. -1.
         11    1    1    2    0    0 -0.25739509829E+02  0.47102919754E+02  0.42895681607E+02  0.68711330333E+02  0.00000000000E+00 0.  1.
</event>
<event>
 7    1  0.2873461E-009  0.1525494E+03  0.7561462E-02  0.1197375E+00
         -1   -1    0    0    0  501 -0.00000000000E+00  0.00000000000E+00  0.89101006680E+02  0.89101006680E+02  0.00000000000E+00 0.  1.
          1   -1    0    0  501    0  0.00000000000E+00 -0.00000000000E+00 -0.39585694617E+03  0.39585694617E+03  0.00000000000E+00 0. -1.
         25    2    1    2    0    0  0.13764427285E+03 -0.63145042544E+02 -0.13547987035E+03  0.23861652198E+03  0.12509918882E+03 0.  0.
          5    1    3    3  502    0  0.24229425786E+02 -0.20165229552E+02 -0.11014409566E+03  0.11464246929E+03  0.41800000000E+01 0. -1.
         -5    1    3    3    0  502  0.11341484706E+03 -0.42979812992E+02 -0.25335774685E+02  0.12397405268E+03  0.41800000000E+01 0. -1.
        -11    1    1    2    0    0 -0.61589978601E+02  0.35048175199E+02 -0.18270423126E+02  0.73181339220E+02  0.00000000000E+00 0.  1.
         11    1    1    2    0    0 -0.76054294248E+02  0.28096867345E+02 -0.15300564602E+03  0.17316009165E+03  0.00000000000E+00 0. -1.
</event>
<event>
 7    1  0.2873461E-009  0.7344906E+02  0.7561462E-02  0.1348742E+00
          1   -1    0    0  501    0  0.00000000000E+00  0.00000000000E+00  0.29384904650E+02  0.29384904650E+02  0.00000000000E+00 0. -1.
         -1   -1    0    0    0  501 -0.00000000000E+00 -0.00000000000E+00 -0.51713320409E+03  0.51713320409E+03  0.00000000000E+00 0.  1.
         25    2    1    2    0    0 -0.43617206822E+02 -0.15043252620E+02 -0.35494703285E+03  0.37916212453E+03  0.12509100833E+03 0.  0.
          5    1    3    3  502    0 -0.28233584085E+02 -0.38998815802E+01 -0.56889959431E+01  0.29362925969E+02  0.41800000000E+01 0.  1.
         -5    1    3    3    0  502 -0.15383622737E+02 -0.11143371040E+02 -0.34925803691E+03  0.34979919856E+03  0.41800000000E+01 0.  1.
        -11    1    1    2    0    0  0.22437498915E+01  0.46570761809E+02 -0.42211237142E+02  0.62894028414E+02  0.00000000000E+00 0. -1.
         11    1    1    2    0    0  0.41373456931E+02 -0.31527509189E+02 -0.90590029440E+02  0.10446195579E+03  0.00000000000E+00 0.  1.
</event>
<event>
 7    1  0.2873461E-009  0.9346719E+02  0.7561462E-02  0.1294666E+00
          2   -1    0    0  501    0  0.00000000000E+00  0.00000000000E+00  0.19692007427E+03  0.19692007427E+03  0.00000000000E+00 0. -1.
         -2   -1    0    0    0  501 -0.00000000000E+00 -0.00000000000E+00 -0.10068949973E+03  0.10068949973E+03  0.00000000000E+00 0.  1.
         25    2    1    2    0    0 -0.90446647439E+01  0.39956211218E+02  0.12959331184E+03  0.18471628940E+03  0.12508947326E+03 0.  0.
          5    1    3    3  502    0 -0.47163313268E+02  0.25481731445E+02  0.55249445128E+01  0.54052698061E+02  0.41800000000E+01 0.  1.
         -5    1    3    3    0  502  0.38118648524E+02  0.14474479774E+02  0.12406836733E+03  0.13066359134E+03  0.41800000000E+01 0.  1.
        -11    1    1    2    0    0 -0.71526757248E+01  0.24600451414E+02  0.15842678732E+02  0.30121976183E+02  0.00000000000E+00 0. -1.
         11    1    1    2    0    0  0.16197340469E+02 -0.64556662633E+02 -0.49205416040E+02  0.82771308411E+02  0.00000000000E+00 0.  1.
</event>
<event>
 7    1  0.2873461E-009  0.1299048E+03  0.7561462E-02  0.1227597E+00
          4   -1    0    0  501    0  0.00000000000E+00  0.00000000000E+00  0.76620805494E+02  0.76620805494E+02  0.00000000000E+00 0. -1.
         -4   -1    0    0    0  501 -0.00000000000E+00 -0.00000000000E+00 -0.33228860061E+03  0.33228860061E+03  0.00000000000E+00 0.  1.
         25    2    1    2    0    0  0.67013778003E+02  0.79876531899E+02 -0.14123987415E+03  0.21556502827E+03  0.12509385506E+03 0.  0.
          5    1    3    3  502    0  0.56568594656E+02 -0.12363578182E+02 -0.17142076099E+02  0.60532529600E+02  0.41800000000E+01 0. -1.
         -5    1    3    3    0  502  0.10445183347E+02  0.92240110081E+02 -0.12409779805E+03  0.15503249867E+03  0.41800000000E+01 0. -1.
        -11    1    1    2    0    0 -0.45346285298E+02 -0.73291213628E+02 -0.10318827221E+02  0.86800724540E+02  0.00000000000E+00 0. -1.
         11    1    1    2    0    0 -0.21667492705E+02 -0.65853182713E+01 -0.10410909374E+03  0.10654365329E+03  0.00000000000E+00 0.  1.
</event>
<event>
 7    1  0.2873461E-009  0.1215167E+03  0.7561462E-02  0.1240616E+00
         -2   -1    0    0    0  501 -0.00000000000E+00  0.00000000000E+00  0.15476051996E+02  0.15476051996E+02  0.00000000000E+00 0.  1.
          2   -1    0    0  501    0  0.00000000000E+00 -0.00000000000E+00 -0.11123646650E+04  0.11123646650E+04  0.00000000000E+00 0. -1.
         25    2    1    2    0    0  0.35725269220E+02 -0.60434780789E+02 -0.68594569532E+03  0.70078318140E+03  0.12508762054E+03 0.  0.
          5    1    3    3  502    0 -0.46831675335E+02 -0.23604954894E+02 -0.22951150554E+03  0.23546422931E+03  0.41800000000E+01 0.  1.
         -5    1    3    3    0  502  0.82556944555E+02 -0.36829825895E+02 -0.45643418978E+03  0.46531895209E+03  0.41800000000E+01 0.  1.
        -11    1    1    2    0    0 -0.57652537423E+02  0.43841242786E+02 -0.37430608647E+03  0.38124915214E+03  0.00000000000E+00 0. -1.
         11    1    1    2    0    0  0.21927268202E+02  0.16593538003E+02 -0.36636831255E+02  0.45808383498E+02  0.00000000000E+00 0.  1.
</event>
<event>
 7    1  0.2873461E-009  0.1622997E+03  0.7561462E-02  0.1186125E+00
         -2   -1    0    0    0  501 -0.00000000000E+00  0.00000000000E+00  0.60308300525E+02  0.60308300525E+02  0.00000000000E+00 0.  1.
          2   -1    0    0  501    0  0.00000000000E+00 -0.00000000000E+00 -0.52194919283E+03  0.52194919283E+03  0.00000000000E+00 0. -1.
         25    2    1    2    0    0  0.24288214257E+02  0.12030683743E+03 -0.35473915989E+03  0.39566534620E+03  0.12509013606E+03 0.  0.
          5    1    3    3  502    0 -0.49670141783E+02  0.48753488361E+02 -0.11129744480E+03  0.13133399877E+03  0.41800000000E+01 0.  1.
         -5    1    3    3    0  502  0.73958356040E+02  0.71553349069E+02 -0.24344171508E+03  0.26433134743E+03  0.41800000000E+01 0.  1.
        -11    1    1    2    0    0 -0.31525275816E+02 -0.16660582622E+00 -0.13733887621E+02  0.34387358753E+02  0.00000000000E+00 0.  1.
         11    1    1    2    0    0  0.72370615594E+01 -0.12014023160E+03 -0.93167844796E+02  0.15220478841E+03  0.00000000000E+00 0. -1.
</event>
<event>
 7    1  0.2873461E-009  0.7721197E+02  0.7561462E-02  0.1337155E+00
         -1   -1    0    0    0  501 -0.00000000000E+00  0.00000000000E+00  0.35752030684E+02  0.35752030684E+02  0.00000000000E+00 0.  1.
          1   -1    0    0  501    0  0.00000000000E+00 -0.00000000000E+00 -0.24865338751E+03  0.24865338751E+03  0.00000000000E+00 0. -1.
         25    2    1    2    0    0 -0.64674761371E+01 -0.78234858657E+00 -0.11545672800E+03  0.17033868018E+03  0.12507025869E+03 0.  0.
          5    1    3    3  502    0  0.47319641688E+02  0.25392004777E+02 -0.19694764990E+02  0.57352058064E+02  0.41800000000E+01 0. -1.
         -5    1    3    3    0  502 -0.53787117826E+02 -0.26174353364E+02 -0.95761963012E+02  0.11298662212E+03  0.41800000000E+01 0. -1.
        -11    1    1    2    0    0 -0.11313248649E+02 -0.13625962160E+02 -0.43997671339E+01  0.18248681887E+02  0.00000000000E+00 0.  1.
         11    1    1    2    0    0  0.17780724786E+02  0.14408310747E+02 -0.93044861690E+02  0.95818056124E+02  0.00000000000E+00 0. -1.
</event>
<event>
 7    1  0.2873461E-009  0.2021482E+03  0.7561462E-02  0.1147939E+00
         -1   -1    0    0    0  501 -0.00000000000E+00  0.00000000000E+00  0.60383932355E+02  0.60383932355E+02  0.00000000000E+00 0.  1.
          1   -1    0    0  501    0  0.00000000000E+00 -0.00000000000E+00 -0.73520123409E+03  0.73520123409E+03  0.00000000000E+00 0. -1.
         25    2    1    2    0    0 -0.47183654419E+02 -0.17489888862E+03 -0.30900733353E+03  0.37940527739E+03  0.12508762468E+03 0.  0.
          5    1    3    3  502    0 -0.24019624846E+02 -0.19035653893E+03 -0.26616659699E+03  0.32813820876E+03  0.41800000000E+01 0.  1.
         -5    1    3    3    0  502 -0.23164029572E+02  0.15457650307E+02 -0.42840736542E+02  0.51267068636E+02  0.41800000000E+01 0.  1.
        -11    1    1    2    0    0  0.51921582285E+02  0.14639123520E+03 -0.23139311743E+03  0.27869162034E+03  0.00000000000E+00 0.  1.
         11    1    1    2    0    0 -0.47379278660E+01  0.28507653423E+02 -0.13441685077E+03  0.13748826872E+03  0.00000000000E+00 0. -1.
</event>
<event>
 7    1  0.2873461E-009  0.1102592E+03  0.7561462E-02  0.1260091E+00
          1   -1    0    0  501    0  0.00000000000E+00  0.00000000000E+00  0.20000950108E+03  0.20000950108E+03  0.00000000000E+00 0. -1.
         -1   -1    0    0    0  501 -0.00000000000E+00 -0.00000000000E+00 -0.85670797034E+02  0.85670797034E+02  0.00000000000E+00 0.  1.
         25    2    1    2    0    0  0.54663322837E+02  0.42619095540E+02  0.89252984322E+02  0.16857927685E+03  0.12509360976E+03 0.  0.
          5    1    3    3  502    0 -0.20215444174E+02  0.39824490275E+02 -0.81777817084E+01  0.45596082315E+02  0.41800000000E+01 0. -1.
         -5    1    3    3    0  502  0.74878767010E+02  0.27946052648E+01  0.97430766031E+02  0.12298319453E+03  0.41800000000E+01 0. -1.
        -11    1    1    2    0    0 -0.72604240942E+02 -0.29407623849E+02  0.42226345490E+02  0.88990158987E+02  0.00000000000E+00 0. -1.
         11    1    1    2    0    0  0.17940918105E+02 -0.13211471691E+02 -0.17140625764E+02  0.28110862283E+02  0.00000000000E+00 0.  1.
</event>
<event>
 7    1  0.4379643E-009  0.1368402E+03  0.7561462E-02  0.1217645E+00
          4   -1    0    0  501    0  0.00000000000E+00  0.00000000000E+00  0.58134804438E+03  0.58134804438E+03  0.00000000000E+00 0. -1.
         -4   -1    0    0    0  501 -0.00000000000E+00 -0.00000000000E+00 -0.44525167592E+02  0.44525167592E+02  0.00000000000E+00 0.  1.
         25    2    1    2    0    0 -0.10028023061E+03 -0.44873730760E+02  0.20111594924E+03  0.26108806183E+03  0.12509825989E+03 0.  0.
          5    1    3    3  502    0 -0.44068484581E+02  0.23910214224E+02  0.15066780597E+03  0.15884580521E+03  0.41800000000E+01 0.  1.
         -5    1    3    3    0  502 -0.56211746029E+02 -0.68783944984E+02  0.50448143275E+02  0.10224225662E+03  0.41800000000E+01 0.  1.
        -11    1    1    2    0    0  0.56028755365E+02 -0.16836098235E+02  0.20930513177E+03  0.21732766463E+03  0.00000000000E+00 0. -1.
         11    1    1    2    0    0  0.44251475245E+02  0.61709828995E+02  0.12640179579E+03  0.14745748551E+03  0.00000000000E+00 0.  1.
</event>
<event>
 7    1  0.2873461E-009  0.1159401E+03  0.7561462E-02  0.1249949E+00
          3   -1    0    0  501    0  0.00000000000E+00  0.00000000000E+00  0.21015645435E+02  0.21015645435E+02  0.00000000000E+00 0. -1.
         -3   -1    0    0    0  501 -0.00000000000E+00 -0.00000000000E+00 -0.72361285214E+03  0.72361285214E+03  0.00000000000E+00 0.  1.
         25    2    1    2    0    0 -0.31940323469E+02 -0.35122372101E+02 -0.28782498931E+03  0.31740246278E+03  0.12508930258E+03 0.  0.
          5    1    3    3  502    0  0.38334884597E+02  0.20251192253E+02 -0.79759983203E+02  0.90877948290E+02  0.41800000000E+01 0. -1.
         -5    1    3    3    0  502 -0.70275208066E+02 -0.55373564354E+02 -0.20806500611E+03  0.22652451449E+03  0.41800000000E+01 0. -1.
        -11    1    1    2    0    0  0.15151222213E+02 -0.28866840686E+02 -0.19521954277E+03  0.19792302521E+03  0.00000000000E+00 0.  1.
         11    1    1    2    0    0  0.16789101256E+02  0.63989212787E+02 -0.21955267462E+03  0.22930300959E+03  0.00000000000E+00 0. -1.
</event>
<event>
 7    1  0.2873461E-009  0.1132545E+03  0.7561462E-02  0.1254659E+00
         -2   -1    0    0    0  501 -0.00000000000E+00  0.00000000000E+00  0.32362178743E+02  0.32362178743E+02  0.00000000000E+00 0. -1.
          2   -1    0    0  501    0  0.00000000000E+00 -0.00000000000E+00 -0.39949554946E+03  0.39949554946E+03  0.00000000000E+00 0.  1.
         25    2    1    2    0    0 -0.28442733140E+02  0.21400360422E+02 -0.20404369728E+03  0.24196844104E+03  0.12509169263E+03 0.  0.
          5    1    3    3  502    0 -0.71883007862E+02  0.40058960435E+02 -0.13580272292E+03  0.15884501592E+03  0.41800000000E+01 0.  1.
         -5    1    3    3    0  502  0.43440274722E+02 -0.18658600013E+02 -0.68240974365E+02  0.83123425126E+02  0.41800000000E+01 0.  1.
        -11    1    1    2    0    0  0.35796722168E+02  0.28780846404E+02 -0.66937932559E+02  0.81181458800E+02  0.00000000000E+00 0.  1.
         11    1    1    2    0    0 -0.73539890282E+01 -0.50181206825E+02 -0.96151740880E+02  0.10870782836E+03  0.00000000000E+00 0. -1.
</event>
<event>
 7    1  0.2873461E-009  0.1023667E+03  0.7561462E-02  0.1275396E+00
         -2   -1    0    0    0  501 -0.00000000000E+00  0.00000000000E+00  0.59736263769E+03  0.59736263769E+03  0.00000000000E+00 0.  1.
          2   -1    0    0  501    0  0.00000000000E+00 -0.00000000000E+00 -0.39222684886E+02  0.39222684886E+02  0.00000000000E+00 0. -1.
         25    2    1    2    0    0 -0.34682589762E+02 -0.39547475787E+02  0.49417717613E+03  0.51247038079E+03  0.12509166601E+03 0.  0.
          5    1    3    3  502    0  0.21838991089E+02 -0.50288336465E+02  0.38579161204E+03  0.38969025987E+03  0.41800000000E+01 0. -1.
         -5    1    3    3    0  502 -0.56521580852E+02  0.10740860678E+02  0.10838556409E+03  0.12278012092E+03  0.41800000000E+01 0. -1.
        -11    1    1    2    0    0  0.53710142376E+02  0.67312602647E+01  0.54798759186E+01  0.54406969213E+02  0.00000000000E+00 0. -1.
         11    1    1    2    0    0 -0.19027552614E+02  0.32816215522E+02  0.58482900758E+02  0.69707972577E+02  0.00000000000E+00 0.  1.
</event>
<event>
 7    1  0.2873461E-009  0.1093936E+03  0.7561462E-02  0.1261697E+00
          1   -1    0    0  501    0  0.00000000000E+00  0.00000000000E+00  0.41898481972E+03  0.41898481972E+03  0.00000000000E+00 0. -1.
         -1   -1    0    0    0  501 -0.00000000000E+00 -0.00000000000E+00 -0.34905066175E+02  0.34905066175E+02  0.00000000000E+00 0.  1.
         25    2    1    2    0    0 -0.48243096430E+02  0.13795148854E+02  0.17596654123E+03  0.22165012400E+03  0.12508737488E+03 0.  0.
          5    1    3    3  502    0  0.45886767929E+01 -0.39921289451E+02  0.13639524289E+02  0.42641228042E+02  0.41800000000E+01 0. -1.
         -5    1    3    3    0  502 -0.52831773222E+02  0.53716438305E+02  0.16232701694E+03  0.17900889596E+03  0.41800000000E+01 0. -1.
        -11    1    1    2    0    0  0.69734621782E+02 -0.30096886054E+02  0.14797836413E+03  0.16633200616E+03  0.00000000000E+00 0.  1.
         11    1    1    2    0    0 -0.21491525352E+02  0.16301737199E+02  0.60134848191E+02  0.65907755724E+02  0.00000000000E+00 0. -1.
</event>
<event>
 7    1  0.2873461E-009  0.9120227E+02  0.7561462E-02  0.1299966E+00
         -1   -1    0    0    0  501 -0.00000000000E+00  0.00000000000E+00  0.10215225287E+03  0.10215225287E+03  0.00000000000E+00 0.  1.
          1   -1    0    0  501    0  0.00000000000E+00 -0.00000000000E+00 -0.17895293827E+03  0.17895293827E+03  0.00000000000E+00 0. -1.
         25    2    1    2    0    0 -0.39527784774E+02  0.39621355547E+02  0.19629950798E+02  0.13841059675E+03  0.12505942883E+03 0.  0.
          5    1    3    3  502    0 -0.49846144478E+02  0.72885378665E+02  0.40884837427E+02  0.97395887356E+02  0.41800000000E+01 0. -1.
         -5    1    3    3    0  502  0.10318359704E+02 -0.33264023118E+02 -0.21254886628E+02  0.41014709393E+02  0.41800000000E+01 0. -1.
        -11    1    1    2    0    0  0.16789420255E+02 -0.29704798877E+02  0.82585891539E+01  0.35106466692E+02  0.00000000000E+00 0.  1.
         11    1    1    2    0    0  0.22738364520E+02 -0.99165566699E+01 -0.10468922535E+03  0.10758812770E+03  0.00000000000E+00 0. -1.
</event>
<event>
 7    1  0.2873461E-009  0.8854364E+02  0.7561462E-02  0.1306417E+00
         -4   -1    0    0    0  501 -0.00000000000E+00  0.00000000000E+00  0.49499113914E+02  0.49499113914E+02  0.00000000000E+00 0. -1.
          4   -1    0    0  501    0  0.00000000000E+00 -0.00000000000E+00 -0.25643080236E+03  0.25643080236E+03  0.00000000000E+00 0.  1.
         25    2    1    2    0    0  0.21582435319E+02 -0.24423051847E+02 -0.12078786389E+03  0.17691623818E+03  0.12508940920E+03 0.  0.
          5    1    3    3  502    0  0.58062369823E+02  0.10641499375E+02 -0.17315364693E+02  0.61658531875E+02  0.41800000000E+01 0. -1.
         -5    1    3    3    0  502 -0.36479934504E+02 -0.35064551223E+02 -0.10347249919E+03  0.11525770631E+03  0.41800000000E+01 0. -1.
        -11    1    1    2    0    0 -0.78902413456E+01  0.43191354996E+02 -0.45085189208E+01  0.44137011654E+02  0.00000000000E+00 0. -1.
         11    1    1    2    0    0 -0.13692193974E+02 -0.18768303148E+02 -0.81635305641E+02  0.84876666440E+02  0.00000000000E+00 0.  1.
</event>
<event>
 7    1  0.2873461E-009  0.1149647E+03  0.7561462E-02  0.1251643E+00
         -2   -1    0    0    0  501 -0.00000000000E+00  0.00000000000E+00  0.19542934478E+02  0.19542934478E+02  0.00000000000E+00 0.  1.
          2   -1    0    0  501    0  0.00000000000E+00 -0.00000000000E+00 -0.73178708949E+03  0.73178708949E+03  0.00000000000E+00 0. -1.
         25    2    1    2    0    0 -0.38930099974E+02 -0.24165433824E+02 -0.47569681048E+03  0.49399654804E+03  0.12508242521E+03 0.  0.
          5    1    3    3  502    0  0.52341406988E+00  0.47105231036E+02 -0.23913127858E+03  0.24376303565E+03  0.41800000000E+01 0.  1.
         -5    1    3    3    0  502 -0.39453514044E+02 -0.71270664860E+02 -0.23656553190E+03  0.25023351239E+03  0.41800000000E+01 0.  1.
        -11    1    1    2    0    0 -0.29562278437E+02  0.54146294773E+01 -0.62255264658E+02  0.69130054942E+02  0.00000000000E+00 0. -1.
         11    1    1    2    0    0  0.68492378411E+02  0.18750804346E+02 -0.17429207987E+03  0.18820342098E+03  0.00000000000E+00 0.  1.
</event>
<event>
 6    1  0.2873461E-009  0.1218228E+03  0.7561462E-02  0.1240120E+00
          2   -1    0    0  501    0  0.00000000000E+00  0.00000000000E+00  0.70459720555E+02  0.70459720555E+02  0.00000000000E+00 0. -1.
         -2   -1    0    0    0  501 -0.00000000000E+00 -0.00000000000E+00 -0.33843386352E+03  0.33843386352E+03  0.00000000000E+00 0.  1.
          5    1    1    2  502    0 -0.11531063047E+03 -0.18784734597E+02 -0.33589277667E+02  0.12163519115E+03  0.41800000000E+01 0.  1.
         -5    1    1    2    0  502  0.20986039141E+02 -0.14343053510E+02 -0.57023306047E+02  0.62572093263E+02  0.41800000000E+01 0.  1.
        -11    1    1    2    0    0  0.41282703514E+02  0.22015402029E+02 -0.16161602851E+03  0.16825183568E+03  0.00000000000E+00 0.  1.
         11    1    1    2    0    0  0.53041887810E+02  0.11112386078E+02 -0.15745530736E+02  0.56434463982E+02  0.00000000000E+00 0. -1.
</event>
<event>
 7    1  0.2873461E-009  0.1561365E+03  0.7561462E-02  0.1193129E+00
          2   -1    0    0  501    0  0.00000000000E+00  0.00000000000E+00  0.56193883663E+03  0.56193883663E+03  0.00000000000E+00 0. -1.
         -2   -1    0    0    0  501 -0.00000000000E+00 -0.00000000000E+00 -0.57192835454E+02  0.57192835454E+02  0.00000000000E+00 0.  1.
         25    2    1    2    0    0 -0.12505119966E+03  0.71648268292E+02  0.24863085930E+03  0.31342589580E+03  0.12508881277E+03 0.  0.
          5    1    3    3  502    0 -0.22858437988E+02  0.93031253216E+00 -0.10870381939E+02  0.25671214855E+02  0.41800000000E+01 0.  1.
         -5    1    3    3    0  502 -0.10219276167E+03  0.70717955760E+02  0.25950124124E+03  0.28775468095E+03  0.41800000000E+01 0.  1.
        -11    1    1    2    0    0  0.36500663394E+02  0.16202952558E+02  0.42353102962E+02  0.58211849570E+02  0.00000000000E+00 0.  1.
         11    1    1    2    0    0  0.88550536263E+02 -0.87851220851E+02  0.21376203892E+03  0.24749392672E+03  0.00000000000E+00 0. -1.
</event>
<event>
 7    1  0.2873461E-009  0.1659287E+03  0.7561462E-02  0.1182161E+00
          1   -1    0    0  501    0  0.00000000000E+00  0.00000000000E+00  0.82881054126E+03  0.82881054126E+03  0.00000000000E+00 0. -1.
         -1   -1    0    0    0  501 -0.00000000000E+00 -0.00000000000E+00 -0.38933203642E+02  0.38933203642E+02  0.00000000000E+00 0.  1.
         25    2    1    2    0    0  0.15780760170E+02 -0.14009552205E+03  0.47069894418E+03  0.50703116521E+03  0.12508924316E+03 0.  0.
          5    1    3    3  502    0 -0.18783959285E+02 -0.15041312370E+03  0.36402240714E+03  0.39434341659E+03  0.41800000000E+01 0. -1.
         -5    1    3    3    0  502  0.34564719455E+02  0.10317601649E+02  0.10667653704E+03  0.11268774862E+03  0.41800000000E+01 0. -1.
        -11    1    1    2    0    0 -0.17715491937E+02  0.39497765865E+02  0.20051313471E+03  0.20513271157E+03  0.00000000000E+00 0. -1.
         11    1    1    2    0    0  0.19347317666E+01  0.10059775619E+03  0.11866525873E+03  0.15557986813E+03  0.00000000000E+00 0.  1.
</event>
<event>
 7    1  0.2873461E-009  0.1296378E+03  0.7561462E-02  0.1227994E+00
         -2   -1    0    0    0  501 -0.00000000000E+00  0.00000000000E+00  0.70749487490E+02  0.70749487490E+02  0.00000000000E+00 0.  1.
          2   -1    0    0  501    0  0.00000000000E+00 -0.00000000000E+00 -0.27743431947E+03  0.27743431947E+03  0.00000000000E+00 0. -1.
         25    2    1    2    0    0  0.66425833185E+02 -0.32339726428E+02 -0.52401751119E+02  0.15444324549E+03  0.12509405796E+03 0.  0.
          5    1    3    3  502    0  0.78444602687E+02  0.25962628790E+02 -0.15193040381E+02  0.84118456122E+02  0.41800000000E+01 0. -1.
         -5    1    3    3    0  502 -0.12018769501E+02 -0.58302355218E+02 -0.37208710738E+02  0.70324789364E+02  0.41800000000E+01 0. -1.
        -11    1    1    2    0    0 -0.23869706499E+02  0.61036555294E+02 -0.79385529471E+02  0.10294312148E+03  0.00000000000E+00 0.  1.
         11    1    1    2    0    0 -0.42556126687E+02 -0.28696828866E+02 -0.74897551388E+02  0.90797439994E+02  0.00000000000E+00 0. -1.
</event>
<event>
 7    1  0.2873461E-009  0.1693518E+03  0.7561462E-02  0.1178525E+00
         -2   -1    0    0    0  501 -0.00000000000E+00  0.00000000000E+00  0.71231227521E+02  0.71231227521E+02  0.00000000000E+00 0.  1.
          2   -1    0    0  501    0  0.00000000000E+00 -0.00000000000E+00 -0.69171792577E+03  0.69171792577E+03  0.00000000000E+00 0. -1.
         25    2    1    2    0    0  0.35585591988E+02 -0.16328390371E+03 -0.15476588170E+03  0.25986166373E+03  0.12509052149E+03 0.  0.
          5    1    3    3  502    0  0.25808161549E+02 -0.14876384712E+03 -0.58578585271E+02  0.16200514333E+03  0.41800000000E+01 0. -1.
         -5    1    3    3    0  502  0.97774304390E+01 -0.14520056590E+02 -0.96187296432E+02  0.97856520397E+02  0.41800000000E+01 0. -1.
        -11    1    1    2    0    0 -0.26937066372E+02  0.57184383154E+02 -0.29654071519E+03  0.30320299303E+03  0.00000000000E+00 0. -1.
         11    1    1    2    0    0 -0.86485256164E+01  0.10609952056E+03 -0.16918010136E+03  0.19988449653E+03  0.00000000000E+00 0.  1.
</event>
<event>
 7    1  0.2873461E-009  0.1618157E+03  0.7561462E-02  0.1186662E+00
          2   -1    0    0  501    0  0.00000000000E+00  0.00000000000E+00  0.56732939484E+02  0.56732939484E+02  0.00000000000E+00 0. -1.
         -2   -1    0    0    0  501 -0.00000000000E+00 -0.00000000000E+00 -0.63736201316E+03  0.63736201316E+03  0.00000000000E+00 0.  1.
         25    2    1    2    0    0  0.13887185581E+03  0.94270433042E+01 -0.17663465693E+03  0.25733789643E+03  0.12509488170E+03 0.  0.
          5    1    3    3  502    0  0.21791093749E+02  0.37905487420E+02 -0.54241648184E+00  0.43925440908E+02  0.41800000000E+01 0. -1.
         -5    1    3    3    0  502  0.11708076206E+03 -0.28478444116E+02 -0.17609224045E+03  0.21341245552E+03  0.41800000000E+01 0. -1.
        -11    1    1    2    0    0 -0.70887696903E+02 -0.43424924128E+02 -0.27223065311E+03  0.28464068244E+03  0.00000000000E+00 0.  1.
         11    1    1    2    0    0 -0.67984158910E+02  0.33997880824E+02 -0.13176376364E+03  0.15211637378E+03  0.00000000000E+00 0. -1.
</event>
<event>
 7    1  0.2873461E-009  0.1406063E+03  0.7561462E-02  0.1212515E+00
         -2   -1    0    0    0  501 -0.00000000000E+00  0.00000000000E+00  0.76640525734E+02  0.76640525734E+02  0.00000000000E+00 0. -1.
          2   -1    0    0  501    0  0.00000000000E+00 -0.00000000000E+00 -0.30318781788E+03  0.30318781788E+03  0.00000000000E+00 0.  1.
         25    2    1    2    0    0 -0.10256484701E+03  0.23045187626E+02 -0.85632371223E+02  0.18447525604E+03  0.12509032166E+03 0.  0.
          5    1    3    3  502    0 -0.15673667470E+02 -0.48164549330E+02 -0.22999677955E+02  0.55784812002E+02  0.41800000000E+01 0.  1.
         -5    1    3    3    0  502 -0.86891179542E+02  0.71209736956E+02 -0.62632693269E+02  0.12869044403E+03  0.41800000000E+01 0.  1.
        -11    1    1    2    0    0  0.67489988188E+02  0.11816299376E+02 -0.12646426402E+03  0.14383231038E+03  0.00000000000E+00 0.  1.
         11    1    1    2    0    0  0.35074858823E+02 -0.34861487002E+02 -0.14450656901E+02  0.51520777191E+02  0.00000000000E+00 0. -1.
</event>
<event>
 7    1  0.2873461E-009  0.1542654E+03  0.7561462E-02  0.1195328E+00
          1   -1    0    0  501    0  0.00000000000E+00  0.00000000000E+00  0.33522148437E+03  0.33522148437E+03  0.00000000000E+00 0. -1.
         -1   -1    0    0    0  501 -0.00000000000E+00 -0.00000000000E+00 -0.13828526563E+03  0.13828526563E+03  0.00000000000E+00 0.  1.
         25    2    1    2    0    0 -0.58928100449E+02 -0.13939089928E+03 -0.16018025076E+02  0.19699300556E+03  0.12508926129E+03 0.  0.
          5    1    3    3  502    0 -0.24457488679E+02 -0.84532229368E+02 -0.70028269844E+02  0.11254020407E+03  0.41800000000E+01 0. -1.
         -5    1    3    3    0  502 -0.34470611770E+02 -0.54858669912E+02  0.54010244769E+02  0.84452801495E+02  0.41800000000E+01 0. -1.
        -11    1    1    2    0    0  0.10930722735E+02  0.71692779009E+02  0.16603403062E+03  0.18118122028E+03  0.00000000000E+00 0. -1.
         11    1    1    2    0    0  0.47997377714E+02  0.67698120271E+02  0.46920213197E+02  0.95332524157E+02  0.00000000000E+00 0.  1.
</event>
<event>
 7    1  0.2873461E-009  0.1070965E+03  0.7561462E-02  0.1266043E+00
         -1   -1    0    0    0  501 -0.00000000000E+00  0.00000000000E+00  0.11422839645E+03  0.11422839645E+03  0.00000000000E+00 0.  1.
          1   -1    0    0  501    0  0.00000000000E+00 -0.00000000000E+00 -0.23594105964E+03  0.23594105964E+03  0.00000000000E+00 0. -1.
         25    2    1    2    0    0 -0.88174576127E+02 -0.81634216936E+01  0.24748375798E+02  0.15524408431E+03  0.12508735460E+03 0.  0.
          5    1    3    3  502    0 -0.86673558061E+02  0.91997083453E+00  0.68363320602E+02  0.11047247629E+03  0.41800000000E+01 0.  1.
         -5    1    3    3    0  502 -0.15010180657E+01 -0.90833925281E+01 -0.43614944804E+02  0.44771608027E+02  0.41800000000E+01 0.  1.
        -11    1    1    2    0    0  0.77094650446E+02 -0.26021018488E+02 -0.13422910273E+03  0.15696538011E+03  0.00000000000E+00 0.  1.
         11    1    1    2    0    0  0.11079925680E+02  0.34184440182E+02 -0.12231936248E+02  0.37959991675E+02  0.00000000000E+00 0. -1.
</event>
<event>
 7    1  0.2873461E-009  0.1665096E+03  0.7561462E-02  0.1181537E+00
          1   -1    0    0  501    0  0.00000000000E+00  0.00000000000E+00  0.43186145180E+02  0.43186145180E+02  0.00000000000E+00 0. -1.
         -1   -1    0    0    0  501 -0.00000000000E+00 -0.00000000000E+00 -0.78084772887E+03  0.78084772887E+03  0.00000000000E+00 0.  1.
         25    2    1    2    0    0  0.53995284508E+02  0.12407437652E+03 -0.43096461966E+03  0.46870874309E+03  0.12508973098E+03 0.  0.
          5    1    3    3  502    0  0.77894929748E+02  0.56550956731E+02 -0.14656418177E+03  0.17539715666E+03  0.41800000000E+01 0.  1.
         -5    1    3    3    0  502 -0.23899645240E+02  0.67523419789E+02 -0.28440043789E+03  0.29331158643E+03  0.41800000000E+01 0.  1.
        -11    1    1    2    0    0 -0.74357560516E+02 -0.12396721329E+03 -0.20041121573E+03  0.24710639847E+03  0.00000000000E+00 0. -1.
         11    1    1    2    0    0  0.20362276008E+02 -0.10716323192E+00 -0.10628574831E+03  0.10821873249E+03  0.00000000000E+00 0.  1.
</event>
<event>
 7    1  0.2873461E-009  0.1043170E+03  0.7561462E-02  0.1271471E+00
         -3   -1    0    0    0  501 -0.00000000000E+00  0.00000000000E+00  0.55546671024E+02  0.55546671024E+02  0.00000000000E+00 0.  1.
          3   -1    0    0  501    0  0.00000000000E+00 -0.00000000000E+00 -0.23957837308E+03  0.23957837308E+03  0.00000000000E+00 0. -1.
         25    2    1    2    0    0 -0.21620291778E+02 -0.31835421444E+02 -0.10662685456E+03  0.16880946233E+03  0.12508564019E+03 0.  0.
          5    1    3    3  502    0  0.27075494962E+02 -0.65793935839E+02 -0.61172149068E+02  0.93922460798E+02  0.41800000000E+01 0.  1.
         -5    1    3    3    0  502 -0.48695786740E+02  0.33958514396E+02 -0.45454705496E+02  0.74887001529E+02  0.41800000000E+01 0.  1.
        -11    1    1    2    0    0 -0.71529870454E+01  0.45456234764E+02 -0.82120322089E+02  0.94133850461E+02  0.00000000000E+00 0. -1.
         11    1    1    2    0    0  0.28773278823E+02 -0.13620813321E+02  0.47154745987E+01  0.32181731315E+02  0.00000000000E+00 0.  1.
</event>
<event>
 7    1  0.2873461E-009  0.1666781E+03  0.7561462E-02  0.1181357E+00
         -2   -1    0    0    0  501 -0.00000000000E+00  0.00000000000E+00  0.42423675935E+02  0.42423675935E+02  0.00000000000E+00 0.  1.
          2   -1    0    0  501    0  0.00000000000E+00 -0.00000000000E+00 -0.76495583711E+03  0.76495583711E+03  0.00000000000E+00 0. -1.
         25    2    1    2    0    0 -0.13204895420E+03 -0.32070373561E+02 -0.27877972800E+03  0.33440858575E+03  0.12508209432E+03 0.  0.
          5    1    3    3  502    0  0.16175320663E+02  0.13571353659E+02 -0.76561580828E+02  0.79529684380E+02  0.41800000000E+01 0. -1.
         -5    1    3    3    0  502 -0.14822427486E+03 -0.45641727219E+02 -0.20221814717E+03  0.25487890137E+03  0.41800000000E+01 0. -1.
        -11    1    1    2    0    0  0.69252406211E+02 -0.23192594152E+02 -0.13991838926E+03  0.15783202414E+03  0.00000000000E+00 0.  1.
         11    1    1    2    0    0  0.62796547985E+02  0.55262967713E+02 -0.30383404391E+03  0.31513890315E+03  0.00000000000E+00 0. -1.
</event>
<event>
 7    1  0.2873461E-009  0.1180106E+03  0.7561462E-02  0.1246416E+00
         -1   -1    0    0    0  501 -0.00000000000E+00  0.00000000000E+00  0.41312297876E+03  0.41312297876E+03  0.00000000000E+00 0.  1.
          1   -1    0    0  501    0  0.00000000000E+00 -0.00000000000E+00 -0.57376303980E+02  0.57376303980E+02  0.00000000000E+00 0. -1.
         25    2    1    2    0    0 -0.10094428630E+03  0.10658494654E+02  0.12946977296E+03  0.20667212093E+03  0.12509033143E+03 0.  0.
          5    1    3    3  502    0 -0.71128110471E+02  0.33000943247E+02  0.72791272245E+01  0.78858914826E+02  0.41800000000E+01 0.  1.
         -5    1    3    3    0  502 -0.29816175825E+02 -0.22342448593E+02  0.12219064573E+03  0.12781320610E+03  0.41800000000E+01 0.  1.
        -11    1    1    2    0    0  0.10285323494E+03  0.62005658800E+01  0.22418623732E+03  0.24673204891E+03  0.00000000000E+00 0.  1.
         11    1    1    2    0    0 -0.19089486406E+01 -0.16859060534E+02  0.20906645005E+01  0.17095112900E+02  0.00000000000E+00 0. -1.
</event>
<event>
 7    1  0.2873461E-009  0.6786215E+02  0.7561462E-02  0.1367518E+00
          2   -1    0    0  501    0  0.00000000000E+00  0.00000000000E+00  0.37225037505E+03  0.37225037505E+03  0.00000000000E+00 0. -1.
         -2   -1    0    0    0  501 -0.00000000000E+00 -0.00000000000E+00 -0.45761290223E+02  0.45761290223E+02  0.00000000000E+00 0.  1.
         25    2    1    2    0    0 -0.27680778868E+02 -0.36507549032E+02  0.91987276472E+02  0.16189638670E+03  0.12509897817E+03 0.  0.
          5    1    3    3  502    0 -0.32755986060E+02 -0.37003686497E+02 -0.17212794495E+02  0.52497429761E+02  0.41800000000E+01 0.  1.
         -5    1    3    3    0  502  0.50752071926E+01  0.49613746492E+00  0.10920007097E+03  0.10939895694E+03  0.41800000000E+01 0.  1.
        -11    1    1    2    0    0  0.34744523098E+01 -0.18823240158E+02  0.64449322009E+01  0.20197112169E+02  0.00000000000E+00 0.  1.
         11    1    1    2    0    0  0.24206326558E+02  0.55330789190E+02  0.22805687615E+03  0.23591816640E+03  0.00000000000E+00 0. -1.
</event>
<event>
 7    1  0.2873461E-009  0.9691819E+02  0.7561462E-02  0.1286913E+00
         -2   -1    0    0    0  501 -0.00000000000E+00  0.00000000000E+00  0.20388008378E+02  0.20388008378E+02  0.00000000000E+00 0.  1.
          2   -1    0    0  501    0  0.00000000000E+00 -0.00000000000E+00 -0.69266362039E+03  0.69266362039E+03  0.00000000000E+00 0. -1.
         25    2    1    2    0    0  0.23176627801E+02  0.27260270695E+02 -0.47618613164E+03  0.49364045826E+03  0.12508953446E+03 0.  0.
          5    1    3    3  502    0  0.70474755613E+02 -0.48861940262E+01 -0.30514524397E+03  0.31324376831E+03  0.41800000000E+01 0.  1.
         -5    1    3    3    0  502 -0.47298127812E+02  0.32146464721E+02 -0.17104088768E+03  0.18039668995E+03  0.41800000000E+01 0.  1.
        -11    1    1    2    0    0  0.18282867883E+01  0.15815413801E+02  0.11672223064E+01  0.15963469366E+02  0.00000000000E+00 0.  1.
         11    1    1    2    0    0 -0.25004914589E+02 -0.43075684496E+02 -0.19725670268E+03  0.20344770114E+03  0.00000000000E+00 0. -1.
</event>
<event>
 7    1  0.2873461E-009  0.1213026E+03  0.7561462E-02  0.1240964E+00
         -1   -1    0    0    0  501 -0.00000000000E+00  0.00000000000E+00  0.12015836135E+03  0.12015836135E+03  0.00000000000E+00 0.  1.
          1   -1    0    0  501    0  0.00000000000E+00 -0.00000000000E+00 -0.16504394540E+03  0.16504394540E+03  0.00000000000E+00 0. -1.
         25    2    1    2    0    0  0.75766649031E+02 -0.48194825744E+02 -0.23947637052E+02  0.15581104991E+03  0.12506105557E+03 0.  0.
          5    1    3    3  502    0  0.91824554197E+01  0.19028488831E+02 -0.52619438157E+02  0.56856649098E+02  0.41800000000E+01 0. -1.
         -5    1    3    3    0  502  0.66584193612E+02 -0.67223314575E+02  0.28671801105E+02  0.98954400812E+02  0.41800000000E+01 0. -1.
        -11    1    1    2    0    0 -0.58014686265E+02  0.74622834869E+02 -0.74471576623E+01  0.94814194420E+02  0.00000000000E+00 0.  1.
         11    1    1    2    0    0 -0.17751962767E+02 -0.26428009125E+02 -0.13490789336E+02  0.34577062416E+02  0.00000000000E+00 0. -1.
</event>
<event>
 7    1  0.2873461E-009  0.2034809E+03  0.7561462E-02  0.1146835E+00
          1   -1    0    0  501    0  0.00000000000E+00  0.00000000000E+00  0.15907752505E+04  0.15907752505E+04  0.00000000000E+00 0. -1.
         -1   -1    0    0    0  501 -0.00000000000E+00 -0.00000000000E+00 -0.27693954017E+02  0.27693954017E+02  0.00000000000E+00 0.  1.
         25    2    1    2    0    0  0.16975657221E+03  0.39721418156E+02  0.97631995913E+03  0.99962183905E+03  0.12509226052E+03 0.  0.
          5    1    3    3  502    0  0.18657948509E+03  0.19295610666E+02  0.84076759958E+03  0.86144753395E+03  0.41800000000E+01 0. -1.
         -5    1    3    3    0  502 -0.16822912886E+02  0.20425807490E+02  0.13555235955E+03  0.13817430510E+03  0.41800000000E+01 0. -1.
        -11    1    1    2    0    0 -0.14936083011E+03 -0.62557626873E+02  0.43818653132E+03  0.46715045808E+03  0.00000000000E+00 0.  1.
         11    1    1    2    0    0 -0.20395742095E+02  0.22836208718E+02  0.14857480604E+03  0.15169690740E+03  0.00000000000E+00 0. -1.
</event>
<event>
 7    1  0.2873461E-009  0.8831869E+02  0.7561462E-02  0.1306975E+00
         -2   -1    0    0    0  501 -0.00000000000E+00  0.00000000000E+00  0.12006756866E+02  0.12006756866E+02  0.00000000000E+00 0.  1.
          2   -1    0    0  501    0  0.00000000000E+00 -0.00000000000E+00 -0.13076183677E+04  0.13076183677E+04  0.00000000000E+00 0. -1.
         25    2    1    2    0    0  0.22041634821E+02 -0.94461542632E+01 -0.98741086035E+03  0.99559120733E+03  0.12508629614E+03 0.  0.
          5    1    3    3  502    0  0.36525932126E+02  0.24291995044E+02 -0.89473958842E+03  0.89582400517E+03  0.41800000000E+01 0. -1.
         -5    1    3    3    0  502 -0.14484297305E+02 -0.33738149307E+02 -0.92671271924E+02  0.99767202161E+02  0.41800000000E+01 0. -1.
        -11    1    1    2    0    0 -0.29151218058E+02  0.48139700081E+02 -0.13203237339E+03  0.14352620618E+03  0.00000000000E+00 0.  1.
         11    1    1    2    0    0  0.71095832371E+01 -0.38693545817E+02 -0.17616837708E+03  0.18050771104E+03  0.00000000000E+00 0. -1.
</event>
<event>
 7    1  0.2873461E-009  0.1027060E+03  0.7561462E-02  0.1274706E+00
          2   -1    0    0  501    0  0.00000000000E+00  0.00000000000E+00  0.17293295568E+03  0.17293295568E+03  0.00000000000E+00 0.  1.
         -2   -1    0    0    0  501 -0.00000000000E+00 -0.00000000000E+00 -0.91653941506E+02  0.91653941506E+02  0.00000000000E+00 0. -1.
         25    2    1    2    0    0  0.46100916904E+02 -0.43726060319E+02  0.59096724799E+02  0.15224599694E+03  0.12509659392E+03 0.  0.
          5    1    3    3  502    0  0.47708264716E+02 -0.62728948659E+02 -0.10816044265E+02  0.79658387729E+02  0.41800000000E+01 0.  1.
         -5    1    3    3    0  502 -0.16073478121E+01  0.19002888340E+02  0.69912769064E+02  0.72587609208E+02  0.41800000000E+01 0.  1.
        -11    1    1    2    0    0 -0.26942291661E+02  0.69680687201E+02  0.27572806557E+02  0.79633817629E+02  0.00000000000E+00 0.  1.
         11    1    1    2    0    0 -0.19158625243E+02 -0.25954626882E+02 -0.53905171863E+01  0.32707082617E+02  0.00000000000E+00 0. -1.
</event>
<event>
 7    1  0.2873461E-009  0.1242136E+03  0.7561462E-02  0.1236303E+00
         -1   -1    0    0    0  501 -0.00000000000E+00  0.00000000000E+00  0.48090752763E+02  0.48090752763E+02  0.00000000000E+00 0.  1.
          1   -1    0    0  501    0  0.00000000000E+00 -0.00000000000E+00 -0.33208506714E+03  0.33208506714E+03  0.00000000000E+00 0. -1.
         25    2    1    2    0    0 -0.45283979504E+02  0.45968837647E+02 -0.16750107895E+03  0.21878461653E+03  0.12508526750E+03 0.  0.
          5    1    3    3  502    0 -0.53157460381E+02 -0.31378989660E+02 -0.61249588272E+02  0.87059411035E+02  0.41800000000E+01 0. -1.
         -5    1    3    3    0  502  0.78734808771E+01  0.77347827307E+02 -0.10625149068E+03  0.13172520549E+03  0.41800000000E+01 0. -1.
        -11    1    1    2    0    0  0.68389578119E+02 -0.14924886536E+02 -0.56297818131E+02  0.89829454856E+02  0.00000000000E+00 0.  1.
         11    1    1    2    0    0 -0.23105598615E+02 -0.31043951111E+02 -0.60195417294E+02  0.71561748519E+02  0.00000000000E+00 0. -1.
</event>
<event>
 7    1  0.2873461E-009  0.1037102E+03  0.7561462E-02  0.1272682E+00
         -1   -1    0    0    0  501 -0.00000000000E+00  0.00000000000E+00  0.31153071836E+02  0.31153071836E+02  0.00000000000E+00 0.  1.
          1   -1    0    0  501    0  0.00000000000E+00 -0.00000000000E+00 -0.60613910882E+03  0.60613910882E+03  0.00000000000E+00 0. -1.
         25    2    1    2    0    0  0.45569916605E+02  0.52640080549E+02 -0.42465137742E+03  0.44813272192E+03  0.12508616522E+03 0.  0.
          5    1    3    3  502    0  0.74991937201E+02  0.63044475907E+02 -0.38609676260E+03  0.39835484067E+03  0.41800000000E+01 0.  1.
         -5    1    3    3    0  502 -0.29422020596E+02 -0.10404395357E+02 -0.38554614820E+02  0.49777881259E+02  0.41800000000E+01 0.  1.
        -11    1    1    2    0    0 -0.18237399495E+02 -0.46375167733E+02 -0.15307740912E+03  0.16098432254E+03  0.00000000000E+00 0. -1.
         11    1    1    2    0    0 -0.27332517111E+02 -0.62649128167E+01  0.27427495566E+01  0.28175136190E+02  0.00000000000E+00 0.  1.
</event>
<event>
 7    1  0.2873461E-009  0.1276315E+03  0.7561462E-02  0.1231013E+00
          1   -1    0    0  501    0  0.00000000000E+00  0.00000000000E+00  0.24790798484E+03  0.24790798484E+03  0.00000000000E+00 0. -1.
         -1   -1    0    0    0  501 -0.00000000000E+00 -0.00000000000E+00 -0.93326815690E+02  0.93326815690E+02  0.00000000000E+00 0.  1.
         25    2    1    2    0    0 -0.15960002409E+02  0.10326893642E+03  0.53610083959E+02  0.17158542301E+03  0.12509325075E+03 0.  0.
          5    1    3    3  502    0  0.22735426704E+02  0.27993376641E+02  0.75748741762E+02  0.83999244292E+02  0.41800000000E+01 0. -1.
         -5    1    3    3    0  502 -0.38695429112E+02  0.75275559775E+02 -0.22138657803E+02  0.87586178721E+02  0.41800000000E+01 0. -1.
        -11    1    1    2    0    0  0.46963395869E+02 -0.32959158169E+02  0.58111962114E+02  0.81663129988E+02  0.00000000000E+00 0.  1.
         11    1    1    2    0    0 -0.31003393460E+02 -0.70309778248E+02  0.42859123078E+02  0.87986247529E+02  0.00000000000E+00 0. -1.
</event>
<event>
 7    1  0.2873461E-009  0.1356038E+03  0.7561462E-02  0.1219370E+00
         -1   -1    0    0    0  501 -0.00000000000E+00  0.00000000000E+00  0.20501402065E+02  0.20501402065E+02  0.00000000000E+00 0.  1.
          1   -1    0    0  501    0  0.00000000000E+00 -0.00000000000E+00 -0.10901761752E+04  0.10901761752E+04  0.00000000000E+00 0. -1.
         25    2    1    2    0    0 -0.94518080014E+02 -0.47918290372E+01 -0.74575990746E+03  0.76208728968E+03  0.12515018359E+03 0.  0.
          5    1    3    3  502    0  0.30303129342E+02  0.70897780511E+01 -0.15705966405E+03  0.16016789651E+03  0.41800000000E+01 0. -1.
         -5    1    3    3    0  502 -0.12482120936E+03 -0.11881607088E+02 -0.58870024341E+03  0.60191939318E+03  0.41800000000E+01 0. -1.
        -11    1    1    2    0    0 -0.10167690654E+01  0.17893717406E+02 -0.10713501787E+02  0.20880566622E+02  0.00000000000E+00 0.  1.
         11    1    1    2    0    0  0.95534849080E+02 -0.13101888368E+02 -0.31320136389E+03  0.32770972096E+03  0.00000000000E+00 0. -1.
</event>
<event>
 7    1  0.2873461E-009  0.1283596E+03  0.7561462E-02  0.1229910E+00
          1   -1    0    0  501    0  0.00000000000E+00  0.00000000000E+00  0.25318230108E+03  0.25318230108E+03  0.00000000000E+00 0. -1.
         -1   -1    0    0    0  501 -0.00000000000E+00 -0.00000000000E+00 -0.12478703190E+03  0.12478703190E+03  0.00000000000E+00 0.  1.
         25    2    1    2    0    0  0.90570506977E+02  0.33153869918E+02 -0.40062673555E+02  0.16295573465E+03  0.12508939930E+03 0.  0.
          5    1    3    3  502    0  0.11575588976E+03  0.49805532040E+02 -0.40630390802E+02  0.13247006490E+03  0.41800000000E+01 0.  1.
         -5    1    3    3    0  502 -0.25185382786E+02 -0.16651662122E+02  0.56771724700E+00  0.30485669754E+02  0.41800000000E+01 0.  1.
        -11    1    1    2    0    0 -0.70407677824E+02 -0.37136370072E+02  0.48295972084E+02  0.93106669998E+02  0.00000000000E+00 0.  1.
         11    1    1    2    0    0 -0.20162829153E+02  0.39825001534E+01  0.12016197065E+03  0.12190692834E+03  0.00000000000E+00 0. -1.
</event>
<event>
 7    1  0.2873461E-009  0.1291009E+03  0.7561462E-02  0.1228796E+00
         -1   -1    0    0    0  501 -0.00000000000E+00  0.00000000000E+00  0.21881634683E+02  0.21881634683E+02  0.00000000000E+00 0.  1.
          1   -1    0    0  501    0  0.00000000000E+00 -0.00000000000E+00 -0.12140088320E+04  0.12140088320E+04  0.00000000000E+00 0. -1.
         25    2    1    2    0    0  0.53799434411E+02 -0.83556278609E+02 -0.91421937677E+03  0.92807356310E+03  0.12508972308E+03 0.  0.
          5    1    3    3  502    0  0.10474899088E+02  0.22422261738E+02 -0.46661280438E+02  0.52983288162E+02  0.41800000000E+01 0. -1.
         -5    1    3    3    0  502  0.43324535322E+02 -0.10597854035E+03 -0.86755809633E+03  0.87509027494E+03  0.41800000000E+01 0. -1.
        -11    1    1    2    0    0 -0.58800829695E+02  0.32404025365E+02 -0.85761784573E+02  0.10891575701E+03  0.00000000000E+00 0.  1.
         11    1    1    2    0    0  0.50013952844E+01  0.51152253244E+02 -0.19214603595E+03  0.19890114655E+03  0.00000000000E+00 0. -1.
</event>
<event>
 7    1  0.2873461E-009  0.1094194E+03  0.7561462E-02  0.1261649E+00
          1   -1    0    0  501    0  0.00000000000E+00  0.00000000000E+00  0.30738447161E+03  0.30738447161E+03  0.00000000000E+00 0. -1.
         -1   -1    0    0    0  501 -0.00000000000E+00 -0.00000000000E+00 -0.60220800581E+02  0.60220800581E+02  0.00000000000E+00 0.  1.
         25    2    1    2    0    0 -0.22245299044E+02  0.72371010950E+02  0.18061709996E+03  0.23238282778E+03  0.12508727071E+03 0.  0.
          5    1    3    3  502    0  0.13735110986E+02 -0.20347094102E+02  0.10352648993E+03  0.10647940659E+03  0.41800000000E+01 0. -1.
         -5    1    3    3    0  502 -0.35980410030E+02  0.92718105052E+02  0.77090610032E+02  0.12590342118E+03  0.41800000000E+01 0. -1.
        -11    1    1    2    0    0  0.28152534274E+02 -0.73380660754E+01 -0.13371076912E+02  0.32018714802E+02  0.00000000000E+00 0.  1.
         11    1    1    2    0    0 -0.59072352300E+01 -0.65032944875E+02  0.79917647985E+02  0.10320372962E+03  0.00000000000E+00 0. -1.
</event>
<event>
 7    1  0.4911556E-009  0.7789563E+02  0.7561462E-02  0.1335132E+00
          2   -1    0    0  501    0  0.00000000000E+00  0.00000000000E+00  0.10892306215E+04  0.10892306215E+04  0.00000000000E+00 0. -1.
         -2   -1    0    0    0  501 -0.00000000000E+00 -0.00000000000E+00 -0.19466503336E+02  0.19466503336E+02  0.00000000000E+00 0.  1.
         25    2    1    2    0    0 -0.68878791754E+02 -0.24732271548E+02  0.82405936794E+03  0.83670573012E+03  0.12508662485E+03 0.  0.
          5    1    3    3  502    0 -0.27135313043E+02 -0.15370217080E+02  0.75300003616E+03  0.75365714728E+03  0.41800000000E+01 0.  1.
         -5    1    3    3    0  502 -0.41743478711E+02 -0.93620544684E+01  0.71059331776E+02  0.83048582837E+02  0.41800000000E+01 0.  1.
        -11    1    1    2    0    0  0.45097245227E+02 -0.25260175108E+01  0.22664734374E+03  0.23110422047E+03  0.00000000000E+00 0. -1.
         11    1    1    2    0    0  0.23781546527E+02  0.27258289059E+02  0.19057406508E+02  0.40887174278E+02  0.00000000000E+00 0.  1.
</event>
<event>
 7    1  0.2873461E-009  0.1258694E+03  0.7561462E-02  0.1233717E+00
          2   -1    0    0  501    0  0.00000000000E+00  0.00000000000E+00  0.25753369233E+03  0.25753369233E+03  0.00000000000E+00 0. -1.
         -2   -1    0    0    0  501 -0.00000000000E+00 -0.00000000000E+00 -0.91637873290E+02  0.91637873290E+02  0.00000000000E+00 0.  1.
         25    2    1    2    0    0 -0.34254680510E+02  0.99441834128E+02  0.57057746282E+02  0.17310389954E+03  0.12508921661E+03 0.  0.
          5    1    3    3  502    0 -0.59622876367E+02  0.83085859381E+02  0.84017198416E+02  0.13241793476E+03  0.41800000000E+01 0.  1.
         -5    1    3    3    0  502  0.25368195857E+02  0.16355974747E+02 -0.26959452134E+02  0.40685964783E+02  0.41800000000E+01 0.  1.
        -11    1    1    2    0    0  0.11522802723E+02 -0.95072752832E+02  0.11729288270E+03  0.15142398636E+03  0.00000000000E+00 0. -1.
         11    1    1    2    0    0  0.22731877787E+02 -0.43690812958E+01 -0.84548099404E+01  0.24643679722E+02  0.00000000000E+00 0.  1.
</event>
<event>
 7    1  0.2873461E-009  0.1258508E+03  0.7561462E-02  0.1233746E+00
         -2   -1    0    0    0  501 -0.00000000000E+00  0.00000000000E+00  0.12302568908E+02  0.12302568908E+02  0.00000000000E+00 0.  1.
          2   -1    0    0  501    0  0.00000000000E+00 -0.00000000000E+00 -0.15215019450E+04  0.15215019450E+04  0.00000000000E+00 0. -1.
         25    2    1    2    0    0 -0.12958680928E+02 -0.62682293618E+02 -0.11229672481E+04  0.11317241383E+04  0.12508831891E+03 0.  0.
          5    1    3    3  502    0  0.39219600220E+02  0.18329173432E+02 -0.30358053808E+03  0.30668020989E+03  0.41800000000E+01 0. -1.
         -5    1    3    3    0  502 -0.52178281149E+02 -0.81011467050E+02 -0.81938671005E+03  0.82504392843E+03  0.41800000000E+01 0. -1.
        -11    1    1    2    0    0 -0.39291658738E+02  0.18959248698E+02 -0.15413447873E+03  0.16018965351E+03  0.00000000000E+00 0. -1.
         11    1    1    2    0    0  0.52250339666E+02  0.43723044920E+02 -0.23209764925E+03  0.24189072211E+03  0.00000000000E+00 0.  1.
</event>
<event>
 7    1  0.2873461E-009  0.1091088E+03  0.7561462E-02  0.1262229E+00
         -2   -1    0    0    0  501 -0.00000000000E+00  0.00000000000E+00  0.59387128567E+03  0.59387128567E+03  0.00000000000E+00 0.  1.
          2   -1    0    0  501    0  0.00000000000E+00 -0.00000000000E+00 -0.40229864988E+02  0.40229864988E+02  0.00000000000E+00 0. -1.
         25    2    1    2    0    0 -0.74050797870E+02  0.48370085782E+02  0.44739073820E+03  0.47289456697E+03  0.12509041921E+03 0.  0.
          5    1    3    3  502    0 -0.83236931797E+02  0.66305202278E+02  0.43709609475E+03  0.44988357950E+03  0.41800000000E+01 0.  1.
         -5    1    3    3    0  502  0.91861339275E+01 -0.17935116496E+02  0.10294643450E+02  0.23010987463E+02  0.41800000000E+01 0.  1.
        -11    1    1    2    0    0  0.23891662596E+02 -0.41087607300E+01  0.88832018274E+02  0.92080513285E+02  0.00000000000E+00 0.  1.
         11    1    1    2    0    0  0.50159135274E+02 -0.44261325052E+02  0.17418664212E+02  0.69126070405E+02  0.00000000000E+00 0. -1.
</event>
<event>
 7    1  0.2873461E-009  0.1232794E+03  0.7561462E-02  0.1237783E+00
          2   -1    0    0  501    0  0.00000000000E+00  0.00000000000E+00  0.63315230436E+03  0.63315230436E+03  0.00000000000E+00 0. -1.
         -2   -1    0    0    0  501 -0.00000000000E+00 -0.00000000000E+00 -0.33529508473E+02  0.33529508473E+02  0.00000000000E+00 0.  1.
         25    2    1    2    0    0 -0.87085721273E+02  0.43141228537E+02  0.31089423211E+03  0.34892354891E+03  0.12508929202E+03 0.  0.
          5    1    3    3  502    0 -0.41272561402E+02 -0.26409252664E+02  0.34104145515E+02  0.59845117531E+02  0.41800000000E+01 0.  1.
         -5    1    3    3    0  502 -0.45813159870E+02  0.69550481202E+02  0.27679008660E+03  0.28907843138E+03  0.41800000000E+01 0.  1.
        -11    1    1    2    0    0  0.88837564385E+02 -0.20354050524E+02  0.27790948402E+03  0.29247236028E+03  0.00000000000E+00 0. -1.
         11    1    1    2    0    0 -0.17518431119E+01 -0.22787178013E+02  0.10819079752E+02  0.25285903637E+02  0.00000000000E+00 0.  1.
</event>
<event>
 7    1  0.2873461E-009  0.1397601E+03  0.7561462E-02  0.1213652E+00
         -2   -1    0    0    0  501 -0.00000000000E+00  0.00000000000E+00  0.40933806348E+02  0.40933806348E+02  0.00000000000E+00 0.  1.
          2   -1    0    0  501    0  0.00000000000E+00 -0.00000000000E+00 -0.75173756895E+03  0.75173756895E+03  0.00000000000E+00 0. -1.
         25    2    1    2    0    0 -0.52003467143E+02  0.20500973603E+02 -0.17555109483E+03  0.22268749492E+03  0.12508750130E+03 0.  0.
          5    1    3    3  502    0 -0.65525610393E+02  0.46115779399E+02 -0.17599216060E+03  0.19341919170E+03  0.41800000000E+01 0.  1.
         -5    1    3    3    0  502  0.13522143250E+02 -0.25614805795E+02  0.44106576358E+00  0.29268303214E+02  0.41800000000E+01 0.  1.
        -11    1    1    2    0    0 -0.51879009105E+02  0.23809387191E+02 -0.65669030702E+02  0.87009999986E+02  0.00000000000E+00 0.  1.
         11    1    1    2    0    0  0.10388247625E+03 -0.44310360794E+02 -0.46958363707E+03  0.48297388040E+03  0.00000000000E+00 0. -1.
</event>
<event>
 7    1  0.2873461E-009  0.2370277E+03  0.7561462E-02  0.1121789E+00
          2   -1    0    0  501    0  0.00000000000E+00  0.00000000000E+00  0.54265341805E+03  0.54265341805E+03  0.00000000000E+00 0. -1.
         -2   -1    0    0    0  501 -0.00000000000E+00 -0.00000000000E+00 -0.10633144716E+03  0.10633144716E+03  0.00000000000E+00 0.  1.
         25    2    1    2    0    0 -0.15779081750E+03 -0.12155931784E+03  0.24846313749E+03  0.34213287818E+03  0.12508543401E+03 0.  0.
          5    1    3    3  502    0 -0.14271317308E+03 -0.14650871137E+03  0.22770417972E+03  0.30610213678E+03  0.41800000000E+01 0. -1.
         -5    1    3    3    0  502 -0.15077644419E+02  0.24949393527E+02  0.20758957775E+02  0.36030741409E+02  0.41800000000E+01 0. -1.
        -11    1    1    2    0    0  0.59368516381E+02 -0.24238439504E+02  0.70963402193E+02  0.95644796710E+02  0.00000000000E+00 0. -1.
         11    1    1    2    0    0  0.98422301120E+02  0.14579775735E+03  0.11689543121E+03  0.21120719032E+03  0.00000000000E+00 0.  1.
</event>
<event>
 7    1  0.2873461E-009  0.1316796E+03  0.7561462E-02  0.1224985E+00
         -2   -1    0    0    0  501 -0.00000000000E+00  0.00000000000E+00  0.24162140880E+02  0.24162140880E+02  0.00000000000E+00 0.  1.
          2   -1    0    0  501    0  0.00000000000E+00 -0.00000000000E+00 -0.85503639914E+03  0.85503639914E+03  0.00000000000E+00 0. -1.
         25    2    1    2    0    0 -0.31027840653E+02  0.88744833856E+02 -0.48424664888E+03  0.50890097681E+03  0.12508802827E+03 0.  0.
          5    1    3    3  502    0 -0.70735549173E+02  0.59993405005E+02 -0.20092988031E+03  0.22134365987E+03  0.41800000000E+01 0. -1.
         -5    1    3    3    0  502  0.39707708520E+02  0.28751428851E+02 -0.28331676857E+03  0.28755731695E+03  0.41800000000E+01 0. -1.
        -11    1    1    2    0    0  0.56467526569E+02 -0.68674570160E+02 -0.18253868591E+03  0.20303977442E+03  0.00000000000E+00 0.  1.
         11    1    1    2    0    0 -0.25439685917E+02 -0.20070263696E+02 -0.16408892347E+03  0.16725778879E+03  0.00000000000E+00 0. -1.
</event>
<event>
 7    1  0.2873461E-009  0.1061227E+03  0.7561462E-02  0.1267923E+00
          1   -1    0    0  501    0  0.00000000000E+00  0.00000000000E+00  0.74238491229E+02  0.74238491229E+02  0.00000000000E+00 0. -1.
         -1   -1    0    0    0  501 -0.00000000000E+00 -0.00000000000E+00 -0.27640415468E+03  0.27640415468E+03  0.00000000000E+00 0.  1.
         25    2    1    2    0    0  0.74751934331E+02 -0.54476339391E+02 -0.11249559166E+03  0.19200707702E+03  0.12512368378E+03 0.  0.
          5    1    3    3  502    0  0.31846686910E+02 -0.66473789072E+02 -0.31888799144E+01  0.73895990797E+02  0.41800000000E+01 0. -1.
         -5    1    3    3    0  502  0.42905247421E+02  0.11997449681E+02 -0.10930671175E+03  0.11811108622E+03  0.41800000000E+01 0. -1.
        -11    1    1    2    0    0 -0.22441059461E+02  0.25128542898E+02 -0.92645206665E+02  0.98580825397E+02  0.00000000000E+00 0.  1.
         11    1    1    2    0    0 -0.52310874870E+02  0.29347796493E+02  0.29751348765E+01  0.60054743494E+02  0.00000000000E+00 0. -1.
</event>
<event>
 7    1  0.2873461E-009  0.1092970E+03  0.7561462E-02  0.1261877E+00
         -1   -1    0    0    0  501 -0.00000000000E+00  0.00000000000E+00  0.63033110061E+03  0.63033110061E+03  0.00000000000E+00 0.  1.
          1   -1    0    0  501    0  0.00000000000E+00 -0.00000000000E+00 -0.19083098732E+02  0.19083098732E+02  0.00000000000E+00 0. -1.
         25    2    1    2    0    0  0.65894817593E+01  0.18374113402E+02  0.36291835438E+03  0.38436713891E+03  0.12508931296E+03 0.  0.
          5    1    3    3  502    0  0.49568006956E+02  0.51868079265E+02  0.19900942290E+03  0.21158806149E+03  0.41800000000E+01 0. -1.
         -5    1    3    3    0  502 -0.42978525196E+02 -0.33493965864E+02  0.16390893148E+03  0.17277907742E+03  0.41800000000E+01 0. -1.
        -11    1    1    2    0    0  0.28762250415E+02 -0.41017857140E+02  0.14949090437E+03  0.15766186014E+03  0.00000000000E+00 0. -1.
         11    1    1    2    0    0 -0.35351732174E+02  0.22643743738E+02  0.98838743130E+02  0.10738520029E+03  0.00000000000E+00 0.  1.
</event>
<event>
 7    1  0.2873461E-009  0.7545936E+02  0.7561462E-02  0.1342454E+00
          1   -1    0    0  501    0  0.00000000000E+00  0.00000000000E+00  0.97626446274E+02  0.97626446274E+02  0.00000000000E+00 0. -1.
         -1   -1    0    0    0  501 -0.00000000000E+00 -0.00000000000E+00 -0.13731904996E+03  0.13731904996E+03  0.00000000000E+00 0.  1.
         25    2    1    2    0    0  0.58886068408E+01  0.41198775081E+01 -0.63180365156E+02  0.14032339476E+03  0.12508895833E+03 0.  0.
          5    1    3    3  502    0  0.43534709073E+02 -0.26297184950E+02  0.10469700615E+02  0.52095104005E+02  0.41800000000E+01 0. -1.
         -5    1    3    3    0  502 -0.37646102232E+02  0.30417062458E+02 -0.73650065770E+02  0.88228290756E+02  0.41800000000E+01 0. -1.
        -11    1    1    2    0    0 -0.16796993782E+02 -0.23608370288E+02  0.51321702618E+02  0.58935653957E+02  0.00000000000E+00 0. -1.
         11    1    1    2    0    0  0.10908386941E+02  0.19488492780E+02 -0.27833941151E+02  0.35686447519E+02  0.00000000000E+00 0.  1.
</event>
<event>
 7    1  0.2873461E-009  0.5932483E+02  0.7561462E-02  0.1400687E+00
          2   -1    0    0  501    0  0.00000000000E+00  0.00000000000E+00  0.10679609021E+03  0.10679609021E+03  0.00000000000E+00 0. -1.
         -2   -1    0    0    0  501 -0.00000000000E+00 -0.00000000000E+00 -0.97423022968E+02  0.97423022968E+02  0.00000000000E+00 0.  1.
         25    2    1    2    0    0  0.13371767182E+02 -0.42780456919E+01 -0.12893741472E+02  0.12653307750E+03  0.12508902950E+03 0.  0.
          5    1    3    3  502    0  0.29037357170E+02  0.30656119620E+02  0.41851065272E+02  0.59598236937E+02  0.41800000000E+01 0. -1.
         -5    1    3    3    0  502 -0.15665589988E+02 -0.34934165312E+02 -0.54744806744E+02  0.66934840563E+02  0.41800000000E+01 0. -1.
        -11    1    1    2    0    0 -0.88477503821E+01 -0.15265602922E+02 -0.22521688397E+02  0.28610273813E+02  0.00000000000E+00 0.  1.
         11    1    1    2    0    0 -0.45240167999E+01  0.19543648614E+02  0.44788497109E+02  0.49075761863E+02  0.00000000000E+00 0. -1.
</event>
<event>
 7    1  0.2873461E-009  0.9223747E+02  0.7561462E-02  0.1297522E+00
          2   -1    0    0  501    0  0.00000000000E+00  0.00000000000E+00  0.29496392378E+03  0.29496392378E+03  0.00000000000E+00 0. -1.
         -2   -1    0    0    0  501 -0.00000000000E+00 -0.00000000000E+00 -0.58694010663E+02  0.58694010663E+02  0.00000000000E+00 0.  1.
         25    2    1    2    0    0  0.23575012698E+02  0.16669591887E+02  0.22648081602E+03  0.26033699196E+03  0.12509249715E+03 0.  0.
          5    1    3    3  502    0  0.28217439850E+02 -0.42530983466E+02  0.17262607878E+03  0.18006205581E+03  0.41800000000E+01 0. -1.
         -5    1    3    3    0  502 -0.46424271522E+01  0.59200575353E+02  0.53854737238E+02  0.80274936157E+02  0.41800000000E+01 0. -1.
        -11    1    1    2    0    0 -0.45804195970E+02  0.23993947632E+00 -0.22161077978E+02  0.50884136198E+02  0.00000000000E+00 0.  1.
         11    1    1    2    0    0  0.22229183272E+02 -0.16909531363E+02  0.31950175074E+02  0.42436806279E+02  0.00000000000E+00 0. -1.
</event>
<event>
 7    1  0.2873461E-009  0.4071897E+03  0.7561462E-02  0.1041318E+00
          2   -1    0    0  501    0  0.00000000000E+00  0.00000000000E+00  0.37222721279E+03  0.37222721279E+03  0.00000000000E+00 0. -1.
         -2   -1    0    0    0  501 -0.00000000000E+00 -0.00000000000E+00 -0.61924230842E+03  0.61924230842E+03  0.00000000000E+00 0.  1.
         25    2    1    2    0    0  0.22481769300E+03  0.32499455522E+03 -0.38241356075E+03  0.56396217133E+03  0.12509493690E+03 0.  0.
          5    1    3    3  502    0  0.23377135683E+03  0.26464230481E+03 -0.31936281314E+03  0.47612464291E+03  0.41800000000E+01 0.  1.
         -5    1    3    3    0  502 -0.89536638227E+01  0.60352250407E+02 -0.63050747612E+02  0.87837528423E+02  0.41800000000E+01 0.  1.
        -11    1    1    2    0    0 -0.84764955675E+02 -0.17747634487E+03  0.10137822018E+03  0.22127018377E+03  0.00000000000E+00 0. -1.
         11    1    1    2    0    0 -0.14005273733E+03 -0.14751821035E+03  0.34020244927E+02  0.20623716611E+03  0.00000000000E+00 0.  1.
</event>
<event>
 7    1  0.2873461E-009  0.9287675E+02  0.7561462E-02  0.1296031E+00
          2   -1    0    0  501    0  0.00000000000E+00  0.00000000000E+00  0.27885846769E+03  0.27885846769E+03  0.00000000000E+00 0. -1.
         -2   -1    0    0    0  501 -0.00000000000E+00 -0.00000000000E+00 -0.81612331727E+02  0.81612331727E+02  0.00000000000E+00 0.  1.
         25    2    1    2    0    0 -0.69650035350E+02 -0.26707352706E+02  0.20295025789E+02  0.14705422860E+03  0.12509455609E+03 0.  0.
          5    1    3    3  502    0 -0.73346916631E+02 -0.20423406715E+02  0.65838064736E+02  0.10074228948E+03  0.41800000000E+01 0. -1.
         -5    1    3    3    0  502  0.36968812816E+01 -0.62839459916E+01 -0.45543038947E+02  0.46311939119E+02  0.41800000000E+01 0. -1.
        -11    1    1    2    0    0  0.24040808320E+02  0.45742662736E+02  0.33235763574E+02  0.61440765288E+02  0.00000000000E+00 0.  1.
         11    1    1    2    0    0  0.45609227030E+02 -0.19035310029E+02  0.14371534660E+03  0.15197580553E+03  0.00000000000E+00 0. -1.
</event>
<event>
 7    1  0.2873461E-009  0.1019488E+03  0.7561462E-02  0.1276251E+00
         -2   -1    0    0    0  501 -0.00000000000E+00  0.00000000000E+00  0.43376041832E+02  0.43376041832E+02  0.00000000000E+00 0.  1.
          2   -1    0    0  501    0  0.00000000000E+00 -0.00000000000E+00 -0.34305633113E+03  0.34305633113E+03  0.00000000000E+00 0. -1.
         25    2    1    2    0    0 -0.51334830743E+02 -0.24199907624E+02 -0.16604430728E+03  0.21550096439E+03  0.12509617618E+03 0.  0.
          5    1    3    3  502    0 -0.65761461021E+02 -0.39108816511E+02 -0.37653321437E+02  0.85377481221E+02  0.41800000000E+01 0.  1.
         -5    1    3    3    0  502  0.14426630277E+02  0.14908908887E+02 -0.12839098584E+03  0.13012348317E+03  0.41800000000E+01 0.  1.
        -11    1    1    2    0    0 -0.25834177257E+02  0.96629530306E+01 -0.27977888949E+02  0.39287907120E+02  0.00000000000E+00 0. -1.
         11    1    1    2    0    0  0.77169008001E+02  0.14536954594E+02 -0.10565809307E+03  0.13164350146E+03  0.00000000000E+00 0.  1.
</event>
<event>
 7    1  0.3747288E-009  0.1308127E+03  0.7561462E-02  0.1226255E+00
          2   -1    0    0  501    0  0.00000000000E+00  0.00000000000E+00  0.63272132881E+03  0.63272132881E+03  0.00000000000E+00 0. -1.
         -2   -1    0    0    0  501 -0.00000000000E+00 -0.00000000000E+00 -0.40774380728E+02  0.40774380728E+02  0.00000000000E+00 0.  1.
         25    2    1    2    0    0  0.10158132740E+03 -0.58899277027E+02  0.34450913116E+03  0.38486590915E+03  0.12508931075E+03 0.  0.
          5    1    3    3  502    0  0.85851843441E+02 -0.79448111613E+02  0.15858008640E+03  0.19709809147E+03  0.41800000000E+01 0.  1.
         -5    1    3    3    0  502  0.15729483960E+02  0.20548834587E+02  0.18592904477E+03  0.18776781768E+03  0.41800000000E+01 0.  1.
        -11    1    1    2    0    0 -0.56490190932E+02  0.24142136485E+02  0.21391457493E+03  0.22256106981E+03  0.00000000000E+00 0. -1.
         11    1    1    2    0    0 -0.45091136469E+02  0.34757140541E+02  0.33523241989E+02  0.66068730577E+02  0.00000000000E+00 0.  1.
</event>
<event>
 7    1  0.2873461E-009  0.1705971E+03  0.7561462E-02  0.1177227E+00
         -1   -1    0    0    0  501 -0.00000000000E+00  0.00000000000E+00  0.79880288438E+02  0.79880288438E+02  0.00000000000E+00 0.  1.
          1   -1    0    0  501    0  0.00000000000E+00 -0.00000000000E+00 -0.41895962308E+03  0.41895962308E+03  0.00000000000E+00 0. -1.
         25    2    1    2    0    0 -0.11142263922E+03  0.78206034886E+02 -0.10278487406E+03  0.21152548425E+03  0.12508841563E+03 0.  0.
          5    1    3    3  502    0  0.23276085433E+02  0.20108807056E+02 -0.43063916436E+02  0.53085907481E+02  0.41800000000E+01 0.  1.
         -5    1    3    3    0  502 -0.13469872466E+03  0.58097227830E+02 -0.59720957623E+02  0.15843957676E+03  0.41800000000E+01 0.  1.
        -11    1    1    2    0    0  0.99287868670E+02 -0.98432996721E+02 -0.20455497789E+03  0.24776980181E+03  0.00000000000E+00 0.  1.
         11    1    1    2    0    0  0.12134770555E+02  0.20226961834E+02 -0.31739482692E+02  0.39544625463E+02  0.00000000000E+00 0. -1.
</event>
<event>
 7    1  0.2873461E-009  0.1140625E+03  0.7561462E-02  0.1253227E+00
          4   -1    0    0  501    0  0.00000000000E+00  0.00000000000E+00  0.43438224763E+02  0.43438224763E+02  0.00000000000E+00 0. -1.
         -4   -1    0    0    0  501 -0.00000000000E+00 -0.00000000000E+00 -0.42564812915E+03  0.42564812915E+03  0.00000000000E+00 0.  1.
         25    2    1    2    0    0 -0.24237238904E+02  0.77324390666E+02 -0.18974483945E+03  0.24126926284E+03  0.12506497492E+03 0.  0.
          5    1    3    3  502    0 -0.71762866562E+02  0.34896906860E+02 -0.13634804088E+03  0.15803785552E+03  0.41800000000E+01 0.  1.
         -5    1    3    3    0  502  0.47525627658E+02  0.42427483806E+02 -0.53396798570E+02  0.83231407317E+02  0.41800000000E+01 0.  1.
        -11    1    1    2    0    0  0.12170547695E+02 -0.93831726139E+01  0.69015793775E+01  0.16846303969E+02  0.00000000000E+00 0. -1.
         11    1    1    2    0    0  0.12066691209E+02 -0.67941218052E+02 -0.19936664431E+03  0.21097078710E+03  0.00000000000E+00 0.  1.
</event>
<event>
 7    1  0.2873461E-009  0.9398073E+02  0.7561462E-02  0.1293488E+00
          4   -1    0    0  501    0  0.00000000000E+00  0.00000000000E+00  0.16774468076E+03  0.16774468076E+03  0.00000000000E+00 0. -1.
         -4   -1    0    0    0  501 -0.00000000000E+00 -0.00000000000E+00 -0.73083860612E+02  0.73083860612E+02  0.00000000000E+00 0.  1.
         25    2    1    2    0    0  0.93411274554E+01  0.19091926074E+02  0.46659223529E+02  0.13518236544E+03  0.12508169523E+03 0.  0.
          5    1    3    3  502    0 -0.49674928279E+02  0.36748960609E+02  0.38448954885E+02  0.72896358874E+02  0.41800000000E+01 0. -1.
         -5    1    3    3    0  502  0.59016055734E+02 -0.17657034535E+02  0.82102686435E+01  0.62286006568E+02  0.41800000000E+01 0. -1.
        -11    1    1    2    0    0 -0.32679000744E+02 -0.23865793057E+02 -0.11069640889E+02  0.41952712871E+02  0.00000000000E+00 0.  1.
         11    1    1    2    0    0  0.23337873288E+02  0.47738669825E+01  0.59071237511E+02  0.63693463060E+02  0.00000000000E+00 0. -1.
</event>
<event>
 7    1  0.2873461E-009  0.1092072E+03  0.7561462E-02  0.1262045E+00
          3   -1    0    0  501    0  0.00000000000E+00  0.00000000000E+00  0.20376845440E+03  0.20376845440E+03  0.00000000000E+00 0. -1.
         -3   -1    0    0    0  501 -0.00000000000E+00 -0.00000000000E+00 -0.13368936557E+03  0.13368936557E+03  0.00000000000E+00 0.  1.
         25    2    1    2    0    0 -0.46020421588E+02 -0.18584031222E+02  0.15160550841E+03  0.20271783281E+03  0.12508814549E+03 0.  0.
          5    1    3    3  502    0 -0.81427728673E+02  0.71599909025E+01  0.13024663737E+03  0.15382912407E+03  0.41800000000E+01 0.  1.
         -5    1    3    3    0  502  0.35407307085E+02 -0.25744022124E+02  0.21358871034E+02  0.48888708737E+02  0.41800000000E+01 0.  1.
        -11    1    1    2    0    0  0.26062093330E+02  0.49412515144E+02 -0.80519504967E+02  0.98001122655E+02  0.00000000000E+00 0.  1.
         11    1    1    2    0    0  0.19958328258E+02 -0.30828483922E+02 -0.10069146094E+01  0.36738864501E+02  0.00000000000E+00 0. -1.
</event>
<event>
 7    1  0.2873461E-009  0.1767080E+03  0.7561462E-02  0.1171028E+00
          1   -1    0    0  501    0  0.00000000000E+00  0.00000000000E+00  0.38022806447E+03  0.38022806447E+03  0.00000000000E+00 0. -1.
         -1   -1    0    0    0  501 -0.00000000000E+00 -0.00000000000E+00 -0.13468166984E+03  0.13468166984E+03  0.00000000000E+00 0.  1.
         25    2    1    2    0    0  0.12991149621E+02  0.14732305505E+03  0.27027531415E+03  0.33251878960E+03  0.12508855857E+03 0.  0.
          5    1    3    3  502    0  0.46092421498E+02  0.15257163257E+03  0.21359604143E+03  0.26653959500E+03  0.41800000000E+01 0.  1.
         -5    1    3    3    0  502 -0.33101271876E+02 -0.52485775221E+01  0.56679272711E+02  0.65979194606E+02  0.41800000000E+01 0.  1.
        -11    1    1    2    0    0 -0.34591487700E+02 -0.51927363681E+02 -0.51588745861E+02  0.80959377590E+02  0.00000000000E+00 0.  1.
         11    1    1    2    0    0  0.21600338079E+02 -0.95395691370E+02  0.26859826342E+02  0.10143156712E+03  0.00000000000E+00 0. -1.
</event>
<event>
 7    1  0.2873461E-009  0.9385875E+02  0.7561462E-02  0.1293767E+00
         -3   -1    0    0    0  501 -0.00000000000E+00  0.00000000000E+00  0.41366719281E+03  0.41366719281E+03  0.00000000000E+00 0.  1.
          3   -1    0    0  501    0  0.00000000000E+00 -0.00000000000E+00 -0.42998315097E+02  0.42998315097E+02  0.00000000000E+00 0. -1.
         25    2    1    2    0    0  0.29400911437E+02 -0.71500940289E+02  0.18310674279E+03  0.23484697483E+03  0.12509286260E+03 0.  0.
          5    1    3    3  502    0  0.35376106193E+02 -0.71057806902E+02  0.35490647342E+02  0.87050211142E+02  0.41800000000E+01 0.  1.
         -5    1    3    3    0  502 -0.59751947560E+01 -0.44313338744E+00  0.14761609545E+03  0.14779676368E+03  0.41800000000E+01 0.  1.
        -11    1    1    2    0    0 -0.45426369935E+02  0.25240788575E+02  0.37810319766E+02  0.64267198275E+02  0.00000000000E+00 0. -1.
         11    1    1    2    0    0  0.16025458498E+02  0.46260151715E+02  0.14975181515E+03  0.15755133480E+03  0.00000000000E+00 0.  1.
</event>
<event>
 7    1  0.2873461E-009  0.1956036E+03  0.7561462E-02  0.1153502E+00
          2   -1    0    0  501    0  0.00000000000E+00  0.00000000000E+00  0.53266518540E+03  0.53266518540E+03  0.00000000000E+00 0. -1.
         -2   -1    0    0    0  501 -0.00000000000E+00 -0.00000000000E+00 -0.11197306343E+03  0.11197306343E+03  0.00000000000E+00 0.  1.
         25    2    1    2    0    0  0.63931012603E+02 -0.17143176651E+03  0.60134541181E+02  0.22965173401E+03  0.12509089075E+03 0.  0.
          5    1    3    3  502    0  0.62054170457E+02 -0.37400399110E+02 -0.17551502471E+02  0.74666174160E+02  0.41800000000E+01 0. -1.
         -5    1    3    3    0  502  0.18768421463E+01 -0.13403136740E+03  0.77686043652E+02  0.15498555985E+03  0.41800000000E+01 0. -1.
        -11    1    1    2    0    0 -0.50627118532E+02  0.10251754368E+03  0.12595798032E+03  0.17011279993E+03  0.00000000000E+00 0.  1.
         11    1    1    2    0    0 -0.13303894071E+02  0.68914222824E+02  0.23459960047E+03  0.24487371489E+03  0.00000000000E+00 0. -1.
</event>
<event>
 7    1  0.2873461E-009  0.1441604E+03  0.7561462E-02  0.1207838E+00
          1   -1    0    0  501    0  0.00000000000E+00  0.00000000000E+00  0.68167053666E+03  0.68167053666E+03  0.00000000000E+00 0. -1.
         -1   -1    0    0    0  501 -0.00000000000E+00 -0.00000000000E+00 -0.14420152907E+03  0.14420152907E+03  0.00000000000E+00 0.  1.
         25    2    1    2    0    0 -0.55755674368E+02 -0.10848655058E+03  0.62551873148E+03  0.64946055784E+03  0.12508919168E+03 0.  0.
          5    1    3    3  502    0 -0.34238114691E+02 -0.11648182607E+02  0.34487850001E+02  0.50147909760E+02  0.41800000000E+01 0. -1.
         -5    1    3    3    0  502 -0.21517559677E+02 -0.96838367969E+02  0.59103088148E+03  0.59931264808E+03  0.41800000000E+01 0. -1.
        -11    1    1    2    0    0  0.66583015093E+02  0.29370588959E+02 -0.46927292691E+02  0.86591571149E+02  0.00000000000E+00 0. -1.
         11    1    1    2    0    0 -0.10827340725E+02  0.79115961617E+02 -0.41122431190E+02  0.89819936744E+02  0.00000000000E+00 0.  1.
</event>
<event>
 7    1  0.2873461E-009  0.1589312E+03  0.7561462E-02  0.1189909E+00
         -1   -1    0    0    0  501 -0.00000000000E+00  0.00000000000E+00  0.83582431018E+02  0.83582431018E+02  0.00000000000E+00 0.  1.
          1   -1    0    0  501    0  0.00000000000E+00 -0.00000000000E+00 -0.54736710016E+03  0.54736710016E+03  0.00000000000E+00 0. -1.
         25    2    1    2    0    0 -0.25272482649E+02  0.12589034007E+03 -0.43892398541E+03  0.47411893370E+03  0.12508965674E+03 0.  0.
          5    1    3    3  502    0  0.29921067596E+02  0.56366265351E+01 -0.25237516140E+02  0.39767404564E+02  0.41800000000E+01 0. -1.
         -5    1    3    3    0  502 -0.55193550246E+02  0.12025371353E+03 -0.41368646927E+03  0.43435152914E+03  0.41800000000E+01 0. -1.
        -11    1    1    2    0    0 -0.32080737242E+02 -0.37115400759E+02 -0.10498942670E+02  0.50169258244E+02  0.00000000000E+00 0. -1.
         11    1    1    2    0    0  0.57353219892E+02 -0.88774939308E+02 -0.14361741064E+02  0.10666133923E+03  0.00000000000E+00 0.  1.
</event>
<event>
 7    1  0.2873461E-009  0.7961164E+02  0.7561462E-02  0.1330157E+00
         -2   -1    0    0    0  501 -0.00000000000E+00  0.00000000000E+00  0.12194279997E+03  0.12194279997E+03  0.00000000000E+00 0.  1.
          2   -1    0    0  501    0  0.00000000000E+00 -0.00000000000E+00 -0.98357506157E+02  0.98357506157E+02  0.00000000000E+00 0. -1.
         25    2    1    2    0    0  0.11855147913E+02  0.22829349981E+01  0.50637111472E+00  0.12567942534E+03  0.12509718309E+03 0.  0.
          5    1    3    3  502    0  0.64157420712E+02 -0.21366029893E+02  0.51108318868E+01  0.67943173818E+02  0.41800000000E+01 0. -1.
         -5    1    3    3    0  502 -0.52302272799E+02  0.23648964891E+02 -0.46044607720E+01  0.57736251519E+02  0.41800000000E+01 0. -1.
        -11    1    1    2    0    0  0.32016568132E+00  0.13769269310E+02 -0.32610150167E+02  0.35399395155E+02  0.00000000000E+00 0. -1.
         11    1    1    2    0    0 -0.12175313594E+02 -0.16052204308E+02  0.55689072861E+02  0.59221485631E+02  0.00000000000E+00 0.  1.
</event>
<event>
 7    1  0.2873461E-009  0.1376578E+03  0.7561462E-02  0.1216516E+00
          2   -1    0    0  501    0  0.00000000000E+00  0.00000000000E+00  0.10794753120E+04  0.10794753120E+04  0.00000000000E+00 0. -1.
         -2   -1    0    0    0  501 -0.00000000000E+00 -0.00000000000E+00 -0.20842135589E+02  0.20842135589E+02  0.00000000000E+00 0.  1.
         25    2    1    2    0    0 -0.64583582792E+02  0.80062604533E+02  0.58860490442E+03  0.61047882246E+03  0.12509036475E+03 0.  0.
          5    1    3    3  502    0 -0.31559949812E+02 -0.16488187388E+02  0.45870234524E+02  0.58218910766E+02  0.41800000000E+01 0.  1.
         -5    1    3    3    0  502 -0.33023632979E+02  0.96550791922E+02  0.54273466990E+03  0.55225991169E+03  0.41800000000E+01 0.  1.
        -11    1    1    2    0    0  0.37679503363E+02  0.13466864764E+02  0.11768308005E+03  0.12429967317E+03  0.00000000000E+00 0.  1.
         11    1    1    2    0    0  0.26904079428E+02 -0.93529469297E+02  0.35234519198E+03  0.36553895200E+03  0.00000000000E+00 0. -1.
</event>
<event>
 7    1  0.2873461E-009  0.2934511E+03  0.7561462E-02  0.1088561E+00
         -4   -1    0    0    0  501 -0.00000000000E+00  0.00000000000E+00  0.94767961624E+03  0.94767961624E+03  0.00000000000E+00 0.  1.
          4   -1    0    0  501    0  0.00000000000E+00 -0.00000000000E+00 -0.94306467238E+02  0.94306467238E+02  0.00000000000E+00 0. -1.
         25    2    1    2    0    0 -0.21393864351E+03  0.17772690785E+03  0.43777985240E+03  0.53353097360E+03  0.12508998227E+03 0.  0.
          5    1    3    3  502    0 -0.23034030820E+03  0.16300085824E+03  0.39876247327E+03  0.48852320299E+03  0.41800000000E+01 0. -1.
         -5    1    3    3    0  502  0.16401664689E+02  0.14726049609E+02  0.39017379124E+02  0.45007770610E+02  0.41800000000E+01 0. -1.
        -11    1    1    2    0    0  0.16788675718E+03 -0.11131010780E+03  0.35221514100E+03  0.40574796227E+03  0.00000000000E+00 0. -1.
         11    1    1    2    0    0  0.46051886326E+02 -0.66416800045E+02  0.63378155609E+02  0.10270714761E+03  0.00000000000E+00 0.  1.
</event>
<event>
 7    1  0.2873461E-009  0.1003597E+03  0.7561462E-02  0.1279541E+00
          2   -1    0    0  501    0  0.00000000000E+00  0.00000000000E+00  0.31419559199E+03  0.31419559199E+03  0.00000000000E+00 0. -1.
         -2   -1    0    0    0  501 -0.00000000000E+00 -0.00000000000E+00 -0.47352513026E+02  0.47352513026E+02  0.00000000000E+00 0.  1.
         25    2    1    2    0    0  0.23313034568E+02  0.19539028900E+02  0.22126865732E+03  0.25597523282E+03  0.12505290830E+03 0.  0.
          5    1    3    3  502    0 -0.79097071486E+01 -0.46764957879E+02  0.47118150439E+02  0.66985948179E+02  0.41800000000E+01 0. -1.
         -5    1    3    3    0  502  0.31222741717E+02  0.66303986779E+02  0.17415050688E+03  0.18898928464E+03  0.41800000000E+01 0. -1.
        -11    1    1    2    0    0  0.89810433016E+01  0.23922836246E+02 -0.10497022026E+02  0.27625146231E+02  0.00000000000E+00 0.  1.
         11    1    1    2    0    0 -0.32294077870E+02 -0.43461865146E+02  0.56071443669E+02  0.77947725962E+02  0.00000000000E+00 0. -1.
</event>
<event>
 7    1  0.2873461E-009  0.1389310E+03  0.7561462E-02  0.1214775E+00
         -2   -1    0    0    0  501 -0.00000000000E+00  0.00000000000E+00  0.81972731862E+02  0.81972731862E+02  0.00000000000E+00 0.  1.
          2   -1    0    0  501    0  0.00000000000E+00 -0.00000000000E+00 -0.30053850228E+03  0.30053850228E+03  0.00000000000E+00 0. -1.
         25    2    1    2    0    0  0.77161619886E+02 -0.80002818824E+02 -0.13222976881E+03  0.21327563287E+03  0.12508963671E+03 0.  0.
          5    1    3    3  502    0 -0.11955195375E+02 -0.65004270058E+02 -0.94177267666E+02  0.11513171573E+03  0.41800000000E+01 0.  1.
         -5    1    3    3    0  502  0.89116815261E+02 -0.14998548766E+02 -0.38052501142E+02  0.98143917135E+02  0.41800000000E+01 0.  1.
        -11    1    1    2    0    0 -0.29934049170E+02  0.20229172524E+01  0.14478620485E+02  0.33313209768E+02  0.00000000000E+00 0.  1.
         11    1    1    2    0    0 -0.47227570716E+02  0.77979901571E+02 -0.10081462209E+03  0.13592239151E+03  0.00000000000E+00 0. -1.
</event>
<event>
 7    1  0.2873461E-009  0.7629925E+02  0.7561462E-02  0.1339894E+00
         -1   -1    0    0    0  501 -0.00000000000E+00  0.00000000000E+00  0.19002970438E+02  0.19002970438E+02  0.00000000000E+00 0.  1.
          1   -1    0    0  501    0  0.00000000000E+00 -0.00000000000E+00 -0.76778537035E+03  0.76778537035E+03  0.00000000000E+00 0. -1.
         25    2    1    2    0    0  0.79028075512E-01 -0.13224275787E+02 -0.25411827035E+03  0.28354756765E+03  0.12509292577E+03 0.  0.
          5    1    3    3  502    0  0.24437178319E+02  0.96275822060E+01 -0.24789431279E+03  0.24931692429E+03  0.41800000000E+01 0.  1.
         -5    1    3    3    0  502 -0.24358150244E+02 -0.22851857993E+02 -0.62239575617E+01  0.34230643359E+02  0.41800000000E+01 0.  1.
        -11    1    1    2    0    0 -0.26206582363E+02  0.44466917160E+02 -0.29154760476E+03  0.29608123466E+03  0.00000000000E+00 0. -1.
         11    1    1    2    0    0  0.26127554287E+02 -0.31242641374E+02 -0.20311652481E+03  0.20715953848E+03  0.00000000000E+00 0.  1.
</event>
<event>
 7    1  0.2873461E-009  0.1251978E+03  0.7561462E-02  0.1234761E+00
         -3   -1    0    0    0  501 -0.00000000000E+00  0.00000000000E+00  0.28298341194E+03  0.28298341194E+03  0.00000000000E+00 0.  1.
          3   -1    0    0  501    0  0.00000000000E+00 -0.00000000000E+00 -0.65483563575E+02  0.65483563575E+02  0.00000000000E+00 0. -1.
         25    2    1    2    0    0 -0.45509586179E+02  0.60515452835E+02  0.15686265651E+03  0.21444456610E+03  0.12508931393E+03 0.  0.
          5    1    3    3  502    0  0.37700416720E+02  0.49177175875E+02  0.68857564039E+02  0.92728380625E+02  0.41800000000E+01 0.  1.
         -5    1    3    3    0  502 -0.83210002899E+02  0.11338276960E+02  0.88005092468E+02  0.12171618548E+03  0.41800000000E+01 0.  1.
        -11    1    1    2    0    0  0.43129595381E+01 -0.62798599503E+02  0.28419064648E+01  0.63010651099E+02  0.00000000000E+00 0.  1.
         11    1    1    2    0    0  0.41196626641E+02  0.22831466681E+01  0.57795285397E+02  0.71011758318E+02  0.00000000000E+00 0. -1.
</event>
<event>
 7    1  0.2873461E-009  0.1043760E+03  0.7561462E-02  0.1271354E+00
          1   -1    0    0  501    0  0.00000000000E+00  0.00000000000E+00  0.56742692813E+03  0.56742692813E+03  0.00000000000E+00 0. -1.
         -1   -1    0    0    0  501 -0.00000000000E+00 -0.00000000000E+00 -0.21024186913E+02  0.21024186913E+02  0.00000000000E+00 0.  1.
         25    2    1    2    0    0  0.35746876328E+01  0.12155633505E+02  0.31251866106E+03  0.33686408704E+03  0.12509581050E+03 0.  0.
          5    1    3    3  502    0 -0.20829910900E+02 -0.52312257537E+02  0.13083607774E+03  0.14249915479E+03  0.41800000000E+01 0.  1.
         -5    1    3    3    0  502  0.24404598533E+02  0.64467891042E+02  0.18168258332E+03  0.19436493225E+03  0.41800000000E+01 0.  1.
        -11    1    1    2    0    0 -0.41591570145E+02 -0.16950591769E+02  0.69152329549E+02  0.82457419014E+02  0.00000000000E+00 0.  1.
         11    1    1    2    0    0  0.38016882513E+02  0.47949582640E+01  0.16473175061E+03  0.16912960899E+03  0.00000000000E+00 0. -1.
</event>
<event>
 7    1  0.2873461E-009  0.1198274E+03  0.7561462E-02  0.1243382E+00
          1   -1    0    0  501    0  0.00000000000E+00  0.00000000000E+00  0.36736858759E+02  0.36736858759E+02  0.00000000000E+00 0. -1.
         -1   -1    0    0    0  501 -0.00000000000E+00 -0.00000000000E+00 -0.50406757666E+03  0.50406757666E+03  0.00000000000E+00 0.  1.
         25    2    1    2    0    0 -0.30097365942E+01 -0.73594076409E+02 -0.19379270106E+03  0.24213082981E+03  0.12508629486E+03 0.  0.
          5    1    3    3  502    0 -0.46898406857E+02 -0.22327073659E+02 -0.15642382736E+03  0.16487524056E+03  0.41800000000E+01 0. -1.
         -5    1    3    3    0  502  0.43888670263E+02 -0.51267002751E+02 -0.37368873699E+02  0.77255589248E+02  0.41800000000E+01 0. -1.
        -11    1    1    2    0    0 -0.27495594947E+02  0.83456026875E+02 -0.20052944684E+03  0.21893600712E+03  0.00000000000E+00 0.  1.
         11    1    1    2    0    0  0.30505331541E+02 -0.98619504655E+01 -0.73008570002E+02  0.79737598491E+02  0.00000000000E+00 0. -1.
</event>
<event>
 7    1  0.2873461E-009  0.1118085E+03  0.7561462E-02  0.1257257E+00
          2   -1    0    0  501    0  0.00000000000E+00  0.00000000000E+00  0.71725140485E+03  0.71725140485E+03  0.00000000000E+00 0. -1.
         -2   -1    0    0    0  501 -0.00000000000E+00 -0.00000000000E+00 -0.24502657369E+02  0.24502657369E+02  0.00000000000E+00 0.  1.
         25    2    1    2    0    0  0.50792206099E+02 -0.54238747604E+02  0.39083566229E+03  0.41703939262E+03  0.12509056773E+03 0.  0.
          5    1    3    3  502    0  0.53373866073E+02 -0.37782326277E+01  0.53028631509E+02  0.75449007820E+02  0.41800000000E+01 0. -1.
         -5    1    3    3    0  502 -0.25816599746E+01 -0.50460514977E+02  0.33780703078E+03  0.34159038480E+03  0.41800000000E+01 0. -1.
        -11    1    1    2    0    0 -0.33797333171E+02 -0.22530999258E+02  0.11370169235E+03  0.12073930802E+03  0.00000000000E+00 0.  1.
         11    1    1    2    0    0 -0.16994872927E+02  0.76769746862E+02  0.18821139283E+03  0.20397536158E+03  0.00000000000E+00 0. -1.
</event>
<event>
 7    1  0.2873461E-009  0.1007126E+03  0.7561462E-02  0.1278804E+00
          2   -1    0    0  501    0  0.00000000000E+00  0.00000000000E+00  0.69106267270E+03  0.69106267270E+03  0.00000000000E+00 0. -1.
         -2   -1    0    0    0  501 -0.00000000000E+00 -0.00000000000E+00 -0.24948958155E+02  0.24948958155E+02  0.00000000000E+00 0.  1.
         25    2    1    2    0    0 -0.37548675933E+02  0.55541322758E+02  0.31559940897E+03  0.34604232458E+03  0.12509021489E+03 0.  0.
          5    1    3    3  502    0 -0.22072560234E+02 -0.49061645427E+01  0.26390660362E+03  0.26490646689E+03  0.41800000000E+01 0.  1.
         -5    1    3    3    0  502 -0.15476115700E+02  0.60447487301E+02  0.51692805343E+02  0.81135857686E+02  0.41800000000E+01 0.  1.
        -11    1    1    2    0    0  0.53655195045E+02  0.43914131276E+01  0.12561981431E+03  0.13666931701E+03  0.00000000000E+00 0. -1.
         11    1    1    2    0    0 -0.16106519111E+02 -0.59932735886E+02  0.22489449127E+03  0.23329998927E+03  0.00000000000E+00 0.  1.
</event>
<event>
 7    1  0.2873461E-009  0.1508285E+03  0.7561462E-02  0.1199459E+00
         -1   -1    0    0    0  501 -0.00000000000E+00  0.00000000000E+00  0.79643953575E+02  0.79643953575E+02  0.00000000000E+00 0.  1.
          1   -1    0    0  501    0  0.00000000000E+00 -0.00000000000E+00 -0.34665394100E+03  0.34665394100E+03  0.00000000000E+00 0. -1.
         25    2    1    2    0    0 -0.80342970590E+02  0.96861936676E+02 -0.14027840482E+03  0.22619230663E+03  0.12509077112E+03 0.  0.
          5    1    3    3  502    0 -0.64185066280E+02 -0.98883084204E+01 -0.77621977752E+02  0.10129237487E+03  0.41800000000E+01 0. -1.
         -5    1    3    3    0  502 -0.16157904310E+02  0.10675024510E+03 -0.62656427071E+02  0.12489993176E+03  0.41800000000E+01 0. -1.
        -11    1    1    2    0    0  0.24522670340E+02 -0.49843540900E+02 -0.19938384014E+01  0.55585207759E+02  0.00000000000E+00 0.  1.
         11    1    1    2    0    0  0.55820300249E+02 -0.47018395776E+02 -0.12473774420E+03  0.14452038019E+03  0.00000000000E+00 0. -1.
</event>
<event>
 7    1  0.2873461E-009  0.1097306E+03  0.7561462E-02  0.1261070E+00
         -1   -1    0    0    0  501 -0.00000000000E+00  0.00000000000E+00  0.84924075030E+02  0.84924075030E+02  0.00000000000E+00 0.  1.
          1   -1    0    0  501    0  0.00000000000E+00 -0.00000000000E+00 -0.19405024959E+03  0.19405024959E+03  0.00000000000E+00 0. -1.
         25    2    1    2    0    0  0.30844644398E+02 -0.28689946285E+02 -0.26204799726E+01  0.13201319433E+03  0.12508441732E+03 0.  0.
          5    1    3    3  502    0  0.10716709716E+02  0.48538221963E+02  0.10635435266E+02  0.51003840460E+02  0.41800000000E+01 0. -1.
         -5    1    3    3    0  502  0.20127934682E+02 -0.77228168247E+02 -0.13255915238E+02  0.81009353869E+02  0.41800000000E+01 0. -1.
        -11    1    1    2    0    0  0.10860828212E+02  0.43934331617E+02 -0.19499548043E+02  0.49278955528E+02  0.00000000000E+00 0.  1.
         11    1    1    2    0    0 -0.41705472610E+02 -0.15244385332E+02 -0.87006146539E+02  0.97682174758E+02  0.00000000000E+00 0. -1.
</event>
<event>
 7    1  0.2873461E-009  0.5530979E+03  0.7561462E-02  0.1000779E+00
         -2   -1    0    0    0  501 -0.00000000000E+00  0.00000000000E+00  0.35678801873E+03  0.35678801873E+03  0.00000000000E+00 0. -1.
          2   -1    0    0  501    0  0.00000000000E+00 -0.00000000000E+00 -0.10560765305E+04  0.10560765305E+04  0.00000000000E+00 0.  1.
         25    2    1    2    0    0 -0.13903642965E+03 -0.52989618292E+03 -0.59218370231E+02  0.56504005024E+03  0.12506937901E+03 0.  0.
          5    1    3    3  502    0 -0.10563422695E+03 -0.30355711047E+03  0.22085448768E+02  0.32219675459E+03  0.41800000000E+01 0. -1.
         -5    1    3    3    0  502 -0.33402202708E+02 -0.22633907244E+03 -0.81303818998E+02  0.24284329565E+03  0.41800000000E+01 0. -1.
        -11    1    1    2    0    0 -0.63671787318E+01  0.13439046168E+03 -0.16001483448E+03  0.20906000194E+03  0.00000000000E+00 0. -1.
         11    1    1    2    0    0  0.14540360839E+03  0.39550572124E+03 -0.48005530711E+03  0.63876449709E+03  0.00000000000E+00 0.  1.
</event>
<event>
 7    1  0.2873461E-009  0.3513983E+03  0.7561462E-02  0.1062043E+00
          2   -1    0    0  501    0  0.00000000000E+00  0.00000000000E+00  0.13387597890E+04  0.13387597890E+04  0.00000000000E+00 0. -1.
         -2   -1    0    0    0  501 -0.00000000000E+00 -0.00000000000E+00 -0.11614577763E+03  0.11614577763E+03  0.00000000000E+00 0.  1.
         25    2    1    2    0    0  0.27667788220E+03 -0.20179724027E+03  0.91804961524E+03  0.98779334399E+03  0.12509123747E+03 0.  0.
          5    1    3    3  502    0  0.16115749809E+03 -0.50772206107E+02  0.34838717515E+03  0.38722170950E+03  0.41800000000E+01 0.  1.
         -5    1    3    3    0  502  0.11552038412E+03 -0.15102503416E+03  0.56966244010E+03  0.60057163448E+03  0.41800000000E+01 0.  1.
        -11    1    1    2    0    0 -0.10571177930E+03  0.60542334157E+02  0.16493444052E+03  0.20504566364E+03  0.00000000000E+00 0. -1.
         11    1    1    2    0    0 -0.17096610290E+03  0.14125490611E+03  0.13962995559E+03  0.26206655899E+03  0.00000000000E+00 0.  1.
</event>
<event>
 7    1  0.2873461E-009  0.1101869E+03  0.7561462E-02  0.1260224E+00
          1   -1    0    0  501    0  0.00000000000E+00  0.00000000000E+00  0.51292542559E+03  0.51292542559E+03  0.00000000000E+00 0. -1.
         -1   -1    0    0    0  501 -0.00000000000E+00 -0.00000000000E+00 -0.45526917394E+02  0.45526917394E+02  0.00000000000E+00 0.  1.
         25    2    1    2    0    0 -0.51408778813E+02  0.24336359206E+02  0.41802838832E+03  0.44003520220E+03  0.12509246508E+03 0.  0.
          5    1    3    3  502    0 -0.35624909149E+02  0.63766971667E+02  0.36350760205E+03  0.37079726263E+03  0.41800000000E+01 0.  1.
         -5    1    3    3    0  502 -0.15783869664E+02 -0.39430612461E+02  0.54520786264E+02  0.69237939567E+02  0.41800000000E+01 0.  1.
        -11    1    1    2    0    0 -0.23452963773E+02 -0.17690985870E+02  0.17176266561E+01  0.29427244725E+02  0.00000000000E+00 0.  1.
         11    1    1    2    0    0  0.74861742586E+02 -0.66453733363E+01  0.47652493225E+02  0.88989896058E+02  0.00000000000E+00 0. -1.
</event>
<event>
 7    1  0.2873461E-009  0.1496867E+03  0.7561462E-02  0.1200859E+00
          2   -1    0    0  501    0  0.00000000000E+00  0.00000000000E+00  0.42243925483E+03  0.42243925483E+03  0.00000000000E+00 0. -1.
         -2   -1    0    0    0  501 -0.00000000000E+00 -0.00000000000E+00 -0.91379915411E+02  0.91379915411E+02  0.00000000000E+00 0.  1.
         25    2    1    2    0    0 -0.61862390881E+02 -0.93316082430E+02  0.33084651047E+03  0.37099787482E+03  0.12508062593E+03 0.  0.
          5    1    3    3  502    0 -0.30178771714E+02 -0.11772885476E+03  0.28588895973E+03  0.31067798635E+03  0.41800000000E+01 0. -1.
         -5    1    3    3    0  502 -0.31683619167E+02  0.24412772330E+02  0.44957550739E+02  0.60319888468E+02  0.41800000000E+01 0. -1.
        -11    1    1    2    0    0  0.78192623369E+02  0.54138401989E+02 -0.17722473341E+02  0.96742643031E+02  0.00000000000E+00 0.  1.
         11    1    1    2    0    0 -0.16330232487E+02  0.39177680441E+02  0.17935302282E+02  0.46078652386E+02  0.00000000000E+00 0. -1.
</event>
<event>
 7    1  0.2873461E-009  0.7439521E+02  0.7561462E-02  0.1345754E+00
         -2   -1    0    0    0  501 -0.00000000000E+00  0.00000000000E+00  0.86356884150E+02  0.86356884150E+02  0.00000000000E+00 0.  1.
          2   -1    0    0  501    0  0.00000000000E+00 -0.00000000000E+00 -0.18747105647E+03  0.18747105647E+03  0.00000000000E+00 0. -1.
         25    2    1    2    0    0 -0.16139426437E+02  0.27854379233E+02  0.36394842982E+01  0.12922075691E+03  0.12509360752E+03 0.  0.
          5    1    3    3  502    0  0.15599195576E+02 -0.22450986715E+01  0.57467160533E+02  0.59735435969E+02  0.41800000000E+01 0.  1.
         -5    1    3    3    0  502 -0.31738622012E+02  0.30099477904E+02 -0.53827676235E+02  0.69485320941E+02  0.41800000000E+01 0.  1.
        -11    1    1    2    0    0 -0.33919496196E+02 -0.94687061591E+01 -0.76590594248E+02  0.84298919007E+02  0.00000000000E+00 0.  1.
         11    1    1    2    0    0  0.50058922632E+02 -0.18385673074E+02 -0.28163062370E+02  0.60308264703E+02  0.00000000000E+00 0. -1.
</event>
<event>
 7    1  0.2873461E-009  0.1084009E+03  0.7561462E-02  0.1263560E+00
         -2   -1    0    0    0  501 -0.00000000000E+00  0.00000000000E+00  0.54553398579E+02  0.54553398579E+02  0.00000000000E+00 0.  1.
          2   -1    0    0  501    0  0.00000000000E+00 -0.00000000000E+00 -0.35047906915E+03  0.35047906915E+03  0.00000000000E+00 0. -1.
         25    2    1    2    0    0  0.32809489252E+02 -0.52185108760E+02 -0.73920259112E+02  0.15783084137E+03  0.12508645658E+03 0.  0.
          5    1    3    3  502    0  0.54762050086E+02 -0.37191958020E+01  0.12323165437E+02  0.56409638835E+02  0.41800000000E+01 0. -1.
         -5    1    3    3    0  502 -0.21952560834E+02 -0.48465912958E+02 -0.86243424549E+02  0.10142120254E+03  0.41800000000E+01 0. -1.
        -11    1    1    2    0    0 -0.54446480295E+02  0.28585675911E+01 -0.10183056268E+03  0.11550780979E+03  0.00000000000E+00 0. -1.
         11    1    1    2    0    0  0.21636991043E+02  0.49326541168E+02 -0.12017484878E+03  0.13169381657E+03  0.00000000000E+00 0.  1.
</event>
<event>
 7    1  0.2873461E-009  0.8849862E+02  0.7561462E-02  0.1306529E+00
         -2   -1    0    0    0  501 -0.00000000000E+00  0.00000000000E+00  0.55736386808E+02  0.55736386808E+02  0.00000000000E+00 0.  1.
          2   -1    0    0  501    0  0.00000000000E+00 -0.00000000000E+00 -0.29729544568E+03  0.29729544568E+03  0.00000000000E+00 0. -1.
         25    2    1    2    0    0 -0.49286724189E+02  0.48709165489E+02 -0.12690256812E+03  0.19119035777E+03  0.12509087546E+03 0.  0.
          5    1    3    3  502    0 -0.64580185637E+02  0.59440454508E+02 -0.14187748562E+03  0.16688457489E+03  0.41800000000E+01 0.  1.
         -5    1    3    3    0  502  0.15293461447E+02 -0.10731289019E+02  0.14974917503E+02  0.24305782877E+02  0.41800000000E+01 0.  1.
        -11    1    1    2    0    0  0.10856507463E+02 -0.55508478040E+01  0.15330163594E+02  0.19587995851E+02  0.00000000000E+00 0.  1.
         11    1    1    2    0    0  0.38430216726E+02 -0.43158317685E+02 -0.12998665435E+03  0.14225347887E+03  0.00000000000E+00 0. -1.
</event>
<event>
 7    1  0.2873461E-009  0.1576438E+03  0.7561462E-02  0.1191383E+00
         -2   -1    0    0    0  501 -0.00000000000E+00  0.00000000000E+00  0.52261997535E+02  0.52261997535E+02  0.00000000000E+00 0.  1.
          2   -1    0    0  501    0  0.00000000000E+00 -0.00000000000E+00 -0.51502192726E+03  0.51502192726E+03  0.00000000000E+00 0. -1.
         25    2    1    2    0    0 -0.77921620701E+02 -0.83667334483E+02 -0.31459043690E+03  0.35733241175E+03  0.12508919884E+03 0.  0.
          5    1    3    3  502    0  0.48183838927E+01  0.28394451565E+02 -0.40805556974E+02  0.50120131514E+02  0.41800000000E+01 0.  1.
         -5    1    3    3    0  502 -0.82740004594E+02 -0.11206178605E+03 -0.27378487993E+03  0.30721228024E+03  0.41800000000E+01 0.  1.
        -11    1    1    2    0    0  0.26542269642E+02 -0.18577050840E+02 -0.47783546359E+02  0.57730981269E+02  0.00000000000E+00 0.  1.
         11    1    1    2    0    0  0.51379351060E+02  0.10224438532E+03 -0.10038594646E+03  0.15222053177E+03  0.00000000000E+00 0. -1.
</event>
<event>
 7    1  0.2873461E-009  0.9121200E+02  0.7561462E-02  0.1299943E+00
         -2   -1    0    0    0  501 -0.00000000000E+00  0.00000000000E+00  0.22167806012E+02  0.22167806012E+02  0.00000000000E+00 0. -1.
          2   -1    0    0  501    0  0.00000000000E+00 -0.00000000000E+00 -0.77249610197E+03  0.77249610197E+03  0.00000000000E+00 0.  1.
         25    2    1    2    0    0  0.14408026966E+02  0.28774180089E+02 -0.60915750600E+03  0.62270015610E+03  0.12508825927E+03 0.  0.
          5    1    3    3  502    0 -0.28256914515E+02  0.65671234746E+02 -0.30167787486E+03  0.31006156949E+03  0.41800000000E+01 0.  1.
         -5    1    3    3    0  502  0.42664941481E+02 -0.36897054658E+02 -0.30747963113E+03  0.31263858661E+03  0.41800000000E+01 0.  1.
        -11    1    1    2    0    0 -0.26161974391E+02 -0.35262802158E+01 -0.14167092649E+03  0.14410945482E+03  0.00000000000E+00 0.  1.
         11    1    1    2    0    0  0.11753947425E+02 -0.25247899873E+02  0.50013653626E+00  0.27854297058E+02  0.00000000000E+00 0. -1.
</event>
<event>
 7    1  0.2873461E-009  0.1683704E+03  0.7561462E-02  0.1179558E+00
          1   -1    0    0  501    0  0.00000000000E+00  0.00000000000E+00  0.57826541898E+03  0.57826541898E+03  0.00000000000E+00 0. -1.
         -1   -1    0    0    0  501 -0.00000000000E+00 -0.00000000000E+00 -0.77477419165E+02  0.77477419165E+02  0.00000000000E+00 0.  1.
         25    2    1    2    0    0 -0.63743526971E+02  0.13456782106E+03  0.10023408131E+03  0.21878133099E+03  0.12508662615E+03 0.  0.
          5    1    3    3  502    0 -0.92274762602E+01 -0.14464945987E+02 -0.14552468937E+02  0.22882913554E+02  0.41800000000E+01 0. -1.
         -5    1    3    3    0  502 -0.54516050710E+02  0.14903276704E+03  0.11478655025E+03  0.19589841744E+03  0.41800000000E+01 0. -1.
        -11    1    1    2    0    0  0.15417400898E+02 -0.99348216195E+02  0.15902474796E+03  0.18813993402E+03  0.00000000000E+00 0.  1.
         11    1    1    2    0    0  0.48326126072E+02 -0.35219604861E+02  0.24152917055E+03  0.24882157312E+03  0.00000000000E+00 0. -1.
</event>
<event>
 7    1  0.2873461E-009  0.9912276E+02  0.7561462E-02  0.1282152E+00
          1   -1    0    0  501    0  0.00000000000E+00  0.00000000000E+00  0.66529523344E+03  0.66529523344E+03  0.00000000000E+00 0. -1.
         -1   -1    0    0    0  501 -0.00000000000E+00 -0.00000000000E+00 -0.18371279070E+02  0.18371279070E+02  0.00000000000E+00 0.  1.
         25    2    1    2    0    0 -0.14408369868E+02 -0.30027577477E+01  0.40583635573E+03  0.42493108356E+03  0.12508661189E+03 0.  0.
          5    1    3    3  502    0 -0.28938448731E+02  0.52406403752E+02  0.13006036510E+03  0.14323769036E+03  0.41800000000E+01 0.  1.
         -5    1    3    3    0  502  0.14530078863E+02 -0.55409161500E+02  0.27577599062E+03  0.28169339320E+03  0.41800000000E+01 0.  1.
        -11    1    1    2    0    0 -0.23984880319E+01 -0.37172797236E+02  0.17938780498E+03  0.18321450318E+03  0.00000000000E+00 0. -1.
         11    1    1    2    0    0  0.16806857900E+02  0.40175554984E+02  0.61699793667E+02  0.75520925771E+02  0.00000000000E+00 0.  1.
</event>
<event>
 7    1  0.2873461E-009  0.7408458E+02  0.7561462E-02  0.1346729E+00
         -3   -1    0    0    0  501 -0.00000000000E+00  0.00000000000E+00  0.40720867680E+03  0.40720867680E+03  0.00000000000E+00 0.  1.
          3   -1    0    0  501    0  0.00000000000E+00 -0.00000000000E+00 -0.50590605734E+02  0.50590605734E+02  0.00000000000E+00 0. -1.
         25    2    1    2    0    0  0.63217745281E+00 -0.11064864764E+02  0.45346571343E+02  0.13352818585E+03  0.12510249400E+03 0.  0.
          5    1    3    3  502    0 -0.27715133361E+02 -0.21723822286E+02  0.79885331222E+02  0.87402469166E+02  0.41800000000E+01 0. -1.
         -5    1    3    3    0  502  0.28347310814E+02  0.10658957522E+02 -0.34538759879E+02  0.46125716686E+02  0.41800000000E+01 0. -1.
        -11    1    1    2    0    0  0.36206114736E+02 -0.12617200731E+02  0.21651772354E+03  0.21988633678E+03  0.00000000000E+00 0.  1.
         11    1    1    2    0    0 -0.36838292189E+02  0.23682065496E+02  0.94753776188E+02  0.10438475990E+03  0.00000000000E+00 0. -1.
</event>
<event>
 7    1  0.2873461E-009  0.1206820E+03  0.7561462E-02  0.1241976E+00
         -2   -1    0    0    0  501 -0.00000000000E+00  0.00000000000E+00  0.13789471050E+03  0.13789471050E+03  0.00000000000E+00 0.  1.
          2   -1    0    0  501    0  0.00000000000E+00 -0.00000000000E+00 -0.18018655652E+03  0.18018655652E+03  0.00000000000E+00 0. -1.
         25    2    1    2    0    0  0.22454705192E+02  0.10781800447E+03 -0.54404045216E+02  0.17531798869E+03  0.12509061175E+03 0.  0.
          5    1    3    3  502    0  0.17007599273E+02  0.29115748393E+02 -0.84268437634E+02  0.90860482162E+02  0.41800000000E+01 0. -1.
         -5    1    3    3    0  502  0.54471059193E+01  0.78702256075E+02  0.29864392418E+02  0.84457506526E+02  0.41800000000E+01 0. -1.
        -11    1    1    2    0    0 -0.38168578638E+02 -0.28786484689E+02  0.34706867818E+02  0.59076803990E+02  0.00000000000E+00 0.  1.
         11    1    1    2    0    0  0.15713873445E+02 -0.79031519779E+02 -0.22594668619E+02  0.83686474339E+02  0.00000000000E+00 0. -1.
</event>
<event>
 7    1  0.2873461E-009  0.1159399E+03  0.7561462E-02  0.1249949E+00
          1   -1    0    0  501    0  0.00000000000E+00  0.00000000000E+00  0.16887913659E+03  0.16887913659E+03  0.00000000000E+00 0. -1.
         -1   -1    0    0    0  501 -0.00000000000E+00 -0.00000000000E+00 -0.85790955766E+02  0.85790955766E+02  0.00000000000E+00 0.  1.
         25    2    1    2    0    0  0.25257349860E+02 -0.41841079859E+02  0.62257912332E+02  0.14802821294E+03  0.12509074503E+03 0.  0.
          5    1    3    3  502    0 -0.41100698733E+02  0.11101605418E+02  0.43459516380E+02  0.60981267970E+02  0.41800000000E+01 0. -1.
         -5    1    3    3    0  502  0.66358048593E+02 -0.52942685278E+02  0.18798395952E+02  0.87046944966E+02  0.41800000000E+01 0. -1.
        -11    1    1    2    0    0 -0.57421691188E+02  0.43290081829E+02  0.19068070313E+02  0.74396727812E+02  0.00000000000E+00 0.  1.
         11    1    1    2    0    0  0.32164341328E+02 -0.14490019694E+01  0.17621981777E+01  0.32245151608E+02  0.00000000000E+00 0. -1.
</event>
<event>
 7    1  0.2873461E-009  0.1555977E+03  0.7561462E-02  0.1193758E+00
          1   -1    0    0  501    0  0.00000000000E+00  0.00000000000E+00  0.27865110708E+03  0.27865110708E+03  0.00000000000E+00 0. -1.
         -1   -1    0    0    0  501 -0.00000000000E+00 -0.00000000000E+00 -0.11282185559E+03  0.11282185559E+03  0.00000000000E+00 0.  1.
         25    2    1    2    0    0 -0.13763140150E+03 -0.25159180080E+02  0.80172209490E+02  0.20408382895E+03  0.12508892454E+03 0.  0.
          5    1    3    3  502    0 -0.81434465493E+02 -0.61209799141E+02  0.90578342462E+02  0.13638225766E+03  0.41800000000E+01 0. -1.
         -5    1    3    3    0  502 -0.56196936011E+02  0.36050619061E+02 -0.10406132973E+02  0.67701571290E+02  0.41800000000E+01 0. -1.
        -11    1    1    2    0    0  0.80528537598E+02  0.27754790234E+02  0.92955951873E+00  0.85182379806E+02  0.00000000000E+00 0.  1.
         11    1    1    2    0    0  0.57102863906E+02 -0.25956101539E+01  0.84727482485E+02  0.10220675392E+03  0.00000000000E+00 0. -1.
</event>
<event>
 7    1  0.2873461E-009  0.3171232E+03  0.7561462E-02  0.1076981E+00
          2   -1    0    0  501    0  0.00000000000E+00  0.00000000000E+00  0.34821035800E+03  0.34821035800E+03  0.00000000000E+00 0. -1.
         -2   -1    0    0    0  501 -0.00000000000E+00 -0.00000000000E+00 -0.31052577411E+03  0.31052577411E+03  0.00000000000E+00 0.  1.
         25    2    1    2    0    0  0.12273561013E+03 -0.27360955787E+03 -0.64127465002E+02  0.33118841578E+03  0.12508882774E+03 0.  0.
          5    1    3    3  502    0  0.14328332688E+03 -0.26342411538E+03 -0.68116442478E+02  0.30753812522E+03  0.41800000000E+01 0.  1.
         -5    1    3    3    0  502 -0.20547716748E+02 -0.10185442484E+02  0.39889774750E+01  0.23650290558E+02  0.41800000000E+01 0.  1.
        -11    1    1    2    0    0 -0.12043844080E+03  0.17522885655E+03  0.76110378995E+02  0.22583923481E+03  0.00000000000E+00 0.  1.
         11    1    1    2    0    0 -0.22971693379E+01  0.98380701311E+02  0.25701669894E+02  0.10170848152E+03  0.00000000000E+00 0. -1.
</event>
<event>
 7    1  0.2873461E-009  0.1145410E+03  0.7561462E-02  0.1252384E+00
          1   -1    0    0  501    0  0.00000000000E+00  0.00000000000E+00  0.27426403102E+03  0.27426403102E+03  0.00000000000E+00 0. -1.
         -1   -1    0    0    0  501 -0.00000000000E+00 -0.00000000000E+00 -0.68432810452E+02  0.68432810452E+02  0.00000000000E+00 0.  1.
         25    2    1    2    0    0 -0.69481660924E+02 -0.44096241110E+02  0.12181878758E+03  0.19302784033E+03  0.12509096869E+03 0.  0.
          5    1    3    3  502    0 -0.60807801583E+02  0.12383793996E+00 -0.22190695365E+01  0.60991808785E+02  0.41800000000E+01 0. -1.
         -5    1    3    3    0  502 -0.86738593404E+01 -0.44220079050E+02  0.12403785712E+03  0.13203603154E+03  0.41800000000E+01 0. -1.
        -11    1    1    2    0    0 -0.13200157879E+02  0.37701545376E+02  0.18684096481E+02  0.44099276106E+02  0.00000000000E+00 0.  1.
         11    1    1    2    0    0  0.82681818803E+02  0.63946957340E+01  0.65328336503E+02  0.10556972504E+03  0.00000000000E+00 0. -1.
</event>
<event>
 7    1  0.2873461E-009  0.1100951E+03  0.7561462E-02  0.1260394E+00
         -1   -1    0    0    0  501 -0.00000000000E+00  0.00000000000E+00  0.49492727670E+02  0.49492727670E+02  0.00000000000E+00 0.  1.
          1   -1    0    0  501    0  0.00000000000E+00 -0.00000000000E+00 -0.34004049534E+03  0.34004049534E+03  0.00000000000E+00 0. -1.
         25    2    1    2    0    0  0.46059072520E+02  0.39476009428E+02 -0.10589813116E+03  0.17476124137E+03  0.12508910352E+03 0.  0.
          5    1    3    3  502    0  0.67398712205E+02 -0.24160278556E+02 -0.57056080983E+02  0.91647008920E+02  0.41800000000E+01 0.  1.
         -5    1    3    3    0  502 -0.21339639685E+02  0.63636287985E+02 -0.48842050182E+02  0.83114232453E+02  0.41800000000E+01 0.  1.
        -11    1    1    2    0    0 -0.35437754911E+02  0.47345174052E+01 -0.14380298217E+02  0.38536257018E+02  0.00000000000E+00 0. -1.
         11    1    1    2    0    0 -0.10621317609E+02 -0.44210526833E+02 -0.17026933829E+03  0.17623572462E+03  0.00000000000E+00 0.  1.
</event>
<event>
 7    1  0.2873461E-009  0.1200073E+03  0.7561462E-02  0.1243085E+00
         -1   -1    0    0    0  501 -0.00000000000E+00  0.00000000000E+00  0.28878415113E+02  0.28878415113E+02  0.00000000000E+00 0.  1.
          1   -1    0    0  501    0  0.00000000000E+00 -0.00000000000E+00 -0.53008921178E+03  0.53008921178E+03  0.00000000000E+00 0. -1.
         25    2    1    2    0    0 -0.34568231274E+02 -0.16166239975E+02 -0.24315269169E+03  0.27609396712E+03  0.12509331427E+03 0.  0.
          5    1    3    3  502    0 -0.43594750119E+02 -0.62974993807E+02 -0.18816497087E+03  0.20319911600E+03  0.41800000000E+01 0. -1.
         -5    1    3    3    0  502  0.90265188448E+01  0.46808753832E+02 -0.54987720825E+02  0.72894851117E+02  0.41800000000E+01 0. -1.
        -11    1    1    2    0    0  0.34931342491E+02 -0.43498764407E+02 -0.13654130711E+03  0.14749871098E+03  0.00000000000E+00 0.  1.
         11    1    1    2    0    0 -0.36311121638E+00  0.59665004382E+02 -0.12151679786E+03  0.13537494879E+03  0.00000000000E+00 0. -1.
</event>
<event>
 7    1  0.2873461E-009  0.1426077E+03  0.7561462E-02  0.1209863E+00
         -2   -1    0    0    0  501 -0.00000000000E+00  0.00000000000E+00  0.40177859871E+02  0.40177859871E+02  0.00000000000E+00 0.  1.
          2   -1    0    0  501    0  0.00000000000E+00 -0.00000000000E+00 -0.59626796562E+03  0.59626796562E+03  0.00000000000E+00 0. -1.
         25    2    1    2    0    0  0.93931506122E+02  0.32847349781E+02 -0.38786971425E+03  0.41951379332E+03  0.12508729483E+03 0.  0.
          5    1    3    3  502    0  0.16151951584E+02  0.63694249553E+02 -0.10023309627E+03  0.11992493049E+03  0.41800000000E+01 0. -1.
         -5    1    3    3    0  502  0.77779554538E+02 -0.30846899772E+02 -0.28763661798E+03  0.29958886283E+03  0.41800000000E+01 0. -1.
        -11    1    1    2    0    0 -0.18775544600E+02 -0.54285821851E+02 -0.56351895749E+02  0.80467432440E+02  0.00000000000E+00 0.  1.
         11    1    1    2    0    0 -0.75155961522E+02  0.21438472070E+02 -0.11186849576E+03  0.13646459973E+03  0.00000000000E+00 0. -1.
</event>
<event>
 7    1  0.2873461E-009  0.1295639E+03  0.7561462E-02  0.1228104E+00
         -2   -1    0    0    0  501 -0.00000000000E+00  0.00000000000E+00  0.41528724092E+02  0.41528724092E+02  0.00000000000E+00 0.  1.
          2   -1    0    0  501    0  0.00000000000E+00 -0.00000000000E+00 -0.51235121868E+03  0.51235121868E+03  0.00000000000E+00 0. -1.
         25    2    1    2    0    0 -0.81861146614E+02 -0.43648248733E+02 -0.31850793716E+03  0.35453989947E+03  0.12507924424E+03 0.  0.
          5    1    3    3  502    0  0.31138809337E+02  0.59143571794E+01 -0.74707380245E+02  0.81260507818E+02  0.41800000000E+01 0. -1.
         -5    1    3    3    0  502 -0.11299995595E+03 -0.49562605912E+02 -0.24380055692E+03  0.27327939165E+03  0.41800000000E+01 0. -1.
        -11    1    1    2    0    0  0.67062517182E+02  0.53609608348E+02 -0.58614239858E+02  0.10395672384E+03  0.00000000000E+00 0.  1.
         11    1    1    2    0    0  0.14798629432E+02 -0.99613596157E+01 -0.93700317567E+02  0.95383319457E+02  0.00000000000E+00 0. -1.
</event>
<event>
 7    1  0.2873461E-009  0.1409455E+03  0.7561462E-02  0.1212062E+00
          1   -1    0    0  501    0  0.00000000000E+00  0.00000000000E+00  0.13897591727E+03  0.13897591727E+03  0.00000000000E+00 0. -1.
         -1   -1    0    0    0  501 -0.00000000000E+00 -0.00000000000E+00 -0.38681229234E+03  0.38681229234E+03  0.00000000000E+00 0.  1.
         25    2    1    2    0    0 -0.10398071115E+03  0.50351956941E+02 -0.31746099890E+03  0.36024446043E+03  0.12508907860E+03 0.  0.
          5    1    3    3  502    0 -0.25177107527E+02 -0.24305555472E+02 -0.18785399800E+03  0.19113148284E+03  0.41800000000E+01 0.  1.
         -5    1    3    3    0  502 -0.78803603626E+02  0.74657512412E+02 -0.12960700090E+03  0.16911297758E+03  0.41800000000E+01 0.  1.
        -11    1    1    2    0    0  0.13027386656E-01 -0.32529691979E+02  0.47810591351E+02  0.57827620349E+02  0.00000000000E+00 0. -1.
         11    1    1    2    0    0  0.10396768377E+03 -0.17822264961E+02  0.21814032485E+02  0.10771612883E+03  0.00000000000E+00 0.  1.
</event>
<event>
 7    1  0.2873461E-009  0.1008268E+03  0.7561462E-02  0.1278567E+00
         -1   -1    0    0    0  501 -0.00000000000E+00  0.00000000000E+00  0.19071400688E+03  0.19071400688E+03  0.00000000000E+00 0.  1.
          1   -1    0    0  501    0  0.00000000000E+00 -0.00000000000E+00 -0.91990620897E+02  0.91990620897E+02  0.00000000000E+00 0. -1.
         25    2    1    2    0    0  0.10489697924E+02  0.71565524268E+02  0.76859523472E+02  0.16366707435E+03  0.12509143397E+03 0.  0.
          5    1    3    3  502    0 -0.82949903020E+01  0.85561270369E+02  0.30514578080E+01  0.86118068058E+02  0.41800000000E+01 0. -1.
         -5    1    3    3    0  502  0.18784688226E+02 -0.13995746101E+02  0.73808065664E+02  0.77549006297E+02  0.41800000000E+01 0. -1.
        -11    1    1    2    0    0 -0.10481041253E+02  0.73991180247E+01  0.36534479891E+02  0.38721665695E+02  0.00000000000E+00 0.  1.
         11    1    1    2    0    0 -0.86566705178E-02 -0.78964642292E+02 -0.14670617379E+02  0.80315887728E+02  0.00000000000E+00 0. -1.
</event>
<event>
 7    1  0.2873461E-009  0.1202073E+03  0.7561462E-02  0.1242755E+00
         -3   -1    0    0    0  501 -0.00000000000E+00  0.00000000000E+00  0.14144972949E+03  0.14144972949E+03  0.00000000000E+00 0.  1.
          3   -1    0    0  501    0  0.00000000000E+00 -0.00000000000E+00 -0.13755023542E+03  0.13755023542E+03  0.00000000000E+00 0. -1.
         25    2    1    2    0    0  0.91236833615E+01  0.83005307874E+02  0.24112388517E+02  0.15232214413E+03  0.12508998993E+03 0.  0.
          5    1    3    3  502    0 -0.45367247655E+02  0.63157962606E+02  0.45707224525E+02  0.90298051884E+02  0.41800000000E+01 0.  1.
         -5    1    3    3    0  502  0.54490931017E+02  0.19847345268E+02 -0.21594836008E+02  0.62024092250E+02  0.41800000000E+01 0.  1.
        -11    1    1    2    0    0 -0.21121670625E+02 -0.60887453298E+00 -0.36176933887E+02  0.41895897695E+02  0.00000000000E+00 0. -1.
         11    1    1    2    0    0  0.11997987264E+02 -0.82396433341E+02  0.15964039444E+02  0.84781923080E+02  0.00000000000E+00 0.  1.
</event>
<event>
 7    1  0.2873461E-009  0.1928150E+03  0.7561462E-02  0.1155947E+00
          2   -1    0    0  501    0  0.00000000000E+00  0.00000000000E+00  0.87248944410E+03  0.87248944410E+03  0.00000000000E+00 0. -1.
         -2   -1    0    0    0  501 -0.00000000000E+00 -0.00000000000E+00 -0.55110382659E+02  0.55110382659E+02  0.00000000000E+00 0.  1.
         25    2    1    2    0    0  0.52488630380E+02 -0.17236124092E+03  0.30478132947E+03  0.37551588299E+03  0.12512819781E+03 0.  0.
          5    1    3    3  502    0  0.12748765246E+02 -0.16407363017E+03  0.28729644323E+03  0.33111841662E+03  0.41800000000E+01 0. -1.
         -5    1    3    3    0  502  0.39739865134E+02 -0.82876107476E+01  0.17484886248E+02  0.44397466368E+02  0.41800000000E+01 0. -1.
        -11    1    1    2    0    0 -0.26094516867E+02  0.90632227831E+02  0.39714057210E+03  0.40818593623E+03  0.00000000000E+00 0. -1.
         11    1    1    2    0    0 -0.26394113513E+02  0.81729013091E+02  0.11545715987E+03  0.14389800754E+03  0.00000000000E+00 0.  1.
</event>
<event>
 7    1  0.2873461E-009  0.1759617E+03  0.7561462E-02  0.1171770E+00
         -2   -1    0    0    0  501 -0.00000000000E+00  0.00000000000E+00  0.78028792824E+02  0.78028792824E+02  0.00000000000E+00 0. -1.
          2   -1    0    0  501    0  0.00000000000E+00 -0.00000000000E+00 -0.40764381720E+03  0.40764381720E+03  0.00000000000E+00 0.  1.
         25    2    1    2    0    0  0.51437812517E+02  0.12771720301E+03 -0.13475613207E+03  0.22970694277E+03  0.12509409228E+03 0.  0.
          5    1    3    3  502    0  0.41762231422E+02  0.15297353905E+03 -0.11644198584E+03  0.19677702124E+03  0.41800000000E+01 0. -1.
         -5    1    3    3    0  502  0.96755810954E+01 -0.25256336038E+02 -0.18314146230E+02  0.32929921526E+02  0.41800000000E+01 0. -1.
        -11    1    1    2    0    0  0.27176672469E+02 -0.29198023363E+02 -0.44243426498E+02  0.59569932710E+02  0.00000000000E+00 0.  1.
         11    1    1    2    0    0 -0.78614484986E+02 -0.98519179647E+02 -0.15061546580E+03  0.19639573454E+03  0.00000000000E+00 0. -1.
</event>
<event>
 7    1  0.2873461E-009  0.1070173E+03  0.7561462E-02  0.1266195E+00
         -1   -1    0    0    0  501 -0.00000000000E+00  0.00000000000E+00  0.21069862205E+02  0.21069862205E+02  0.00000000000E+00 0.  1.
          1   -1    0    0  501    0  0.00000000000E+00 -0.00000000000E+00 -0.68152199893E+03  0.68152199893E+03  0.00000000000E+00 0. -1.
         25    2    1    2    0    0  0.72501619334E+01  0.25642024105E+01 -0.50666708456E+03  0.52193752487E+03  0.12509238712E+03 0.  0.
          5    1    3    3  502    0  0.26441705576E+02 -0.56523986391E+02 -0.23017202494E+03  0.23851783643E+03  0.41800000000E+01 0. -1.
         -5    1    3    3    0  502 -0.19191543643E+02  0.59088188802E+02 -0.27649505962E+03  0.28341968844E+03  0.41800000000E+01 0. -1.
        -11    1    1    2    0    0  0.16264684326E+02  0.38561327760E+02 -0.10313247726E+03  0.11130060117E+03  0.00000000000E+00 0. -1.
         11    1    1    2    0    0 -0.23514846259E+02 -0.41125530170E+02 -0.50652574905E+02  0.69353735090E+02  0.00000000000E+00 0.  1.
</event>
<event>
 7    1  0.2873461E-009  0.1264455E+03  0.7561462E-02  0.1232827E+00
          2   -1    0    0  501    0  0.00000000000E+00  0.00000000000E+00  0.35286445070E+03  0.35286445070E+03  0.00000000000E+00 0.  1.
         -2   -1    0    0    0  501 -0.00000000000E+00 -0.00000000000E+00 -0.52637365511E+02  0.52637365511E+02  0.00000000000E+00 0. -1.
         25    2    1    2    0    0  0.56531860402E+02  0.49859051889E+02  0.11449801797E+03  0.18559110023E+03  0.12510988797E+03 0.  0.
          5    1    3    3  502    0  0.23170846316E+02 -0.37629603544E+02  0.67380520162E+02  0.80687558391E+02  0.41800000000E+01 0.  1.
         -5    1    3    3    0  502  0.33361014086E+02  0.87488655432E+02  0.47117497812E+02  0.10490354184E+03  0.41800000000E+01 0.  1.
        -11    1    1    2    0    0 -0.60416810407E+02  0.42136904856E+01  0.12227502374E+03  0.13645192413E+03  0.00000000000E+00 0.  1.
         11    1    1    2    0    0  0.38849500046E+01 -0.54072742374E+02  0.63454043473E+02  0.83458791853E+02  0.00000000000E+00 0. -1.
</event>
<event>
 7    1  0.2873461E-009  0.1234941E+03  0.7561462E-02  0.1237442E+00
          1   -1    0    0  501    0  0.00000000000E+00  0.00000000000E+00  0.70505496745E+03  0.70505496745E+03  0.00000000000E+00 0. -1.
         -1   -1    0    0    0  501 -0.00000000000E+00 -0.00000000000E+00 -0.22421809057E+02  0.22421809057E+02  0.00000000000E+00 0.  1.
         25    2    1    2    0    0 -0.16716868657E+02 -0.70695513463E+02  0.35717267239E+03  0.38535240862E+03  0.12508737590E+03 0.  0.
          5    1    3    3  502    0 -0.70753772855E+02 -0.45428872032E+02  0.22677297533E+03  0.24189529456E+03  0.41800000000E+01 0.  1.
         -5    1    3    3    0  502  0.54036904197E+02 -0.25266641431E+02  0.13039969706E+03  0.14345711407E+03  0.41800000000E+01 0.  1.
        -11    1    1    2    0    0  0.45198665121E+02  0.34040511324E+02  0.14141308481E+03  0.15231328338E+03  0.00000000000E+00 0.  1.
         11    1    1    2    0    0 -0.28481796464E+02  0.36655002139E+02  0.18404740120E+03  0.18981108450E+03  0.00000000000E+00 0. -1.
</event>
<event>
 7    1  0.2873461E-009  0.1102898E+03  0.7561462E-02  0.1260034E+00
         -2   -1    0    0    0  501 -0.00000000000E+00  0.00000000000E+00  0.15180199903E+03  0.15180199903E+03  0.00000000000E+00 0.  1.
          2   -1    0    0  501    0  0.00000000000E+00 -0.00000000000E+00 -0.11524132607E+03  0.11524132607E+03  0.00000000000E+00 0. -1.
         25    2    1    2    0    0 -0.90560002954E+01  0.54729488084E+02 -0.30589856892E+02  0.14021645102E+03  0.12509031052E+03 0.  0.
          5    1    3    3  502    0  0.57081240151E+02  0.14077920493E+02 -0.98934101089E+01  0.59764603121E+02  0.41800000000E+01 0.  1.
         -5    1    3    3    0  502 -0.66137240447E+02  0.40651567591E+02 -0.20696446783E+02  0.80451847903E+02  0.41800000000E+01 0.  1.
        -11    1    1    2    0    0  0.57720941600E+01  0.13971034095E+02  0.54928300770E+02  0.56970387836E+02  0.00000000000E+00 0.  1.
         11    1    1    2    0    0  0.32839061354E+01 -0.68700522179E+02  0.12222229083E+02  0.69856486248E+02  0.00000000000E+00 0. -1.
</event>
<event>
 7    1  0.2873461E-009  0.9162949E+02  0.7561462E-02  0.1298953E+00
          3   -1    0    0  501    0  0.00000000000E+00  0.00000000000E+00  0.59393928205E+02  0.59393928205E+02  0.00000000000E+00 0. -1.
         -3   -1    0    0    0  501 -0.00000000000E+00 -0.00000000000E+00 -0.32448678521E+03  0.32448678521E+03  0.00000000000E+00 0.  1.
         25    2    1    2    0    0 -0.12518902538E+02  0.21737182737E+02 -0.25809241213E+03  0.28790416072E+03  0.12509150461E+03 0.  0.
          5    1    3    3  502    0 -0.36541987037E+02 -0.29845225315E+02 -0.20349410577E+03  0.20893390766E+03  0.41800000000E+01 0.  1.
         -5    1    3    3    0  502  0.24023084499E+02  0.51582408052E+02 -0.54598306362E+02  0.78970253051E+02  0.41800000000E+01 0.  1.
        -11    1    1    2    0    0  0.27568465160E+02  0.20268467856E+02  0.23868067182E+02  0.41719488150E+02  0.00000000000E+00 0. -1.
         11    1    1    2    0    0 -0.15049562622E+02 -0.42005650593E+02 -0.30868512062E+02  0.54257064552E+02  0.00000000000E+00 0.  1.
</event>
<event>
 7    1  0.2873461E-009  0.1545606E+03  0.7561462E-02  0.1194978E+00
         -1   -1    0    0    0  501 -0.00000000000E+00  0.00000000000E+00  0.85643900864E+03  0.85643900864E+03  0.00000000000E+00 0.  1.
          1   -1    0    0  501    0  0.00000000000E+00 -0.00000000000E+00 -0.28589599346E+02  0.28589599346E+02  0.00000000000E+00 0. -1.
         25    2    1    2    0    0 -0.16641364733E+02  0.11138356067E+03  0.44066300315E+03  0.47171412292E+03  0.12508836399E+03 0.  0.
          5    1    3    3  502    0  0.30366685240E+02  0.11685293296E+03  0.31663925150E+03  0.33890209723E+03  0.41800000000E+01 0.  1.
         -5    1    3    3    0  502 -0.47008049974E+02 -0.54693722806E+01  0.12402375165E+03  0.13281202569E+03  0.41800000000E+01 0.  1.
        -11    1    1    2    0    0 -0.33513536274E+02 -0.28817643884E+02  0.16925202806E+03  0.17492816444E+03  0.00000000000E+00 0.  1.
         11    1    1    2    0    0  0.50154901008E+02 -0.82565916790E+02  0.21793437809E+03  0.23838632063E+03  0.00000000000E+00 0. -1.
</event>
<event>
 7    1  0.2873461E-009  0.1797998E+03  0.7561462E-02  0.1167997E+00
         -4   -1    0    0    0  501 -0.00000000000E+00  0.00000000000E+00  0.78487796736E+02  0.78487796736E+02  0.00000000000E+00 0.  1.
          4   -1    0    0  501    0  0.00000000000E+00 -0.00000000000E+00 -0.45243116740E+03  0.45243116740E+03  0.00000000000E+00 0. -1.
         25    2    1    2    0    0 -0.11719834210E+03  0.97471963755E+02 -0.22301283512E+03  0.29768843219E+03  0.12508973948E+03 0.  0.
          5    1    3    3  502    0 -0.13142615410E+03  0.47543078391E+02 -0.19043584882E+03  0.23625508079E+03  0.41800000000E+01 0.  1.
         -5    1    3    3    0  502  0.14227812000E+02  0.49928885364E+02 -0.32576986301E+02  0.61433351402E+02  0.41800000000E+01 0.  1.
        -11    1    1    2    0    0  0.33278520662E+02  0.66749067560E+01 -0.34229601147E+01  0.34113501339E+02  0.00000000000E+00 0.  1.
         11    1    1    2    0    0  0.83919821437E+02 -0.10414687051E+03 -0.14750757543E+03  0.19911703060E+03  0.00000000000E+00 0. -1.
</event>
<event>
 7    1  0.2873461E-009  0.1078861E+03  0.7561462E-02  0.1264535E+00
         -2   -1    0    0    0  501 -0.00000000000E+00  0.00000000000E+00  0.14147725009E+03  0.14147725009E+03  0.00000000000E+00 0.  1.
          2   -1    0    0  501    0  0.00000000000E+00 -0.00000000000E+00 -0.23929879926E+03  0.23929879926E+03  0.00000000000E+00 0. -1.
         25    2    1    2    0    0  0.99263796648E+02 -0.41067782908E+02 -0.15754095534E+03  0.22804423900E+03  0.12508060686E+03 0.  0.
          5    1    3    3  502    0  0.35692259942E+02 -0.11081086766E+02  0.15919789490E+02  0.40836748170E+02  0.41800000000E+01 0. -1.
         -5    1    3    3    0  502  0.63571536705E+02 -0.29986696143E+02 -0.17346074483E+03  0.18720749083E+03  0.41800000000E+01 0. -1.
        -11    1    1    2    0    0 -0.26475802894E+02  0.15053697296E+02 -0.24006975232E+02  0.38780366179E+02  0.00000000000E+00 0. -1.
         11    1    1    2    0    0 -0.72787993754E+02  0.26014085612E+02  0.83726381402E+02  0.11395144417E+03  0.00000000000E+00 0.  1.
</event>
<event>
 7    1  0.2873461E-009  0.9745184E+02  0.7561462E-02  0.1285747E+00
          1   -1    0    0  501    0  0.00000000000E+00  0.00000000000E+00  0.23570944373E+02  0.23570944373E+02  0.00000000000E+00 0.  1.
         -1   -1    0    0    0  501 -0.00000000000E+00 -0.00000000000E+00 -0.52549145282E+03  0.52549145282E+03  0.00000000000E+00 0. -1.
         25    2    1    2    0    0  0.17683326245E+02 -0.12527484081E+02 -0.31339404191E+03  0.33813042371E+03  0.12508685004E+03 0.  0.
          5    1    3    3  502    0 -0.26268112869E+02  0.38045656771E+02 -0.20840726871E+03  0.21351474845E+03  0.41800000000E+01 0. -1.
         -5    1    3    3    0  502  0.43951439114E+02 -0.50573140852E+02 -0.10498677319E+03  0.12461567526E+03  0.41800000000E+01 0. -1.
        -11    1    1    2    0    0  0.11651085546E+02 -0.28571187154E+02 -0.24771064803E+02  0.39568499861E+02  0.00000000000E+00 0.  1.
         11    1    1    2    0    0 -0.29334411791E+02  0.41098671235E+02 -0.16375540174E+03  0.17136347362E+03  0.00000000000E+00 0. -1.
</event>
<event>
 7    1  0.2873461E-009  0.1236810E+03  0.7561462E-02  0.1237145E+00
          2   -1    0    0  501    0  0.00000000000E+00  0.00000000000E+00  0.16264730352E+03  0.16264730352E+03  0.00000000000E+00 0. -1.
         -2   -1    0    0    0  501 -0.00000000000E+00 -0.00000000000E+00 -0.11094997355E+03  0.11094997355E+03  0.00000000000E+00 0.  1.
         25    2    1    2    0    0 -0.65325130486E+02 -0.38059776495E+02  0.50436465118E+01  0.14624709299E+03  0.12508738777E+03 0.  0.
          5    1    3    3  502    0  0.15482244303E+02  0.23940168565E+02  0.29688224753E+02  0.41372631637E+02  0.41800000000E+01 0.  1.
         -5    1    3    3    0  502 -0.80807374788E+02 -0.61999945060E+02 -0.24644578241E+02  0.10487446135E+03  0.41800000000E+01 0.  1.
        -11    1    1    2    0    0  0.11768041978E+02 -0.28701637762E+02  0.27076715630E+01  0.31138437782E+02  0.00000000000E+00 0. -1.
         11    1    1    2    0    0  0.53557088507E+02  0.66761414256E+02  0.43946011900E+02  0.96211746293E+02  0.00000000000E+00 0.  1.
</event>
<event>
 7    1  0.2873461E-009  0.2155471E+03  0.7561462E-02  0.1137247E+00
         -1   -1    0    0    0  501 -0.00000000000E+00  0.00000000000E+00  0.10619217089E+03  0.10619217089E+03  0.00000000000E+00 0.  1.
          1   -1    0    0  501    0  0.00000000000E+00 -0.00000000000E+00 -0.47896878277E+03  0.47896878277E+03  0.00000000000E+00 0. -1.
         25    2    1    2    0    0 -0.19696204853E+03 -0.73663726782E+01 -0.17278387984E+03  0.29041611946E+03  0.12505575279E+03 0.  0.
          5    1    3    3  502    0 -0.39902285646E+02 -0.37273787966E+02  0.28342563766E+00  0.54763860339E+02  0.41800000000E+01 0. -1.
         -5    1    3    3    0  502 -0.15705976288E+03  0.29907415288E+02 -0.17306730547E+03  0.23565225912E+03  0.41800000000E+01 0. -1.
        -11    1    1    2    0    0  0.15757148136E+03 -0.31908353958E+02 -0.14429005302E+03  0.21602438333E+03  0.00000000000E+00 0.  1.
         11    1    1    2    0    0  0.39390567165E+02  0.39274726637E+02 -0.55702679021E+02  0.78720450863E+02  0.00000000000E+00 0. -1.
</event>
<event>
 7    1  0.2873461E-009  0.1721088E+03  0.7561462E-02  0.1175666E+00
         -1   -1    0    0    0  501 -0.00000000000E+00  0.00000000000E+00  0.38375562192E+02  0.38375562192E+02  0.00000000000E+00 0.  1.
          1   -1    0    0  501    0  0.00000000000E+00 -0.00000000000E+00 -0.85357040870E+03  0.85357040870E+03  0.00000000000E+00 0. -1.
         25    2    1    2    0    0  0.13063749925E+03  0.52608065919E+02 -0.50959912098E+03  0.54330042772E+03  0.12510126239E+03 0.  0.
          5    1    3    3  502    0  0.12263195138E+03  0.84134914244E+02 -0.34902607843E+03  0.37941264491E+03  0.41800000000E+01 0. -1.
         -5    1    3    3    0  502  0.80055478724E+01 -0.31526848325E+02 -0.16057304254E+03  0.16388778281E+03  0.41800000000E+01 0. -1.
        -11    1    1    2    0    0 -0.11292230588E+03 -0.63383739349E+01 -0.24864872962E+03  0.27316261254E+03  0.00000000000E+00 0. -1.
         11    1    1    2    0    0 -0.17715193373E+02 -0.46269691984E+02 -0.56946995907E+02  0.75482930623E+02  0.00000000000E+00 0.  1.
</event>
<event>
 7    1  0.2873461E-009  0.1439522E+03  0.7561462E-02  0.1208108E+00
          2   -1    0    0  501    0  0.00000000000E+00  0.00000000000E+00  0.10174853032E+04  0.10174853032E+04  0.00000000000E+00 0. -1.
         -2   -1    0    0    0  501 -0.00000000000E+00 -0.00000000000E+00 -0.31724070509E+02  0.31724070509E+02  0.00000000000E+00 0.  1.
         25    2    1    2    0    0  0.12798698436E+03 -0.37483319825E+02  0.66913741161E+03  0.69367004669E+03  0.12509032983E+03 0.  0.
          5    1    3    3  502    0  0.29607556718E+02 -0.29715013574E+02  0.44598160868E+02  0.61368214894E+02  0.41800000000E+01 0.  1.
         -5    1    3    3    0  502  0.98379427644E+02 -0.77683062511E+01  0.62453925075E+03  0.63230183179E+03  0.41800000000E+01 0.  1.
        -11    1    1    2    0    0 -0.95374420469E+02 -0.24636133923E+01  0.26871960115E+03  0.28515359635E+03  0.00000000000E+00 0. -1.
         11    1    1    2    0    0 -0.32612563893E+02  0.39946933217E+02  0.47904219974E+02  0.70385730717E+02  0.00000000000E+00 0.  1.
</event>
<event>
 7    1  0.2873461E-009  0.1443889E+03  0.7561462E-02  0.1207542E+00
         -1   -1    0    0    0  501 -0.00000000000E+00  0.00000000000E+00  0.18615901649E+03  0.18615901649E+03  0.00000000000E+00 0.  1.
          1   -1    0    0  501    0  0.00000000000E+00 -0.00000000000E+00 -0.13153516152E+03  0.13153516152E+03  0.00000000000E+00 0. -1.
         25    2    1    2    0    0 -0.11078180674E+03 -0.80114048805E+01  0.32839641338E+01  0.16732323598E+03  0.12509791991E+03 0.  0.
          5    1    3    3  502    0  0.24017342838E+02 -0.19838493773E+02  0.55816972475E+01  0.31922191910E+02  0.41800000000E+01 0. -1.
         -5    1    3    3    0  502 -0.13479914958E+03  0.11827088893E+02 -0.22977331137E+01  0.13540104407E+03  0.41800000000E+01 0. -1.
        -11    1    1    2    0    0  0.86794642985E+02  0.27513541830E+02  0.69474826507E+02  0.11452971908E+03  0.00000000000E+00 0.  1.
         11    1    1    2    0    0  0.23987163755E+02 -0.19502136949E+02 -0.18134935665E+02  0.35841222945E+02  0.00000000000E+00 0. -1.
</event>
<event>
 7    1  0.2873461E-009  0.1503262E+03  0.7561462E-02  0.1200073E+00
          3   -1    0    0  501    0  0.00000000000E+00  0.00000000000E+00  0.43663996211E+03  0.43663996211E+03  0.00000000000E+00 0. -1.
         -3   -1    0    0    0  501 -0.00000000000E+00 -0.00000000000E+00 -0.61318990470E+02  0.61318990470E+02  0.00000000000E+00 0.  1.
         25    2    1    2    0    0  0.65496185718E+02  0.98722108641E+02  0.24594223596E+03  0.30028379746E+03  0.12508785118E+03 0.  0.
          5    1    3    3  502    0 -0.72657223703E+01  0.94286636332E+02  0.17223728841E+03  0.19653477155E+03  0.41800000000E+01 0.  1.
         -5    1    3    3    0  502  0.72761908088E+02  0.44354723098E+01  0.73704947551E+02  0.10374902591E+03  0.41800000000E+01 0.  1.
        -11    1    1    2    0    0 -0.75147152262E+02 -0.70082788068E+02  0.13206809770E+03  0.16733401957E+03  0.00000000000E+00 0. -1.
         11    1    1    2    0    0  0.96509665437E+01 -0.28639320574E+02 -0.26893620165E+01  0.30341135546E+02  0.00000000000E+00 0.  1.
</event>
<event>
 7    1  0.2873461E-009  0.1373225E+03  0.7561462E-02  0.1216978E+00
          3   -1    0    0  501    0  0.00000000000E+00  0.00000000000E+00  0.88653766862E+03  0.88653766862E+03  0.00000000000E+00 0. -1.
         -3   -1    0    0    0  501 -0.00000000000E+00 -0.00000000000E+00 -0.24533233949E+02  0.24533233949E+02  0.00000000000E+00 0.  1.
         25    2    1    2    0    0  0.94910146710E+02  0.10999172780E+02  0.44396645393E+03  0.47104436431E+03  0.12509061990E+03 0.  0.
          5    1    3    3  502    0 -0.16237574138E+02 -0.16019724165E+02  0.20249253239E+03  0.20381606524E+03  0.41800000000E+01 0.  1.
         -5    1    3    3    0  502  0.11114772085E+03  0.27018896945E+02  0.24147392154E+03  0.26722829907E+03  0.41800000000E+01 0.  1.
        -11    1    1    2    0    0 -0.66969591453E+02 -0.53784704349E+02  0.27733002588E+03  0.29032682249E+03  0.00000000000E+00 0. -1.
         11    1    1    2    0    0 -0.27940555257E+02  0.42785531568E+02  0.14070795487E+03  0.14969971577E+03  0.00000000000E+00 0.  1.
</event>
<event>
 7    1  0.2873461E-009  0.9672839E+02  0.7561462E-02  0.1287330E+00
          1   -1    0    0  501    0  0.00000000000E+00  0.00000000000E+00  0.45318024898E+03  0.45318024898E+03  0.00000000000E+00 0. -1.
         -1   -1    0    0    0  501 -0.00000000000E+00 -0.00000000000E+00 -0.28134021855E+02  0.28134021855E+02  0.00000000000E+00 0.  1.
         25    2    1    2    0    0 -0.13502416197E+02 -0.24964333569E+02  0.19295509766E+03  0.23169696405E+03  0.12508509200E+03 0.  0.
          5    1    3    3  502    0 -0.31159377903E+02  0.33156720619E+02  0.15098088385E+03  0.15774338224E+03  0.41800000000E+01 0. -1.
         -5    1    3    3    0  502  0.17656961706E+02 -0.58121054188E+02  0.41974213817E+02  0.73953581808E+02  0.41800000000E+01 0. -1.
        -11    1    1    2    0    0  0.21874245782E+02  0.53149660521E+02  0.11087847634E+03  0.12488957346E+03  0.00000000000E+00 0.  1.
         11    1    1    2    0    0 -0.83718295847E+01 -0.28185326952E+02  0.12121265312E+03  0.12472773333E+03  0.00000000000E+00 0. -1.
</event>
<event>
 7    1  0.2873461E-009  0.5666093E+02  0.7561462E-02  0.1412404E+00
          2   -1    0    0  501    0  0.00000000000E+00  0.00000000000E+00  0.28290756220E+03  0.28290756220E+03  0.00000000000E+00 0.  1.
         -2   -1    0    0    0  501 -0.00000000000E+00 -0.00000000000E+00 -0.45476259165E+02  0.45476259165E+02  0.00000000000E+00 0. -1.
         25    2    1    2    0    0  0.12782204464E+02 -0.16285817816E+01  0.17593089877E+03  0.21625286217E+03  0.12509029629E+03 0.  0.
          5    1    3    3  502    0 -0.97379896319E+00 -0.10930697298E+02 -0.18041188993E+02  0.21526386788E+02  0.41800000000E+01 0. -1.
         -5    1    3    3    0  502  0.13756003427E+02  0.93021155167E+01  0.19397208777E+03  0.19472647538E+03  0.41800000000E+01 0. -1.
        -11    1    1    2    0    0 -0.31448091167E+02  0.34482063717E+02  0.57616344408E+02  0.74146060578E+02  0.00000000000E+00 0.  1.
         11    1    1    2    0    0  0.18665886702E+02 -0.32853481936E+02  0.38840598510E+01  0.37984898613E+02  0.00000000000E+00 0. -1.
</event>
<event>
 7    1  0.2873461E-009  0.1383759E+03  0.7561462E-02  0.1215531E+00
          2   -1    0    0  501    0  0.00000000000E+00  0.00000000000E+00  0.11251511479E+03  0.11251511479E+03  0.00000000000E+00 0. -1.
         -2   -1    0    0    0  501 -0.00000000000E+00 -0.00000000000E+00 -0.21360709492E+03  0.21360709492E+03  0.00000000000E+00 0.  1.
         25    2    1    2    0    0 -0.10639298990E+03 -0.23821653719E+02 -0.35519342763E+02  0.16969424764E+03  0.12509026535E+03 0.  0.
          5    1    3    3  502    0 -0.10261545625E+03  0.32991801276E+02 -0.31899342338E+02  0.11248747154E+03  0.41800000000E+01 0. -1.
         -5    1    3    3    0  502 -0.37775336578E+01 -0.56813454995E+02 -0.36200004248E+01  0.57206776103E+02  0.41800000000E+01 0. -1.
        -11    1    1    2    0    0  0.40535190578E+02  0.21516738543E+02  0.18608629680E+02  0.49521235963E+02  0.00000000000E+00 0. -1.
         11    1    1    2    0    0  0.65857799326E+02  0.23049151760E+01 -0.84181267044E+02  0.10690672611E+03  0.00000000000E+00 0.  1.
</event>
<event>
 7    1  0.2873461E-009  0.2443275E+03  0.7561462E-02  0.1116943E+00
         -2   -1    0    0    0  501 -0.00000000000E+00  0.00000000000E+00  0.28402763049E+02  0.28402763049E+02  0.00000000000E+00 0.  1.
          2   -1    0    0  501    0  0.00000000000E+00 -0.00000000000E+00 -0.21847754945E+04  0.21847754945E+04  0.00000000000E+00 0. -1.
         25    2    1    2    0    0 -0.11715865449E+03 -0.19248007591E+03 -0.10481377726E+04  0.10793579787E+04  0.12508447468E+03 0.  0.
          5    1    3    3  502    0  0.93690389793E+01  0.98572385664E+01 -0.25146702816E+02  0.28892440293E+02  0.41800000000E+01 0.  1.
         -5    1    3    3    0  502 -0.12652769347E+03 -0.20233731447E+03 -0.10229910698E+04  0.10504655384E+04  0.41800000000E+01 0.  1.
        -11    1    1    2    0    0  0.12155717818E+02  0.83629045337E+02 -0.30608394232E+03  0.31753575932E+03  0.00000000000E+00 0.  1.
         11    1    1    2    0    0  0.10500293667E+03  0.10885103057E+03 -0.80215101645E+03  0.81628451949E+03  0.00000000000E+00 0. -1.
</event>
<event>
 7    1  0.2873461E-009  0.9655410E+02  0.7561462E-02  0.1287714E+00
         -2   -1    0    0    0  501 -0.00000000000E+00  0.00000000000E+00  0.74761132319E+01  0.74761132319E+01  0.00000000000E+00 0.  1.
          2   -1    0    0  501    0  0.00000000000E+00 -0.00000000000E+00 -0.16958012650E+04  0.16958012650E+04  0.00000000000E+00 0. -1.
         25    2    1    2    0    0  0.70647826324E+01 -0.84301300148E+01 -0.11746928694E+04  0.11813856859E+04  0.12509125941E+03 0.  0.
          5    1    3    3  502    0 -0.26631815393E+02 -0.44067966625E+02 -0.94817143901E+03  0.94957769004E+03  0.41800000000E+01 0. -1.
         -5    1    3    3    0  502  0.33696598026E+02  0.35637836610E+02 -0.22652143042E+03  0.23180799589E+03  0.41800000000E+01 0. -1.
        -11    1    1    2    0    0 -0.49297164375E+02  0.76917980585E+00 -0.25510665405E+03  0.25982726376E+03  0.00000000000E+00 0.  1.
         11    1    1    2    0    0  0.42232381743E+02  0.76609502089E+01 -0.25852562832E+03  0.26206442857E+03  0.00000000000E+00 0. -1.
</event>
<event>
 7    1  0.2873461E-009  0.1097894E+03  0.7561462E-02  0.1260960E+00
          1   -1    0    0  501    0  0.00000000000E+00  0.00000000000E+00  0.40837498369E+02  0.40837498369E+02  0.00000000000E+00 0. -1.
         -1   -1    0    0    0  501 -0.00000000000E+00 -0.00000000000E+00 -0.32014972174E+03  0.32014972174E+03  0.00000000000E+00 0.  1.
         25    2    1    2    0    0  0.24978307850E+02  0.22933406830E+02 -0.13003201866E+03  0.18359075853E+03  0.12508950288E+03 0.  0.
          5    1    3    3  502    0  0.67631506186E+02  0.40230461743E+02 -0.10420622244E+03  0.13064807644E+03  0.41800000000E+01 0. -1.
         -5    1    3    3    0  502 -0.42653198336E+02 -0.17297054913E+02 -0.25825796211E+02  0.52942682090E+02  0.41800000000E+01 0. -1.
        -11    1    1    2    0    0 -0.29188679092E+02 -0.54974306442E+02 -0.83916001274E+02  0.10447989580E+03  0.00000000000E+00 0. -1.
         11    1    1    2    0    0  0.42103712417E+01  0.32040899612E+02 -0.65364203438E+02  0.72916565779E+02  0.00000000000E+00 0.  1.
</event>
<event>
 7    1  0.3551326E-009  0.8572645E+02  0.7561462E-02  0.1313544E+00
         -2   -1    0    0    0  501 -0.00000000000E+00  0.00000000000E+00  0.22920813179E+02  0.22920813179E+02  0.00000000000E+00 0.  1.
          2   -1    0    0  501    0  0.00000000000E+00 -0.00000000000E+00 -0.80106142580E+03  0.80106142580E+03  0.00000000000E+00 0. -1.
         25    2    1    2    0    0 -0.20673991236E+02  0.77462037659E+02 -0.45783108354E+03  0.48133691290E+03  0.12509253162E+03 0.  0.
          5    1    3    3  502    0 -0.84852714806E+01  0.42042713854E+02 -0.31588570570E+02  0.53431262487E+02  0.41800000000E+01 0.  1.
         -5    1    3    3    0  502 -0.12188719755E+02  0.35419323805E+02 -0.42624251297E+03  0.42790565041E+03  0.41800000000E+01 0.  1.
        -11    1    1    2    0    0 -0.12660833781E+02 -0.30998056467E+02 -0.24836979878E+02  0.41689948263E+02  0.00000000000E+00 0.  1.
         11    1    1    2    0    0  0.33334825017E+02 -0.46463981193E+02 -0.29547254920E+03  0.30095537782E+03  0.00000000000E+00 0. -1.
</event>
<event>
 7    1  0.2873461E-009  0.1760404E+03  0.7561462E-02  0.1171691E+00
          1   -1    0    0  501    0  0.00000000000E+00  0.00000000000E+00  0.47624502508E+02  0.47624502508E+02  0.00000000000E+00 0. -1.
         -1   -1    0    0    0  501 -0.00000000000E+00 -0.00000000000E+00 -0.67272519971E+03  0.67272519971E+03  0.00000000000E+00 0.  1.
         25    2    1    2    0    0 -0.13570531999E+03 -0.39081902590E+02 -0.37803896955E+03  0.42249729851E+03  0.12508867163E+03 0.  0.
          5    1    3    3  502    0 -0.92938582437E+02 -0.84799143150E+02 -0.24860452222E+03  0.27865777515E+03  0.41800000000E+01 0.  1.
         -5    1    3    3    0  502 -0.42766737555E+02  0.45717240560E+02 -0.12943444733E+03  0.14383952336E+03  0.41800000000E+01 0.  1.
        -11    1    1    2    0    0 -0.10290150820E+02 -0.43019919112E+01 -0.35213949086E+02  0.36938009537E+02  0.00000000000E+00 0.  1.
         11    1    1    2    0    0  0.14599547081E+03  0.43383894501E+02 -0.21184777857E+03  0.26091439417E+03  0.00000000000E+00 0. -1.
</event>
<event>
 7    1  0.2873461E-009  0.8987271E+02  0.7561462E-02  0.1303160E+00
          3   -1    0    0  501    0  0.00000000000E+00  0.00000000000E+00  0.33775213730E+02  0.33775213730E+02  0.00000000000E+00 0. -1.
         -3   -1    0    0    0  501 -0.00000000000E+00 -0.00000000000E+00 -0.39129084633E+03  0.39129084633E+03  0.00000000000E+00 0.  1.
         25    2    1    2    0    0 -0.31403397098E+02  0.24564736542E+02 -0.17214811641E+03  0.21648845480E+03  0.12507068980E+03 0.  0.
          5    1    3    3  502    0  0.26462913689E+00 -0.27583056314E+02 -0.14821614182E+03  0.15081907082E+03  0.41800000000E+01 0. -1.
         -5    1    3    3    0  502 -0.31668026235E+02  0.52147792855E+02 -0.23931974589E+02  0.65669383985E+02  0.41800000000E+01 0. -1.
        -11    1    1    2    0    0  0.57467481379E+02 -0.42082212492E+01 -0.14719527326E+03  0.15807172110E+03  0.00000000000E+00 0.  1.
         11    1    1    2    0    0 -0.26064084282E+02 -0.20356515292E+02 -0.38172242921E+02  0.50505884152E+02  0.00000000000E+00 0. -1.
</event>
<event>
 7    1  0.2873461E-009  0.1120452E+03  0.7561462E-02  0.1256829E+00
         -2   -1    0    0    0  501 -0.00000000000E+00  0.00000000000E+00  0.35237609463E+02  0.35237609463E+02  0.00000000000E+00 0.  1.
          2   -1    0    0  501    0  0.00000000000E+00 -0.00000000000E+00 -0.67537388686E+03  0.67537388686E+03  0.00000000000E+00 0. -1.
         25    2    1    2    0    0  0.10240439910E+03 -0.12102520515E+02 -0.25650099847E+03  0.30343607827E+03  0.12509020514E+03 0.  0.
          5    1    3    3  502    0  0.10659480875E+03 -0.10875551871E+02 -0.26898231415E+03  0.28956810703E+03  0.41800000000E+01 0.  1.
         -5    1    3    3    0  502 -0.41904096535E+01 -0.12269686433E+01  0.12481315684E+02  0.13867971240E+02  0.41800000000E+01 0.  1.
        -11    1    1    2    0    0 -0.17660589450E+02  0.18817221483E+02 -0.17210992916E+02  0.31019389440E+02  0.00000000000E+00 0.  1.
         11    1    1    2    0    0 -0.84743809649E+02 -0.67147009682E+01 -0.36642428601E+03  0.37615602861E+03  0.00000000000E+00 0. -1.
</event>
<event>
 7    1  0.2873461E-009  0.1586012E+03  0.7561462E-02  0.1190285E+00
         -2   -1    0    0    0  501 -0.00000000000E+00  0.00000000000E+00  0.25367195183E+02  0.25367195183E+02  0.00000000000E+00 0.  1.
          2   -1    0    0  501    0  0.00000000000E+00 -0.00000000000E+00 -0.10949824011E+04  0.10949824011E+04  0.00000000000E+00 0. -1.
         25    2    1    2    0    0  0.57891541923E+02 -0.10781414872E+03 -0.43200589544E+03  0.46610231111E+03  0.12508776694E+03 0.  0.
          5    1    3    3  502    0  0.93360674945E+02 -0.51473298677E+02 -0.23436340490E+03  0.25750610490E+03  0.41800000000E+01 0. -1.
         -5    1    3    3    0  502 -0.35469133022E+02 -0.56340850039E+02 -0.19764249053E+03  0.20859620621E+03  0.41800000000E+01 0. -1.
        -11    1    1    2    0    0 -0.67525807208E+02  0.47099541114E+02 -0.30025749121E+03  0.31134010734E+03  0.00000000000E+00 0. -1.
         11    1    1    2    0    0  0.96342652848E+01  0.60714607602E+02 -0.33735181929E+03  0.34290717785E+03  0.00000000000E+00 0.  1.
</event>
<event>
 7    1  0.2873461E-009  0.8339289E+02  0.7561462E-02  0.1319690E+00
          1   -1    0    0  501    0  0.00000000000E+00  0.00000000000E+00  0.44200056782E+03  0.44200056782E+03  0.00000000000E+00 0. -1.
         -1   -1    0    0    0  501 -0.00000000000E+00 -0.00000000000E+00 -0.33263947023E+02  0.33263947023E+02  0.00000000000E+00 0.  1.
         25    2    1    2    0    0 -0.52034328484E+02 -0.14818891329E+02  0.22236588028E+03  0.26080988216E+03  0.12509212221E+03 0.  0.
          5    1    3    3  502    0 -0.21670100852E+02  0.11176293627E+02  0.21909518634E+03  0.22048735993E+03  0.41800000000E+01 0.  1.
         -5    1    3    3    0  502 -0.30364227632E+02 -0.25995184956E+02  0.32706939420E+01  0.40322522236E+02  0.41800000000E+01 0.  1.
        -11    1    1    2    0    0  0.51747391321E+02  0.46862428538E+02  0.96988101484E+02  0.11950134537E+03  0.00000000000E+00 0.  1.
         11    1    1    2    0    0  0.28693716334E+00 -0.32043537209E+02  0.89382639034E+02  0.94953287307E+02  0.00000000000E+00 0. -1.
</event>
<event>
 7    1  0.2873461E-009  0.7535863E+02  0.7561462E-02  0.1342764E+00
          2   -1    0    0  501    0  0.00000000000E+00  0.00000000000E+00  0.90055843912E+02  0.90055843912E+02  0.00000000000E+00 0. -1.
         -2   -1    0    0    0  501 -0.00000000000E+00 -0.00000000000E+00 -0.13978246505E+03  0.13978246505E+03  0.00000000000E+00 0.  1.
         25    2    1    2    0    0 -0.15272959345E+00 -0.39597932414E+02 -0.39266771338E+02  0.13695295553E+03  0.12508482370E+03 0.  0.
          5    1    3    3  502    0 -0.33838113122E+02 -0.19888232233E+02  0.35127418679E+02  0.52839072891E+02  0.41800000000E+01 0. -1.
         -5    1    3    3    0  502  0.33685383528E+02 -0.19709700180E+02 -0.74394190017E+02  0.84113882641E+02  0.41800000000E+01 0. -1.
        -11    1    1    2    0    0  0.39798071834E+01 -0.15886785943E+02  0.22807447924E+02  0.28078613100E+02  0.00000000000E+00 0. -1.
         11    1    1    2    0    0 -0.38270775899E+01  0.55484718357E+02 -0.33267297721E+02  0.64806740326E+02  0.00000000000E+00 0.  1.
</event>
<event>
 7    1  0.2873461E-009  0.3307443E+03  0.7561462E-02  0.1070808E+00
         -1   -1    0    0    0  501 -0.00000000000E+00  0.00000000000E+00  0.21099756082E+03  0.21099756082E+03  0.00000000000E+00 0.  1.
          1   -1    0    0  501    0  0.00000000000E+00 -0.00000000000E+00 -0.69080115455E+03  0.69080115455E+03  0.00000000000E+00 0. -1.
         25    2    1    2    0    0  0.17094304034E+03  0.27593947827E+03 -0.44119563577E+03  0.56184075617E+03  0.12508927837E+03 0.  0.
          5    1    3    3  502    0  0.97375669475E+02  0.75386140080E+02 -0.23269325307E+03  0.26330346284E+03  0.41800000000E+01 0. -1.
         -5    1    3    3    0  502  0.73567370869E+02  0.20055333819E+03 -0.20850238270E+03  0.29853729333E+03  0.41800000000E+01 0. -1.
        -11    1    1    2    0    0 -0.55139196957E+02 -0.86630126795E+02  0.31187669622E+02  0.10732092362E+03  0.00000000000E+00 0.  1.
         11    1    1    2    0    0 -0.11580384339E+03 -0.18930935147E+03 -0.69795627582E+02  0.23263703559E+03  0.00000000000E+00 0. -1.
</event>
<event>
 7    1  0.2873461E-009  0.1405695E+03  0.7561462E-02  0.1212565E+00
          1   -1    0    0  501    0  0.00000000000E+00  0.00000000000E+00  0.24211852631E+03  0.24211852631E+03  0.00000000000E+00 0. -1.
         -1   -1    0    0    0  501 -0.00000000000E+00 -0.00000000000E+00 -0.12888121429E+03  0.12888121429E+03  0.00000000000E+00 0.  1.
         25    2    1    2    0    0 -0.39632984160E+02 -0.10223027025E+03  0.14961678408E+03  0.22372877926E+03  0.12509029939E+03 0.  0.
          5    1    3    3  502    0 -0.62884122422E+02 -0.38742357078E+01  0.40895519784E+02  0.75228574980E+02  0.41800000000E+01 0. -1.
         -5    1    3    3    0  502  0.23251138262E+02 -0.98356034547E+02  0.10872126429E+03  0.14850020428E+03  0.41800000000E+01 0. -1.
        -11    1    1    2    0    0  0.14514258791E+02  0.85361006271E+02  0.14775059524E+02  0.87837733826E+02  0.00000000000E+00 0. -1.
         11    1    1    2    0    0  0.25118725369E+02  0.16869263984E+02 -0.51154531581E+02  0.59433227515E+02  0.00000000000E+00 0.  1.
</event>
<event>
 7    1  0.2873461E-009  0.1759538E+03  0.7561462E-02  0.1171777E+00
         -2   -1    0    0    0  501 -0.00000000000E+00  0.00000000000E+00  0.34468559704E+03  0.34468559704E+03  0.00000000000E+00 0. -1.
          2   -1    0    0  501    0  0.00000000000E+00 -0.00000000000E+00 -0.11193600378E+03  0.11193600378E+03  0.00000000000E+00 0.  1.
         25    2    1    2    0    0 -0.12686103418E+03 -0.97855512564E+02  0.15934968330E+03  0.25828397930E+03  0.12509543980E+03 0.  0.
          5    1    3    3  502    0 -0.12175709645E+03 -0.69079105868E+02  0.17557975048E+03  0.22459393265E+03  0.41800000000E+01 0.  1.
         -5    1    3    3    0  502 -0.51039377342E+01 -0.28776406696E+02 -0.16230067174E+02  0.33690046649E+02  0.41800000000E+01 0.  1.
        -11    1    1    2    0    0 -0.10789150674E+02 -0.35567623063E+01  0.12377136164E+02  0.16800292557E+02  0.00000000000E+00 0. -1.
         11    1    1    2    0    0  0.13765018486E+03  0.10141227487E+03  0.61022773795E+02  0.18153732896E+03  0.00000000000E+00 0.  1.
</event>
<event>
 7    1  0.2873461E-009  0.1111883E+03  0.7561462E-02  0.1258385E+00
         -2   -1    0    0    0  501 -0.00000000000E+00  0.00000000000E+00  0.26777249220E+02  0.26777249220E+02  0.00000000000E+00 0.  1.
          2   -1    0    0  501    0  0.00000000000E+00 -0.00000000000E+00 -0.54270533502E+03  0.54270533502E+03  0.00000000000E+00 0. -1.
         25    2    1    2    0    0 -0.12059341200E+02 -0.38548449792E+02 -0.36739287868E+03  0.39020028097E+03  0.12508925321E+03 0.  0.
          5    1    3    3  502    0 -0.63629812247E+02 -0.26376594202E+02 -0.27580288830E+03  0.28430473672E+03  0.41800000000E+01 0. -1.
         -5    1    3    3    0  502  0.51570471047E+02 -0.12171855590E+02 -0.91589990383E+02  0.10589554424E+03  0.41800000000E+01 0. -1.
        -11    1    1    2    0    0  0.59617096456E+01  0.68951737441E+02 -0.10741941932E+03  0.12778425461E+03  0.00000000000E+00 0.  1.
         11    1    1    2    0    0  0.60976315540E+01 -0.30403287649E+02 -0.41115787804E+02  0.51498048674E+02  0.00000000000E+00 0. -1.
</event>
<event>
 7    1  0.2873461E-009  0.9595933E+02  0.7561462E-02  0.1289030E+00
          1   -1    0    0  501    0  0.00000000000E+00  0.00000000000E+00  0.36866580015E+02  0.36866580015E+02  0.00000000000E+00 0. -1.
         -1   -1    0    0    0  501 -0.00000000000E+00 -0.00000000000E+00 -0.35265334064E+03  0.35265334064E+03  0.00000000000E+00 0.  1.
         25    2    1    2    0    0 -0.16788823768E+02  0.19539284504E+02 -0.14010840480E+03  0.18958764788E+03  0.12509781330E+03 0.  0.
          5    1    3    3  502    0  0.37654591046E+02  0.22718865081E+02 -0.57821559535E+01  0.44552449819E+02  0.41800000000E+01 0. -1.
         -5    1    3    3    0  502 -0.54443414814E+02 -0.31795805771E+01 -0.13432624884E+03  0.14503519806E+03  0.41800000000E+01 0. -1.
        -11    1    1    2    0    0  0.26355268568E+02  0.31527153494E+02 -0.10022349501E+03  0.10832040686E+03  0.00000000000E+00 0. -1.
         11    1    1    2    0    0 -0.95664447994E+01 -0.51066437998E+02 -0.75454860816E+02  0.91611865917E+02  0.00000000000E+00 0.  1.
</event>
<event>
 7    1  0.2873461E-009  0.1200848E+03  0.7561462E-02  0.1242957E+00
         -2   -1    0    0    0  501 -0.00000000000E+00  0.00000000000E+00  0.37413993097E+02  0.37413993097E+02  0.00000000000E+00 0.  1.
          2   -1    0    0  501    0  0.00000000000E+00 -0.00000000000E+00 -0.51264881622E+03  0.51264881622E+03  0.00000000000E+00 0. -1.
         25    2    1    2    0    0 -0.67312541176E+02  0.54818423922E+02 -0.23063815081E+03  0.27636381816E+03  0.12508783146E+03 0.  0.
          5    1    3    3  502    0 -0.85745175561E+02  0.56637255063E+02 -0.23531483908E+03  0.25680841046E+03  0.41800000000E+01 0.  1.
         -5    1    3    3    0  502  0.18432634386E+02 -0.18188311410E+01  0.46766882685E+01  0.19555407699E+02  0.41800000000E+01 0.  1.
        -11    1    1    2    0    0  0.11240372110E+02 -0.60904719714E+02 -0.16419551417E+03  0.17548759991E+03  0.00000000000E+00 0. -1.
         11    1    1    2    0    0  0.56072169066E+02  0.60862957924E+01 -0.80401158148E+02  0.98211391252E+02  0.00000000000E+00 0.  1.
</event>
<event>
 7    1  0.2873461E-009  0.1184546E+03  0.7561462E-02  0.1245669E+00
         -3   -1    0    0    0  501 -0.00000000000E+00  0.00000000000E+00  0.11869504469E+03  0.11869504469E+03  0.00000000000E+00 0.  1.
          3   -1    0    0  501    0  0.00000000000E+00 -0.00000000000E+00 -0.15559131839E+03  0.15559131839E+03  0.00000000000E+00 0. -1.
         25    2    1    2    0    0 -0.31854941488E+02  0.59848775081E+02  0.27284562060E+02  0.14483560142E+03  0.12504515559E+03 0.  0.
          5    1    3    3  502    0  0.13743827859E+02 -0.26388012274E+02  0.35903615299E+02  0.46816257726E+02  0.41800000000E+01 0.  1.
         -5    1    3    3    0  502 -0.45598769347E+02  0.86236787355E+02 -0.86190532388E+01  0.98019343693E+02  0.41800000000E+01 0.  1.
        -11    1    1    2    0    0  0.32085472092E+02 -0.81491601905E+02 -0.62787494807E+02  0.10776190516E+03  0.00000000000E+00 0. -1.
         11    1    1    2    0    0 -0.23053060425E+00  0.21642826823E+02 -0.13933409479E+01  0.21688856499E+02  0.00000000000E+00 0.  1.
</event>
<event>
 7    1  0.2873461E-009  0.1237016E+03  0.7561462E-02  0.1237113E+00
         -2   -1    0    0    0  501 -0.00000000000E+00  0.00000000000E+00  0.72020100299E+02  0.72020100299E+02  0.00000000000E+00 0.  1.
          2   -1    0    0  501    0  0.00000000000E+00 -0.00000000000E+00 -0.54188289773E+03  0.54188289773E+03  0.00000000000E+00 0. -1.
         25    2    1    2    0    0 -0.44935059040E+02 -0.88368274813E+02 -0.39445680554E+02  0.16441316051E+03  0.12509042373E+03 0.  0.
          5    1    3    3  502    0 -0.69430833747E+02 -0.26045110013E+02 -0.58634983714E+02  0.94628336905E+02  0.41800000000E+01 0. -1.
         -5    1    3    3    0  502  0.24495774707E+02 -0.62323164800E+02  0.19189303159E+02  0.69784823600E+02  0.41800000000E+01 0. -1.
        -11    1    1    2    0    0 -0.66733992671E+01  0.14065610241E+02 -0.80187313709E+01  0.17512158691E+02  0.00000000000E+00 0.  1.
         11    1    1    2    0    0  0.51608458307E+02  0.74302664571E+02 -0.42239838550E+03  0.43197767883E+03  0.00000000000E+00 0. -1.
</event>
<event>
 7    1  0.2873461E-009  0.1106838E+03  0.7561462E-02  0.1259309E+00
         -1   -1    0    0    0  501 -0.00000000000E+00  0.00000000000E+00  0.42101687714E+02  0.42101687714E+02  0.00000000000E+00 0.  1.
          1   -1    0    0  501    0  0.00000000000E+00 -0.00000000000E+00 -0.36999318108E+03  0.36999318108E+03  0.00000000000E+00 0. -1.
         25    2    1    2    0    0 -0.58547976848E+02 -0.15634830478E+02 -0.23213719257E+03  0.27056828292E+03  0.12508879260E+03 0.  0.
          5    1    3    3  502    0 -0.65984559825E+02  0.35871913151E+02 -0.80405462334E+02  0.11010570858E+03  0.41800000000E+01 0. -1.
         -5    1    3    3    0  502  0.74365829776E+01 -0.51506743628E+02 -0.15173173023E+03  0.16046257434E+03  0.41800000000E+01 0. -1.
        -11    1    1    2    0    0  0.73325109942E+02  0.12799022088E+01 -0.96144367034E+02  0.12092125210E+03  0.00000000000E+00 0. -1.
         11    1    1    2    0    0 -0.14777133094E+02  0.14354928269E+02  0.39006623349E+00  0.20605333769E+02  0.00000000000E+00 0.  1.
</event>
<event>
 7    1  0.2873461E-009  0.1131348E+03  0.7561462E-02  0.1254872E+00
          1   -1    0    0  501    0  0.00000000000E+00  0.00000000000E+00  0.38329488904E+03  0.38329488904E+03  0.00000000000E+00 0. -1.
         -1   -1    0    0    0  501 -0.00000000000E+00 -0.00000000000E+00 -0.44270680091E+02  0.44270680091E+02  0.00000000000E+00 0.  1.
         25    2    1    2    0    0 -0.33477947584E+02  0.17240826337E+02  0.28890944501E+03  0.31707431274E+03  0.12509769510E+03 0.  0.
          5    1    3    3  502    0 -0.74557970183E+02  0.37474440237E+02  0.16590021688E+03  0.18575139017E+03  0.41800000000E+01 0. -1.
         -5    1    3    3    0  502  0.41080022599E+02 -0.20233613900E+02  0.12300922813E+03  0.13132292257E+03  0.41800000000E+01 0. -1.
        -11    1    1    2    0    0 -0.10135460448E+01 -0.49499661987E+02  0.15302038737E+02  0.51820808580E+02  0.00000000000E+00 0.  1.
         11    1    1    2    0    0  0.34491493629E+02  0.32258835650E+02  0.34812725209E+02  0.58670447814E+02  0.00000000000E+00 0. -1.
</event>
<event>
 7    1  0.2873461E-009  0.1923653E+03  0.7561462E-02  0.1156345E+00
          1   -1    0    0  501    0  0.00000000000E+00  0.00000000000E+00  0.49033134998E+03  0.49033134998E+03  0.00000000000E+00 0. -1.
         -1   -1    0    0    0  501 -0.00000000000E+00 -0.00000000000E+00 -0.91920765139E+02  0.91920765139E+02  0.00000000000E+00 0.  1.
         25    2    1    2    0    0 -0.11662872164E+03  0.10793354720E+03  0.32909411717E+03  0.38626515464E+03  0.12508366164E+03 0.  0.
          5    1    3    3  502    0  0.19660936901E+01  0.79608421077E+02  0.14335375540E+03  0.16404004944E+03  0.41800000000E+01 0. -1.
         -5    1    3    3    0  502 -0.11859481533E+03  0.28325126120E+02  0.18574036177E+03  0.22222510520E+03  0.41800000000E+01 0. -1.
        -11    1    1    2    0    0  0.13014958019E+03 -0.82249574260E+02  0.62558894757E+02  0.16618520091E+03  0.00000000000E+00 0. -1.
         11    1    1    2    0    0 -0.13520858552E+02 -0.25683972937E+02  0.67575729147E+01  0.29801759571E+02  0.00000000000E+00 0.  1.
</event>
<event>
 7    1  0.2873461E-009  0.8861455E+02  0.7561462E-02  0.1306242E+00
         -3   -1    0    0    0  501 -0.00000000000E+00  0.00000000000E+00  0.57060879664E+02  0.57060879664E+02  0.00000000000E+00 0.  1.
          3   -1    0    0  501    0  0.00000000000E+00 -0.00000000000E+00 -0.24422336398E+03  0.24422336398E+03  0.00000000000E+00 0. -1.
         25    2    1    2    0    0  0.33302180993E+02  0.30837584077E+02 -0.82862907654E+02  0.15675811701E+03  0.12508738519E+03 0.  0.
          5    1    3    3  502    0  0.15997793651E+02  0.71772557046E+02 -0.14428999109E+02  0.75052633277E+02  0.41800000000E+01 0.  1.
         -5    1    3    3    0  502  0.17304387342E+02 -0.40934972969E+02 -0.68433908546E+02  0.81705483733E+02  0.41800000000E+01 0.  1.
        -11    1    1    2    0    0 -0.34193545132E+02 -0.67740448114E+01 -0.11351226013E+03  0.11874392368E+03  0.00000000000E+00 0. -1.
         11    1    1    2    0    0  0.89136413964E+00 -0.24063539265E+02  0.92126834720E+01  0.25782202946E+02  0.00000000000E+00 0.  1.
</event>
<event>
 7    1  0.2873461E-009  0.1647090E+03  0.7561462E-02  0.1183481E+00
          2   -1    0    0  501    0  0.00000000000E+00  0.00000000000E+00  0.20601368024E+03  0.20601368024E+03  0.00000000000E+00 0. -1.
         -2   -1    0    0    0  501 -0.00000000000E+00 -0.00000000000E+00 -0.15039340578E+03  0.15039340578E+03  0.00000000000E+00 0.  1.
         25    2    1    2    0    0  0.10303274253E+03 -0.88119227331E+02  0.54531048037E+02  0.19236378779E+03  0.12509775136E+03 0.  0.
          5    1    3    3  502    0  0.11780733464E+03 -0.10443781217E+03  0.61234010134E+02  0.16897603707E+03  0.41800000000E+01 0. -1.
         -5    1    3    3    0  502 -0.14774592109E+02  0.16318584842E+02 -0.67029620962E+01  0.23387750728E+02  0.41800000000E+01 0. -1.
        -11    1    1    2    0    0 -0.18960593233E+02 -0.90667389044E+01 -0.25266078166E+02  0.32864639904E+02  0.00000000000E+00 0.  1.
         11    1    1    2    0    0 -0.84072149293E+02  0.97185966235E+02  0.26355304588E+02  0.13117865832E+03  0.00000000000E+00 0. -1.
</event>
<event>
 7    1  0.2873461E-009  0.1520937E+03  0.7561462E-02  0.1197924E+00
         -1   -1    0    0    0  501 -0.00000000000E+00  0.00000000000E+00  0.83461505348E+02  0.83461505348E+02  0.00000000000E+00 0.  1.
          1   -1    0    0  501    0  0.00000000000E+00 -0.00000000000E+00 -0.37382616759E+03  0.37382616759E+03  0.00000000000E+00 0. -1.
         25    2    1    2    0    0 -0.10891519409E+03  0.27809367401E+02 -0.47137577664E+02  0.17465846649E+03  0.12509095999E+03 0.  0.
          5    1    3    3  502    0  0.27249458926E+02 -0.36473478125E+01 -0.26337486707E+01  0.27932869346E+02  0.41800000000E+01 0. -1.
         -5    1    3    3    0  502 -0.13616465301E+03  0.31456715213E+02 -0.44503828994E+02  0.14672559714E+03  0.41800000000E+01 0. -1.
        -11    1    1    2    0    0  0.11422609175E+03 -0.62885117194E+01 -0.16125367011E+03  0.19771163735E+03  0.00000000000E+00 0.  1.
         11    1    1    2    0    0 -0.53108976673E+01 -0.21520855681E+02 -0.81973414461E+02  0.84917569099E+02  0.00000000000E+00 0. -1.
</event>
<event>
 7    1  0.2873461E-009  0.1290707E+03  0.7561462E-02  0.1228841E+00
          2   -1    0    0  501    0  0.00000000000E+00  0.00000000000E+00  0.32708862302E+03  0.32708862302E+03  0.00000000000E+00 0. -1.
         -2   -1    0    0    0  501 -0.00000000000E+00 -0.00000000000E+00 -0.71181249070E+02  0.71181249070E+02  0.00000000000E+00 0.  1.
         25    2    1    2    0    0  0.49650301050E+02 -0.65761547329E+02  0.23717051750E+03  0.28051077662E+03  0.12508680159E+03 0.  0.
          5    1    3    3  502    0 -0.23673323780E+02  0.20666127105E+02  0.26789313865E+02  0.41504876891E+02  0.41800000000E+01 0. -1.
         -5    1    3    3    0  502  0.73323624830E+02 -0.86427674434E+02  0.21038120363E+03  0.23900589973E+03  0.41800000000E+01 0. -1.
        -11    1    1    2    0    0 -0.48878738901E+02  0.16505967089E+01  0.21855091770E+02  0.53567719965E+02  0.00000000000E+00 0. -1.
         11    1    1    2    0    0 -0.77156214906E+00  0.64110950620E+02 -0.31182353138E+01  0.64191375504E+02  0.00000000000E+00 0.  1.
</event>
<event>
 7    1  0.2873461E-009  0.9188621E+02  0.7561462E-02  0.1298347E+00
          2   -1    0    0  501    0  0.00000000000E+00  0.00000000000E+00  0.12704289260E+03  0.12704289260E+03  0.00000000000E+00 0. -1.
         -2   -1    0    0    0  501 -0.00000000000E+00 -0.00000000000E+00 -0.10042257018E+03  0.10042257018E+03  0.00000000000E+00 0.  1.
         25    2    1    2    0    0 -0.12878226336E+02 -0.28984543628E+02  0.14191943397E+02  0.12982768077E+03  0.12509141838E+03 0.  0.
          5    1    3    3  502    0  0.36425218112E+02  0.79289075836E+01  0.46827369577E+02  0.59999491926E+02  0.41800000000E+01 0. -1.
         -5    1    3    3    0  502 -0.49303444447E+02 -0.36913451212E+02 -0.32635426180E+02  0.69828188840E+02  0.41800000000E+01 0. -1.
        -11    1    1    2    0    0 -0.27258096587E+01  0.54527725353E+02  0.30634651847E+02  0.62603392594E+02  0.00000000000E+00 0. -1.
         11    1    1    2    0    0  0.15604035994E+02 -0.25543181725E+02 -0.18206272825E+02  0.35034389421E+02  0.00000000000E+00 0.  1.
</event>
<event>
 7    1  0.2873461E-009  0.1274709E+03  0.7561462E-02  0.1231257E+00
          2   -1    0    0  501    0  0.00000000000E+00  0.00000000000E+00  0.14057991162E+02  0.14057991162E+02  0.00000000000E+00 0.  1.
         -2   -1    0    0    0  501 -0.00000000000E+00 -0.00000000000E+00 -0.12492671762E+04  0.12492671762E+04  0.00000000000E+00 0. -1.
         25    2    1    2    0    0  0.65151876266E+02  0.34977132003E+02 -0.61541987605E+03  0.63234086741E+03  0.12508070203E+03 0.  0.
          5    1    3    3  502    0  0.29169408390E+02 -0.42453127678E+02 -0.13864410288E+03  0.14796209683E+03  0.41800000000E+01 0.  1.
         -5    1    3    3    0  502  0.35982467876E+02  0.77430259681E+02 -0.47677577317E+03  0.48437877059E+03  0.41800000000E+01 0.  1.
        -11    1    1    2    0    0  0.19395717404E+01 -0.49165686986E+02 -0.22936055440E+03  0.23457896459E+03  0.00000000000E+00 0.  1.
         11    1    1    2    0    0 -0.67091448007E+02  0.14188554983E+02 -0.39042875462E+03  0.39640533539E+03  0.00000000000E+00 0. -1.
</event>
<event>
 7    1  0.2873461E-009  0.8279886E+02  0.7561462E-02  0.1321291E+00
         -1   -1    0    0    0  501 -0.00000000000E+00  0.00000000000E+00  0.81796060989E+02  0.81796060989E+02  0.00000000000E+00 0.  1.
          1   -1    0    0  501    0  0.00000000000E+00 -0.00000000000E+00 -0.18613004146E+03  0.18613004146E+03  0.00000000000E+00 0. -1.
         25    2    1    2    0    0 -0.58441944928E+02  0.56458645383E+01 -0.63429534284E+02  0.15205125921E+03  0.12509573492E+03 0.  0.
          5    1    3    3  502    0 -0.37819737908E+02 -0.11189279253E+02  0.33207355368E+02  0.51727491686E+02  0.41800000000E+01 0. -1.
         -5    1    3    3    0  502 -0.20622207020E+02  0.16835143792E+02 -0.96636889652E+02  0.10032376753E+03  0.41800000000E+01 0. -1.
        -11    1    1    2    0    0  0.45761568600E+02  0.34228891123E+02  0.30379632926E+00  0.57147444741E+02  0.00000000000E+00 0.  1.
         11    1    1    2    0    0  0.12680376327E+02 -0.39874755661E+02 -0.41208242517E+02  0.58727398497E+02  0.00000000000E+00 0. -1.
</event>
<event>
 7    1  0.2873461E-009  0.1209048E+03  0.7561462E-02  0.1241612E+00
          2   -1    0    0  501    0  0.00000000000E+00  0.00000000000E+00  0.18640706656E+03  0.18640706656E+03  0.00000000000E+00 0. -1.
         -2   -1    0    0    0  501 -0.00000000000E+00 -0.00000000000E+00 -0.95079027722E+02  0.95079027722E+02  0.00000000000E+00 0.  1.
         25    2    1    2    0    0 -0.37140831949E+02 -0.67652950835E+02  0.34056135056E+02  0.15087686515E+03  0.12509054700E+03 0.  0.
          5    1    3    3  502    0 -0.77479219618E+02 -0.18394474142E+02  0.27113500483E+01  0.79788532827E+02  0.41800000000E+01 0.  1.
         -5    1    3    3    0  502  0.40338387669E+02 -0.49258476693E+02  0.31344785008E+02  0.71088332327E+02  0.41800000000E+01 0.  1.
        -11    1    1    2    0    0  0.29946312043E+02  0.79191497808E+02  0.14716276658E+02  0.85933949803E+02  0.00000000000E+00 0.  1.
         11    1    1    2    0    0  0.71945199060E+01 -0.11538546973E+02  0.42555627121E+02  0.44675279323E+02  0.00000000000E+00 0. -1.
</event>
<event>
 7    1  0.3124549E-009  0.6683724E+02  0.7561462E-02  0.1371191E+00
          2   -1    0    0  501    0  0.00000000000E+00  0.00000000000E+00  0.13192597432E+04  0.13192597432E+04  0.00000000000E+00 0. -1.
         -2   -1    0    0    0  501 -0.00000000000E+00 -0.00000000000E+00 -0.10265443707E+02  0.10265443707E+02  0.00000000000E+00 0.  1.
         25    2    1    2    0    0  0.23814059245E+02  0.46712218436E+01  0.94252224080E+03  0.95109677200E+03  0.12509182853E+03 0.  0.
          5    1    3    3  502    0  0.28803470874E+02 -0.11726261842E+02  0.92719707196E+03  0.92772788457E+03  0.41800000000E+01 0. -1.
         -5    1    3    3    0  502 -0.49894116285E+01  0.16397483685E+02  0.15325168838E+02  0.23368887426E+02  0.41800000000E+01 0. -1.
        -11    1    1    2    0    0  0.28300019911E+02  0.10801383002E+02  0.60444433084E+02  0.67609840205E+02  0.00000000000E+00 0.  1.
         11    1    1    2    0    0 -0.52114079156E+02 -0.15472604845E+02  0.30602762558E+03  0.31081857467E+03  0.00000000000E+00 0. -1.
</event>
<event>
 7    1  0.2873461E-009  0.9739380E+02  0.7561462E-02  0.1285874E+00
          1   -1    0    0  501    0  0.00000000000E+00  0.00000000000E+00  0.57586638636E+03  0.57586638636E+03  0.00000000000E+00 0. -1.
         -1   -1    0    0    0  501 -0.00000000000E+00 -0.00000000000E+00 -0.24305369474E+02  0.24305369474E+02  0.00000000000E+00 0.  1.
         25    2    1    2    0    0 -0.12176907501E+02 -0.34840948991E+02  0.38755405520E+03  0.40891151924E+03  0.12509322948E+03 0.  0.
          5    1    3    3  502    0  0.46603341123E+02  0.10645255678E+02  0.22590384241E+03  0.23094417353E+03  0.41800000000E+01 0.  1.
         -5    1    3    3    0  502 -0.58780248624E+02 -0.45486204669E+02  0.16165021279E+03  0.17796734571E+03  0.41800000000E+01 0.  1.
        -11    1    1    2    0    0  0.36794142736E+02  0.11795108776E+02  0.14974066233E+03  0.15464539918E+03  0.00000000000E+00 0. -1.
         11    1    1    2    0    0 -0.24617235235E+02  0.23045840215E+02  0.14266299353E+02  0.36614837417E+02  0.00000000000E+00 0.  1.
</event>
<event>
 7    1  0.2873461E-009  0.1898419E+03  0.7561462E-02  0.1158604E+00
         -1   -1    0    0    0  501 -0.00000000000E+00  0.00000000000E+00  0.14717667841E+02  0.14717667841E+02  0.00000000000E+00 0.  1.
          1   -1    0    0  501    0  0.00000000000E+00 -0.00000000000E+00 -0.28825424168E+04  0.28825424168E+04  0.00000000000E+00 0. -1.
         25    2    1    2    0    0 -0.17092707262E+03  0.21650636137E+00 -0.17442495099E+04  0.17570629340E+04  0.12509072800E+03 0.  0.
          5    1    3    3  502    0 -0.10515334299E+03 -0.35167387415E+02 -0.14185832208E+04  0.14229159489E+04  0.41800000000E+01 0.  1.
         -5    1    3    3    0  502 -0.65773729638E+02  0.35383893776E+02 -0.32566628911E+03  0.33414698519E+03  0.41800000000E+01 0.  1.
        -11    1    1    2    0    0  0.12099645426E+03  0.42468812535E+02 -0.72974493394E+03  0.74092604934E+03  0.00000000000E+00 0.  1.
         11    1    1    2    0    0  0.49930618362E+02 -0.42685318897E+02 -0.39383030504E+03  0.39927110122E+03  0.00000000000E+00 0. -1.
</event>
<event>
 7    1  0.2873461E-009  0.1420107E+03  0.7561462E-02  0.1210649E+00
          2   -1    0    0  501    0  0.00000000000E+00  0.00000000000E+00  0.23747182600E+03  0.23747182600E+03  0.00000000000E+00 0. -1.
         -2   -1    0    0    0  501 -0.00000000000E+00 -0.00000000000E+00 -0.10419437002E+03  0.10419437002E+03  0.00000000000E+00 0.  1.
         25    2    1    2    0    0  0.99626941627E+02  0.24900931304E+02  0.12340349098E+02  0.16231323269E+03  0.12509083664E+03 0.  0.
          5    1    3    3  502    0  0.87608423602E+02 -0.35316064671E+02 -0.13597961292E+02  0.95524014055E+02  0.41800000000E+01 0.  1.
         -5    1    3    3    0  502  0.12018518025E+02  0.60216995975E+02  0.25938310390E+02  0.66789218633E+02  0.41800000000E+01 0.  1.
        -11    1    1    2    0    0  0.41670663987E+01  0.15870781516E+02  0.23612028396E+01  0.16577738903E+02  0.00000000000E+00 0.  1.
         11    1    1    2    0    0 -0.10379400803E+03 -0.40771712819E+02  0.11857590404E+03  0.16277522443E+03  0.00000000000E+00 0. -1.
</event>
<event>
 6    1  0.2873461E-009  0.1682105E+03  0.7561462E-02  0.1179727E+00
          1   -1    0    0  501    0  0.00000000000E+00  0.00000000000E+00  0.58583048447E+03  0.58583048447E+03  0.00000000000E+00 0. -1.
         -1   -1    0    0    0  501 -0.00000000000E+00 -0.00000000000E+00 -0.58913432448E+02  0.58913432448E+02  0.00000000000E+00 0.  1.
          5    1    1    2  502    0 -0.93069111855E+02 -0.98501633655E+02  0.25707507398E+03  0.29063636641E+03  0.41800000000E+01 0. -1.
         -5    1    1    2    0  502 -0.36603958143E+02  0.39530052081E+02  0.10609936962E+03  0.11906730618E+03  0.41800000000E+01 0. -1.
        -11    1    1    2    0    0  0.41814056626E+02  0.37945050547E+02  0.12418514852E+03  0.13641918232E+03  0.00000000000E+00 0. -1.
         11    1    1    2    0    0  0.87859013372E+02  0.21026531027E+02  0.39557459908E+02  0.98621062011E+02  0.00000000000E+00 0.  1.
</event>
<event>
 7    1  0.2873461E-009  0.8484677E+02  0.7561462E-02  0.1315834E+00
         -1   -1    0    0    0  501 -0.00000000000E+00  0.00000000000E+00  0.46702845586E+02  0.46702845586E+02  0.00000000000E+00 0.  1.
          1   -1    0    0  501    0  0.00000000000E+00 -0.00000000000E+00 -0.32590025490E+03  0.32590025490E+03  0.00000000000E+00 0. -1.
         25    2    1    2    0    0 -0.18982510893E+02 -0.12613473232E+02 -0.74925701743E+02  0.14757788691E+03  0.12508371795E+03 0.  0.
          5    1    3    3  502    0 -0.12577499510E+02 -0.44606911117E+02 -0.97258854661E+02  0.10781802829E+03  0.41800000000E+01 0.  1.
         -5    1    3    3    0  502 -0.64050113833E+01  0.31993437884E+02  0.22333152918E+02  0.39759858623E+02  0.41800000000E+01 0.  1.
        -11    1    1    2    0    0  0.12186139373E+02 -0.37634752998E+02 -0.12327028628E+03  0.12946211842E+03  0.00000000000E+00 0.  1.
         11    1    1    2    0    0  0.67963715203E+01  0.50248226231E+02 -0.81001421293E+02  0.95563095161E+02  0.00000000000E+00 0. -1.
</event>
<event>
 7    1  0.2873461E-009  0.1479341E+03  0.7561462E-02  0.1203035E+00
         -2   -1    0    0    0  501 -0.00000000000E+00  0.00000000000E+00  0.15219101698E+03  0.15219101698E+03  0.00000000000E+00 0.  1.
          2   -1    0    0  501    0  0.00000000000E+00 -0.00000000000E+00 -0.17902916035E+03  0.17902916035E+03  0.00000000000E+00 0. -1.
         25    2    1    2    0    0  0.11867325395E+03  0.12459279148E+02  0.21583886538E+02  0.17421744811E+03  0.12508908916E+03 0.  0.
          5    1    3    3  502    0 -0.16847196264E+02  0.45522095221E+01  0.33372782273E+02  0.37891498124E+02  0.41800000000E+01 0. -1.
         -5    1    3    3    0  502  0.13552045021E+03  0.79070696255E+01 -0.11788895734E+02  0.13632594998E+03  0.41800000000E+01 0. -1.
        -11    1    1    2    0    0  0.75195442440E+01  0.11422375213E+02  0.89442531285E+01  0.16340558900E+02  0.00000000000E+00 0.  1.
         11    1    1    2    0    0 -0.12619279819E+03 -0.23881654360E+02 -0.57366283043E+02  0.14066217033E+03  0.00000000000E+00 0. -1.
</event>
<event>
 7    1  0.2873461E-009  0.9879463E+02  0.7561462E-02  0.1282851E+00
          2   -1    0    0  501    0  0.00000000000E+00  0.00000000000E+00  0.99432965686E+03  0.99432965686E+03  0.00000000000E+00 0.  1.
         -2   -1    0    0    0  501 -0.00000000000E+00 -0.00000000000E+00 -0.19915288423E+02  0.19915288423E+02  0.00000000000E+00 0. -1.
         25    2    1    2    0    0 -0.19599102147E+02 -0.19237063660E+02  0.84378671788E+03  0.85345053047E+03  0.12509034043E+03 0.  0.
          5    1    3    3  502    0 -0.17244374091E+02 -0.63016698302E+02  0.70038645838E+03  0.70343950428E+03  0.41800000000E+01 0.  1.
         -5    1    3    3    0  502 -0.23547280562E+01  0.43779634643E+02  0.14340025949E+03  0.15001102618E+03  0.41800000000E+01 0.  1.
        -11    1    1    2    0    0 -0.32367785704E+02  0.15750888018E+02  0.27634950782E+02  0.45381213398E+02  0.00000000000E+00 0. -1.
         11    1    1    2    0    0  0.51966887851E+02  0.34861756418E+01  0.10299269977E+03  0.11541320141E+03  0.00000000000E+00 0.  1.
</event>
<event>
 7    1  0.2873461E-009  0.1044301E+03  0.7561462E-02  0.1271247E+00
          2   -1    0    0  501    0  0.00000000000E+00  0.00000000000E+00  0.55278351669E+03  0.55278351669E+03  0.00000000000E+00 0. -1.
         -2   -1    0    0    0  501 -0.00000000000E+00 -0.00000000000E+00 -0.25514947772E+02  0.25514947772E+02  0.00000000000E+00 0.  1.
         25    2    1    2    0    0 -0.34309620934E+02  0.68826072256E+01  0.38458927005E+03  0.40593173933E+03  0.12508856856E+03 0.  0.
          5    1    3    3  502    0 -0.13488475468E+02  0.58924829142E+02  0.10938929325E+03  0.12505024725E+03  0.41800000000E+01 0. -1.
         -5    1    3    3    0  502 -0.20821145466E+02 -0.52042221916E+02  0.27519997680E+03  0.28088149208E+03  0.41800000000E+01 0. -1.
        -11    1    1    2    0    0  0.46712398459E+02 -0.36933076757E+02  0.64971913938E+02  0.88133137521E+02  0.00000000000E+00 0.  1.
         11    1    1    2    0    0 -0.12402777525E+02  0.30050469532E+02  0.77707384933E+02  0.84233587615E+02  0.00000000000E+00 0. -1.
</event>
<event>
 7    1  0.2873461E-009  0.1780557E+03  0.7561462E-02  0.1169698E+00
         -1   -1    0    0    0  501 -0.00000000000E+00  0.00000000000E+00  0.10596231811E+03  0.10596231811E+03  0.00000000000E+00 0.  1.
          1   -1    0    0  501    0  0.00000000000E+00 -0.00000000000E+00 -0.33073821098E+03  0.33073821098E+03  0.00000000000E+00 0. -1.
         25    2    1    2    0    0  0.14798943193E+03  0.38696765197E+02 -0.10849120757E+03  0.22542113425E+03  0.12508410789E+03 0.  0.
          5    1    3    3  502    0  0.70820297799E+02 -0.44509421648E+02 -0.40075098310E+02  0.92844434946E+02  0.41800000000E+01 0.  1.
         -5    1    3    3    0  502  0.77169134131E+02  0.83206186845E+02 -0.68416109256E+02  0.13257669930E+03  0.41800000000E+01 0.  1.
        -11    1    1    2    0    0 -0.47387985419E+02 -0.33561909488E+02 -0.85310444867E+00  0.58075388227E+02  0.00000000000E+00 0.  1.
         11    1    1    2    0    0 -0.10060144651E+03 -0.51348557083E+01 -0.11543158085E+03  0.15320400661E+03  0.00000000000E+00 0. -1.
</event>
<event>
 7    1  0.2873461E-009  0.1389296E+03  0.7561462E-02  0.1214777E+00
          2   -1    0    0  501    0  0.00000000000E+00  0.00000000000E+00  0.22976802540E+03  0.22976802540E+03  0.00000000000E+00 0. -1.
         -2   -1    0    0    0  501 -0.00000000000E+00 -0.00000000000E+00 -0.10979838031E+03  0.10979838031E+03  0.00000000000E+00 0.  1.
         25    2    1    2    0    0 -0.82754016069E+02 -0.44898425638E+02 -0.64194991439E+01  0.15672218398E+03  0.12512608514E+03 0.  0.
          5    1    3    3  502    0 -0.20346828472E+02  0.37174139175E+02  0.24335856991E+02  0.49047083376E+02  0.41800000000E+01 0. -1.
         -5    1    3    3    0  502 -0.62407187597E+02 -0.82072564813E+02 -0.30755356135E+02  0.10767510060E+03  0.41800000000E+01 0. -1.
        -11    1    1    2    0    0  0.16943288050E+02  0.61848668910E+02  0.63664986748E+02  0.90363506979E+02  0.00000000000E+00 0.  1.
         11    1    1    2    0    0  0.65810728019E+02 -0.16950243272E+02  0.62724157481E+02  0.92480714752E+02  0.00000000000E+00 0. -1.
</event>
<event>
 6    1  0.2873461E-009  0.1088014E+03  0.7561462E-02  0.1262806E+00
          1   -1    0    0  501    0  0.00000000000E+00  0.00000000000E+00  0.97599757695E+03  0.97599757695E+03  0.00000000000E+00 0. -1.
         -1   -1    0    0    0  501 -0.00000000000E+00 -0.00000000000E+00 -0.16049971989E+02  0.16049971989E+02  0.00000000000E+00 0.  1.
          5    1    1    2  502    0  0.16199768172E+02 -0.71686550907E+02  0.22491783545E+03  0.23665776804E+03  0.41800000000E+01 0.  1.
         -5    1    1    2    0  502  0.20951048218E+02  0.35188096889E+02  0.44206253762E+03  0.44397512109E+03  0.41800000000E+01 0.  1.
        -11    1    1    2    0    0 -0.34444792734E+02  0.65336140181E+02  0.17508769802E+03  0.19002883191E+03  0.00000000000E+00 0. -1.
         11    1    1    2    0    0 -0.27060236565E+01 -0.28837686163E+02  0.11787953387E+03  0.12138582789E+03  0.00000000000E+00 0.  1.
</event>
<event>
 7    1  0.2873461E-009  0.1356744E+03  0.7561462E-02  0.1219271E+00
         -1   -1    0    0    0  501 -0.00000000000E+00  0.00000000000E+00  0.12126878595E+03  0.12126878595E+03  0.00000000000E+00 0.  1.
          1   -1    0    0  501    0  0.00000000000E+00 -0.00000000000E+00 -0.21526109803E+03  0.21526109803E+03  0.00000000000E+00 0. -1.
         25    2    1    2    0    0 -0.10716710004E+03 -0.22531571511E+02 -0.20363393970E+02  0.16749670667E+03  0.12509204565E+03 0.  0.
          5    1    3    3  502    0 -0.85973833667E+02  0.10178217499E+02  0.40049804228E+02  0.95480654614E+02  0.41800000000E+01 0. -1.
         -5    1    3    3    0  502 -0.21193266370E+02 -0.32709789010E+02 -0.60413198199E+02  0.72016052052E+02  0.41800000000E+01 0. -1.
        -11    1    1    2    0    0  0.19186152378E+02 -0.35308232872E+02  0.63182142033E+00  0.40189288995E+02  0.00000000000E+00 0.  1.
         11    1    1    2    0    0  0.87980947658E+02  0.57839804382E+02 -0.74260739530E+02  0.12884388832E+03  0.00000000000E+00 0. -1.
</event>
<event>
 7    1  0.2873461E-009  0.8992394E+02  0.7561462E-02  0.1303036E+00
          2   -1    0    0  501    0  0.00000000000E+00  0.00000000000E+00  0.79691907415E+03  0.79691907415E+03  0.00000000000E+00 0. -1.
         -2   -1    0    0    0  501 -0.00000000000E+00 -0.00000000000E+00 -0.21297436305E+02  0.21297436305E+02  0.00000000000E+00 0.  1.
         25    2    1    2    0    0  0.57176705425E+02  0.10378223748E+02  0.55787539519E+03  0.57467263427E+03  0.12508715701E+03 0.  0.
          5    1    3    3  502    0  0.63184335774E+02 -0.27124688890E+01  0.55595083203E+03  0.55955197954E+03  0.41800000000E+01 0.  1.
         -5    1    3    3    0  502 -0.60076303489E+01  0.13090692637E+02  0.19245631642E+01  0.15120654731E+02  0.41800000000E+01 0.  1.
        -11    1    1    2    0    0 -0.78970525767E+02 -0.56751679371E+01  0.12352552059E+03  0.14672118357E+03  0.00000000000E+00 0.  1.
         11    1    1    2    0    0  0.21793820342E+02 -0.47030558111E+01  0.94220722056E+02  0.96822692608E+02  0.00000000000E+00 0. -1.
</event>
<event>
 7    1  0.2873461E-009  0.3401053E+03  0.7561462E-02  0.1066751E+00
         -1   -1    0    0    0  501 -0.00000000000E+00  0.00000000000E+00  0.26452341357E+03  0.26452341357E+03  0.00000000000E+00 0.  1.
          1   -1    0    0  501    0  0.00000000000E+00 -0.00000000000E+00 -0.57780076478E+03  0.57780076478E+03  0.00000000000E+00 0. -1.
         25    2    1    2    0    0  0.20533246841E+03 -0.26093632427E+03  0.30498070898E+02  0.35612842414E+03  0.12509250276E+03 0.  0.
          5    1    3    3  502    0  0.19734651916E+03 -0.26188614826E+03  0.52696283156E+02  0.33215113117E+03  0.41800000000E+01 0.  1.
         -5    1    3    3    0  502  0.79859492514E+01  0.94982399246E+00 -0.22198212257E+02  0.23977292977E+02  0.41800000000E+01 0.  1.
        -11    1    1    2    0    0  0.78316481410E+01  0.20144535583E+02 -0.15126290132E+02  0.26380706579E+02  0.00000000000E+00 0.  1.
         11    1    1    2    0    0 -0.21316411655E+03  0.24079178869E+03 -0.32864913198E+03  0.45981504764E+03  0.00000000000E+00 0. -1.
</event>
<event>
 7    1  0.2873461E-009  0.8227072E+02  0.7561462E-02  0.1322728E+00
         -2   -1    0    0    0  501 -0.00000000000E+00  0.00000000000E+00  0.83683548349E+02  0.83683548349E+02  0.00000000000E+00 0.  1.
          2   -1    0    0  501    0  0.00000000000E+00 -0.00000000000E+00 -0.15821284912E+03  0.15821284912E+03  0.00000000000E+00 0. -1.
         25    2    1    2    0    0 -0.26396710868E+02 -0.22854841659E+02 -0.27651468871E+02  0.13278441040E+03  0.12509182940E+03 0.  0.
          5    1    3    3  502    0 -0.53508471090E+02  0.35961901074E+02 -0.87975453201E+01  0.65201871222E+02  0.41800000000E+01 0.  1.
         -5    1    3    3    0  502  0.27111760222E+02 -0.58816742733E+02 -0.18853923551E+02  0.67582539175E+02  0.41800000000E+01 0.  1.
        -11    1    1    2    0    0  0.17454171983E+02  0.13254789588E+02  0.26603501560E+02  0.34468592398E+02  0.00000000000E+00 0.  1.
         11    1    1    2    0    0  0.89425388850E+01  0.96000520706E+01 -0.73481333458E+02  0.74643394673E+02  0.00000000000E+00 0. -1.
</event>
<event>
 7    1  0.2873461E-009  0.1503101E+03  0.7561462E-02  0.1200092E+00
         -1   -1    0    0    0  501 -0.00000000000E+00  0.00000000000E+00  0.34733286695E+02  0.34733286695E+02  0.00000000000E+00 0.  1.
          1   -1    0    0  501    0  0.00000000000E+00 -0.00000000000E+00 -0.10032285127E+04  0.10032285127E+04  0.00000000000E+00 0. -1.
         25    2    1    2    0    0  0.11576535691E+03  0.82740773752E+02 -0.66627607667E+03  0.69268938037E+03  0.12508842406E+03 0.  0.
          5    1    3    3  502    0  0.34144474182E+02  0.15974610186E+02 -0.45445502678E+03  0.45603495157E+03  0.41800000000E+01 0. -1.
         -5    1    3    3    0  502  0.81620882725E+02  0.66766163566E+02 -0.21182104989E+03  0.23665442880E+03  0.41800000000E+01 0. -1.
        -11    1    1    2    0    0 -0.12181286815E+03 -0.64277635633E+02 -0.21076531901E+03  0.25177769755E+03  0.00000000000E+00 0.  1.
         11    1    1    2    0    0  0.60475112422E+01 -0.18463138119E+02 -0.91453830280E+02  0.93494721425E+02  0.00000000000E+00 0. -1.
</event>
<event>
 7    1  0.2873461E-009  0.1599455E+03  0.7561462E-02  0.1188758E+00
          2   -1    0    0  501    0  0.00000000000E+00  0.00000000000E+00  0.35513781066E+03  0.35513781066E+03  0.00000000000E+00 0. -1.
         -2   -1    0    0    0  501 -0.00000000000E+00 -0.00000000000E+00 -0.89498398263E+02  0.89498398263E+02  0.00000000000E+00 0.  1.
         25    2    1    2    0    0 -0.72456239538E+01 -0.13274555677E+03  0.20009016571E+03  0.27084712874E+03  0.12509280886E+03 0.  0.
          5    1    3    3  502    0 -0.60867053181E+02 -0.10227736193E+03  0.11397489330E+03  0.16484297264E+03  0.41800000000E+01 0. -1.
         -5    1    3    3    0  502  0.53621429227E+02 -0.30468194837E+02  0.86115272413E+02  0.10600415611E+03  0.41800000000E+01 0. -1.
        -11    1    1    2    0    0 -0.13529345469E+02  0.94473096233E+02  0.41448962429E+00  0.95437837896E+02  0.00000000000E+00 0.  1.
         11    1    1    2    0    0  0.20774969423E+02  0.38272460532E+02  0.65134757064E+02  0.78351242284E+02  0.00000000000E+00 0. -1.
</event>
<event>
 7    1  0.2873461E-009  0.7251616E+02  0.7561462E-02  0.1351740E+00
         -2   -1    0    0    0  501 -0.00000000000E+00  0.00000000000E+00  0.10523095439E+02  0.10523095439E+02  0.00000000000E+00 0.  1.
          2   -1    0    0  501    0  0.00000000000E+00 -0.00000000000E+00 -0.21262148463E+04  0.21262148463E+04  0.00000000000E+00 0. -1.
         25    2    1    2    0    0 -0.18378253547E+02 -0.16212709789E+02 -0.18568013142E+04  0.18611714671E+04  0.12508995778E+03 0.  0.
          5    1    3    3  502    0  0.21743466402E+02 -0.19583768529E+02 -0.11003792113E+03  0.11393910132E+03  0.41800000000E+01 0.  1.
         -5    1    3    3    0  502 -0.40121719949E+02  0.33710587400E+01 -0.17467633931E+04  0.17472323658E+04  0.41800000000E+01 0.  1.
        -11    1    1    2    0    0 -0.16995528972E+02  0.32017864750E+02 -0.21039392487E+03  0.21349378279E+03  0.00000000000E+00 0. -1.
         11    1    1    2    0    0  0.35373782519E+02 -0.15805154961E+02 -0.48496511839E+02  0.62072691851E+02  0.00000000000E+00 0.  1.
</event>
<event>
 7    1  0.2873461E-009  0.1380319E+03  0.7561462E-02  0.1216002E+00
          3   -1    0    0  501    0  0.00000000000E+00  0.00000000000E+00  0.19904150970E+03  0.19904150970E+03  0.00000000000E+00 0. -1.
         -3   -1    0    0    0  501 -0.00000000000E+00 -0.00000000000E+00 -0.11049094132E+03  0.11049094132E+03  0.00000000000E+00 0.  1.
         25    2    1    2    0    0  0.24476362221E+02  0.90186545519E+02  0.12714096501E+02  0.15665870213E+03  0.12509034897E+03 0.  0.
          5    1    3    3  502    0  0.10765011159E+02 -0.26440993938E+02  0.25439851868E+02  0.38466480067E+02  0.41800000000E+01 0. -1.
         -5    1    3    3    0  502  0.13711351062E+02  0.11662753946E+03 -0.12725755367E+02  0.11819222207E+03  0.41800000000E+01 0. -1.
        -11    1    1    2    0    0 -0.51374467513E+02 -0.21047380973E+02  0.48788376578E+02  0.73909632980E+02  0.00000000000E+00 0. -1.
         11    1    1    2    0    0  0.26898105292E+02 -0.69139164546E+02  0.27048095295E+02  0.78964115910E+02  0.00000000000E+00 0.  1.
</event>
<event>
 7    1  0.2873461E-009  0.9319980E+02  0.7561462E-02  0.1295283E+00
          2   -1    0    0  501    0  0.00000000000E+00  0.00000000000E+00  0.10362435622E+04  0.10362435622E+04  0.00000000000E+00 0. -1.
         -2   -1    0    0    0  501 -0.00000000000E+00 -0.00000000000E+00 -0.20981887622E+02  0.20981887622E+02  0.00000000000E+00 0.  1.
         25    2    1    2    0    0  0.55016760591E+02 -0.34235525459E+02  0.81927354982E+03  0.83129700417E+03  0.12508654826E+03 0.  0.
          5    1    3    3  502    0  0.61011987290E+02 -0.10745536916E+02  0.16091659639E+03  0.17248058601E+03  0.41800000000E+01 0. -1.
         -5    1    3    3    0  502 -0.59952266990E+01 -0.23489988543E+02  0.65835695344E+03  0.65881641816E+03  0.41800000000E+01 0. -1.
        -11    1    1    2    0    0 -0.49254329816E+02 -0.13939281359E+02  0.47937815582E+02  0.70130783064E+02  0.00000000000E+00 0. -1.
         11    1    1    2    0    0 -0.57624307749E+01  0.48174806819E+02  0.14805030915E+03  0.15579766256E+03  0.00000000000E+00 0.  1.
</event>
<event>
 7    1  0.2873461E-009  0.8643272E+02  0.7561462E-02  0.1311728E+00
          2   -1    0    0  501    0  0.00000000000E+00  0.00000000000E+00  0.63816445022E+03  0.63816445022E+03  0.00000000000E+00 0. -1.
         -2   -1    0    0    0  501 -0.00000000000E+00 -0.00000000000E+00 -0.29504812068E+02  0.29504812068E+02  0.00000000000E+00 0.  1.
         25    2    1    2    0    0 -0.34667347466E+02 -0.55936749071E+02  0.46536660379E+03  0.48635714866E+03  0.12508579155E+03 0.  0.
          5    1    3    3  502    0 -0.20272809466E+02 -0.53618284548E+02  0.46751824151E+03  0.47103788148E+03  0.41800000000E+01 0.  1.
         -5    1    3    3    0  502 -0.14394538000E+02 -0.23184645235E+01 -0.21516377211E+01  0.15319267177E+02  0.41800000000E+01 0.  1.
        -11    1    1    2    0    0 -0.23939515891E+02  0.21922354172E+02  0.88186435433E+02  0.93970939274E+02  0.00000000000E+00 0. -1.
         11    1    1    2    0    0  0.58606863357E+02  0.34014394900E+02  0.55106598927E+02  0.87341174358E+02  0.00000000000E+00 0.  1.
</event>
<event>
 7    1  0.2873461E-009  0.1318596E+03  0.7561462E-02  0.1224722E+00
         -1   -1    0    0    0  501 -0.00000000000E+00  0.00000000000E+00  0.14204002564E+03  0.14204002564E+03  0.00000000000E+00 0.  1.
          1   -1    0    0  501    0  0.00000000000E+00 -0.00000000000E+00 -0.15326710475E+03  0.15326710475E+03  0.00000000000E+00 0. -1.
         25    2    1    2    0    0  0.17715476716E+02 -0.80043559023E+02 -0.55297536766E+02  0.15945908644E+03  0.12509425734E+03 0.  0.
          5    1    3    3  502    0  0.63354122817E+02 -0.36524283335E+02  0.32328790104E+01  0.73319111136E+02  0.41800000000E+01 0. -1.
         -5    1    3    3    0  502 -0.45638646101E+02 -0.43519275688E+02 -0.58530415777E+02  0.86139975303E+02  0.41800000000E+01 0. -1.
        -11    1    1    2    0    0  0.23607460954E+02 -0.11922775639E+02  0.17048666515E+02  0.31466201258E+02  0.00000000000E+00 0. -1.
         11    1    1    2    0    0 -0.41322937670E+02  0.91966334662E+02  0.27021791139E+02  0.10438184270E+03  0.00000000000E+00 0.  1.
</event>
<event>
 7    1  0.2873461E-009  0.1854566E+03  0.7561462E-02  0.1162624E+00
          1   -1    0    0  501    0  0.00000000000E+00  0.00000000000E+00  0.18091727083E+03  0.18091727083E+03  0.00000000000E+00 0. -1.
         -1   -1    0    0    0  501 -0.00000000000E+00 -0.00000000000E+00 -0.21758194477E+03  0.21758194477E+03  0.00000000000E+00 0.  1.
         25    2    1    2    0    0 -0.15583299525E+03  0.55562804386E+02 -0.24317053130E+02  0.20882831449E+03  0.12508716249E+03 0.  0.
          5    1    3    3  502    0 -0.17636137414E+03  0.53618927722E+02 -0.12752692579E+02  0.18481998611E+03  0.41800000000E+01 0. -1.
         -5    1    3    3    0  502  0.20528378892E+02  0.19438766636E+01 -0.11564360551E+02  0.24008328376E+02  0.41800000000E+01 0. -1.
        -11    1    1    2    0    0  0.50686770281E+02 -0.16019610765E+02  0.39223711885E+02  0.66062668616E+02  0.00000000000E+00 0.  1.
         11    1    1    2    0    0  0.10514622497E+03 -0.39543193620E+02 -0.51571332699E+02  0.12360823250E+03  0.00000000000E+00 0. -1.
</event>
<event>
 7    1  0.2873461E-009  0.6167436E+02  0.7561462E-02  0.1390937E+00
          2   -1    0    0  501    0  0.00000000000E+00  0.00000000000E+00  0.53209336443E+03  0.53209336443E+03  0.00000000000E+00 0. -1.
         -2   -1    0    0    0  501 -0.00000000000E+00 -0.00000000000E+00 -0.26094616548E+02  0.26094616548E+02  0.00000000000E+00 0.  1.
         25    2    1    2    0    0  0.13088359741E+02  0.41371672048E+02  0.24225793249E+03  0.27607823332E+03  0.12508942662E+03 0.  0.
          5    1    3    3  502    0 -0.64361206180E+01  0.92851721751E+01 -0.13182425424E+02  0.17857402135E+02  0.41800000000E+01 0.  1.
         -5    1    3    3    0  502  0.19524480359E+02  0.32086499873E+02  0.25544035792E+03  0.25822083119E+03  0.41800000000E+01 0.  1.
        -11    1    1    2    0    0 -0.25429247585E+02  0.46606875147E+01  0.17309728013E+02  0.31112623238E+02  0.00000000000E+00 0.  1.
         11    1    1    2    0    0  0.12340887845E+02 -0.46032359562E+02  0.24643108737E+03  0.25099712441E+03  0.00000000000E+00 0. -1.
</event>
<event>
 6    1  0.2873461E-009  0.1822699E+03  0.7561462E-02  0.1165624E+00
          1   -1    0    0  501    0  0.00000000000E+00  0.00000000000E+00  0.30461635416E+03  0.30461635416E+03  0.00000000000E+00 0. -1.
         -1   -1    0    0    0  501 -0.00000000000E+00 -0.00000000000E+00 -0.13116182265E+03  0.13116182265E+03  0.00000000000E+00 0.  1.
          5    1    1    2  502    0 -0.46372017440E+02 -0.17378490320E+02  0.98661767098E+02  0.11047168241E+03  0.41800000000E+01 0. -1.
         -5    1    1    2    0  502 -0.12127220421E+03  0.20346361933E+02  0.18226800137E+02  0.12438090931E+03  0.41800000000E+01 0. -1.
        -11    1    1    2    0    0  0.73281577282E+02  0.44952984250E+02  0.15246698841E+02  0.87312210987E+02  0.00000000000E+00 0.  1.
         11    1    1    2    0    0  0.94362644364E+02 -0.47920855863E+02  0.41319265433E+02  0.11361337410E+03  0.00000000000E+00 0. -1.
</event>
<event>
 7    1  0.2873461E-009  0.1618765E+03  0.7561462E-02  0.1186594E+00
         -3   -1    0    0    0  501 -0.00000000000E+00  0.00000000000E+00  0.78752257565E+02  0.78752257565E+02  0.00000000000E+00 0.  1.
          3   -1    0    0  501    0  0.00000000000E+00 -0.00000000000E+00 -0.41576163640E+03  0.41576163640E+03  0.00000000000E+00 0. -1.
         25    2    1    2    0    0 -0.34110773857E+01 -0.13741556767E+03 -0.11758429538E+03  0.21992772864E+03  0.12508983018E+03 0.  0.
          5    1    3    3  502    0  0.58188769523E+02 -0.70910339063E+02 -0.79707872193E+02  0.12159369381E+03  0.41800000000E+01 0.  1.
         -5    1    3    3    0  502 -0.61599846909E+02 -0.66505228612E+02 -0.37876423191E+02  0.98334034828E+02  0.41800000000E+01 0.  1.
        -11    1    1    2    0    0  0.11852032064E+02  0.12795777683E+03 -0.22624367511E+03  0.26019197498E+03  0.00000000000E+00 0. -1.
         11    1    1    2    0    0 -0.84409546788E+01  0.94577908430E+01  0.68185916614E+01  0.14394190348E+02  0.00000000000E+00 0.  1.
</event>
<event>
 7    1  0.2873461E-009  0.1356596E+03  0.7561462E-02  0.1219291E+00
         -3   -1    0    0    0  501 -0.00000000000E+00  0.00000000000E+00  0.12783624570E+03  0.12783624570E+03  0.00000000000E+00 0.  1.
          3   -1    0    0  501    0  0.00000000000E+00 -0.00000000000E+00 -0.19169046944E+03  0.19169046944E+03  0.00000000000E+00 0. -1.
         25    2    1    2    0    0  0.47437508248E+02  0.76383247889E+02  0.30989910675E+02  0.15717095781E+03  0.12513040266E+03 0.  0.
          5    1    3    3  502    0  0.43823309728E+02 -0.26281195789E+02  0.10690258214E+02  0.52373063194E+02  0.41800000000E+01 0.  1.
         -5    1    3    3    0  502  0.36141985204E+01  0.10266444368E+03  0.20299652460E+02  0.10479789462E+03  0.41800000000E+01 0.  1.
        -11    1    1    2    0    0 -0.59434220887E+02 -0.84092502439E+02 -0.48421020859E+02  0.11379178723E+03  0.00000000000E+00 0.  1.
         11    1    1    2    0    0  0.11996712639E+02  0.77092545505E+01 -0.46423113560E+02  0.48563970106E+02  0.00000000000E+00 0. -1.
</event>
<event>
 7    1  0.2873461E-009  0.1274293E+03  0.7561462E-02  0.1231321E+00
         -2   -1    0    0    0  501 -0.00000000000E+00  0.00000000000E+00  0.27993974907E+03  0.27993974907E+03  0.00000000000E+00 0.  1.
          2   -1    0    0  501    0  0.00000000000E+00 -0.00000000000E+00 -0.76558521929E+02  0.76558521929E+02  0.00000000000E+00 0. -1.
         25    2    1    2    0    0 -0.86021572002E+02  0.43515046350E+02  0.91016031766E+02  0.18227665484E+03  0.12509033037E+03 0.  0.
          5    1    3    3  502    0 -0.26290301209E+02  0.69995953785E+02  0.62181282248E+01  0.75144866775E+02  0.41800000000E+01 0. -1.
         -5    1    3    3    0  502 -0.59731270793E+02 -0.26480907435E+02  0.84797903541E+02  0.10713178807E+03  0.41800000000E+01 0. -1.
        -11    1    1    2    0    0  0.80133554254E+02 -0.10330243126E+02  0.31689496528E+02  0.86788966065E+02  0.00000000000E+00 0. -1.
         11    1    1    2    0    0  0.58880177475E+01 -0.33184803225E+02  0.80675698844E+02  0.87432650091E+02  0.00000000000E+00 0.  1.
</event>
<event>
 7    1  0.2873461E-009  0.1526304E+03  0.7561462E-02  0.1197277E+00
          1   -1    0    0  501    0  0.00000000000E+00  0.00000000000E+00  0.10528066473E+04  0.10528066473E+04  0.00000000000E+00 0. -1.
         -1   -1    0    0    0  501 -0.00000000000E+00 -0.00000000000E+00 -0.49832063400E+02  0.49832063400E+02  0.00000000000E+00 0.  1.
         25    2    1    2    0    0 -0.13613064228E+03 -0.22770177670E+02  0.87258103302E+03  0.89224114231E+03  0.12508622660E+03 0.  0.
          5    1    3    3  502    0 -0.12564982118E+03 -0.10855555084E+02  0.40124354331E+03  0.42061808579E+03  0.41800000000E+01 0.  1.
         -5    1    3    3    0  502 -0.10480821094E+02 -0.11914622586E+02  0.47133748971E+03  0.47162305653E+03  0.41800000000E+01 0.  1.
        -11    1    1    2    0    0  0.75704848057E+00  0.27207226250E+02  0.36751381424E+02  0.45732595806E+02  0.00000000000E+00 0.  1.
         11    1    1    2    0    0  0.13537359380E+03 -0.44370485803E+01  0.93642169467E+02  0.16466497259E+03  0.00000000000E+00 0. -1.
</event>
<event>
 7    1  0.2873461E-009  0.7942449E+02  0.7561462E-02  0.1330693E+00
         -1   -1    0    0    0  501 -0.00000000000E+00  0.00000000000E+00  0.46796145670E+02  0.46796145670E+02  0.00000000000E+00 0.  1.
          1   -1    0    0  501    0  0.00000000000E+00 -0.00000000000E+00 -0.34991623212E+03  0.34991623212E+03  0.00000000000E+00 0. -1.
         25    2    1    2    0    0  0.43356420515E+02  0.83780870538E+00 -0.89086965540E+02  0.15957693607E+03  0.12509128656E+03 0.  0.
          5    1    3    3  502    0 -0.95740016395E+01  0.21840496058E+02 -0.98743195406E+02  0.10166788979E+03  0.41800000000E+01 0.  1.
         -5    1    3    3    0  502  0.52930422154E+02 -0.21002687353E+02  0.96562298662E+01  0.57909046277E+02  0.41800000000E+01 0.  1.
        -11    1    1    2    0    0 -0.36066804231E+02  0.29340645178E+02 -0.43074333642E+02  0.63380486315E+02  0.00000000000E+00 0.  1.
         11    1    1    2    0    0 -0.72896162835E+01 -0.30178453883E+02 -0.17095878726E+03  0.17375495540E+03  0.00000000000E+00 0. -1.
</event>
<event>
 7    1  0.2873461E-009  0.1496955E+03  0.7561462E-02  0.1200848E+00
         -1   -1    0    0    0  501 -0.00000000000E+00  0.00000000000E+00  0.26743099712E+03  0.26743099712E+03  0.00000000000E+00 0.  1.
          1   -1    0    0  501    0  0.00000000000E+00 -0.00000000000E+00 -0.16565280061E+03  0.16565280061E+03  0.00000000000E+00 0. -1.
         25    2    1    2    0    0 -0.10615444796E+03  0.10409364867E+03 -0.51127039696E+02  0.20091196625E+03  0.12508952586E+03 0.  0.
          5    1    3    3  502    0 -0.28899137274E+02  0.36189525527E+02  0.41579471398E+02  0.62379217170E+02  0.41800000000E+01 0.  1.
         -5    1    3    3    0  502 -0.77255310686E+02  0.67904123140E+02 -0.92706511094E+02  0.13853274908E+03  0.41800000000E+01 0.  1.
        -11    1    1    2    0    0  0.34414285511E+02 -0.47059101950E+02  0.12240643612E+03  0.13558111125E+03  0.00000000000E+00 0.  1.
         11    1    1    2    0    0  0.71740162450E+02 -0.57034546717E+02  0.30498800087E+02  0.96590720228E+02  0.00000000000E+00 0. -1.
</event>
<event>
 7    1  0.2873461E-009  0.2185630E+03  0.7561462E-02  0.1134959E+00
         -1   -1    0    0    0  501 -0.00000000000E+00  0.00000000000E+00  0.22077330650E+03  0.22077330650E+03  0.00000000000E+00 0.  1.
          1   -1    0    0  501    0  0.00000000000E+00 -0.00000000000E+00 -0.32204442144E+03  0.32204442144E+03  0.00000000000E+00 0. -1.
         25    2    1    2    0    0 -0.60637665590E+02 -0.19509789071E+03 -0.18619374744E+03  0.30341330749E+03  0.12510559590E+03 0.  0.
          5    1    3    3  502    0 -0.17277230401E+02  0.22776109173E+01 -0.65694245067E+02  0.68094760714E+02  0.41800000000E+01 0. -1.
         -5    1    3    3    0  502 -0.43360435189E+02 -0.19737550163E+03 -0.12049950238E+03  0.23531854678E+03  0.41800000000E+01 0. -1.
        -11    1    1    2    0    0  0.70580038592E+02  0.10550342753E+03  0.78021511373E+02  0.14899621238E+03  0.00000000000E+00 0. -1.
         11    1    1    2    0    0 -0.99423730014E+01  0.89594463186E+02  0.69011211298E+01  0.90408208075E+02  0.00000000000E+00 0.  1.
</event>
<event>
 7    1  0.2873461E-009  0.1445831E+03  0.7561462E-02  0.1207292E+00
         -2   -1    0    0    0  501 -0.00000000000E+00  0.00000000000E+00  0.49932750332E+02  0.49932750332E+02  0.00000000000E+00 0.  1.
          2   -1    0    0  501    0  0.00000000000E+00 -0.00000000000E+00 -0.60588316702E+03  0.60588316702E+03  0.00000000000E+00 0. -1.
         25    2    1    2    0    0  0.85566275315E+02 -0.97569185246E+02 -0.21027257245E+03  0.27695257497E+03  0.12508733219E+03 0.  0.
          5    1    3    3  502    0  0.97846189001E+02 -0.63089204659E+02 -0.20995741563E+03  0.24011187648E+03  0.41800000000E+01 0.  1.
         -5    1    3    3    0  502 -0.12279913686E+02 -0.34479980587E+02 -0.31515681932E+00  0.36840698490E+02  0.41800000000E+01 0.  1.
        -11    1    1    2    0    0 -0.71987583603E+02  0.53430415697E+02 -0.30299361267E+03  0.31597808600E+03  0.00000000000E+00 0. -1.
         11    1    1    2    0    0 -0.13578691712E+02  0.44138769549E+02 -0.42684231566E+02  0.62885256383E+02  0.00000000000E+00 0.  1.
</event>
<event>
 7    1  0.2873461E-009  0.1340136E+03  0.7561462E-02  0.1221619E+00
         -1   -1    0    0    0  501 -0.00000000000E+00  0.00000000000E+00  0.65911626370E+02  0.65911626370E+02  0.00000000000E+00 0.  1.
          1   -1    0    0  501    0  0.00000000000E+00 -0.00000000000E+00 -0.35223102079E+03  0.35223102079E+03  0.00000000000E+00 0. -1.
         25    2    1    2    0    0  0.92642758907E+02 -0.58736382510E+01 -0.22950500541E+03  0.27738191192E+03  0.12510394536E+03 0.  0.
          5    1    3    3  502    0  0.10065253446E+03 -0.47352248249E+02 -0.14486126575E+03  0.18268942723E+03  0.41800000000E+01 0.  1.
         -5    1    3    3    0  502 -0.80097755510E+01  0.41478609998E+02 -0.84643739667E+02  0.94692484689E+02  0.41800000000E+01 0.  1.
        -11    1    1    2    0    0  0.17299343473E+01  0.18914281345E+02 -0.39640430869E+02  0.43955733086E+02  0.00000000000E+00 0.  1.
         11    1    1    2    0    0 -0.94372693254E+02 -0.13040643094E+02 -0.17173958136E+02  0.96805002156E+02  0.00000000000E+00 0. -1.
</event>
<event>
 7    1  0.2873461E-009  0.1475947E+03  0.7561462E-02  0.1203460E+00
         -1   -1    0    0    0  501 -0.00000000000E+00  0.00000000000E+00  0.28283828160E+02  0.28283828160E+02  0.00000000000E+00 0.  1.
          1   -1    0    0  501    0  0.00000000000E+00 -0.00000000000E+00 -0.81706188151E+03  0.81706188151E+03  0.00000000000E+00 0. -1.
         25    2    1    2    0    0  0.10265631234E+03 -0.19377249868E+02 -0.47471824479E+03  0.50191535021E+03  0.12509120897E+03 0.  0.
          5    1    3    3  502    0  0.12413745129E+03  0.42462323874E+01 -0.42398985849E+03  0.44182916360E+03  0.41800000000E+01 0.  1.
         -5    1    3    3    0  502 -0.21481138954E+02 -0.23623482255E+02 -0.50728386304E+02  0.60086186613E+02  0.41800000000E+01 0.  1.
        -11    1    1    2    0    0 -0.70039892165E+02 -0.32669622450E+02 -0.18528390521E+03  0.20075611138E+03  0.00000000000E+00 0.  1.
         11    1    1    2    0    0 -0.32616420174E+02  0.52046872318E+02 -0.12877590334E+03  0.14267424808E+03  0.00000000000E+00 0. -1.
</event>
<event>
 7    1  0.2873461E-009  0.1071597E+03  0.7561462E-02  0.1265922E+00
         -2   -1    0    0    0  501 -0.00000000000E+00  0.00000000000E+00  0.14413758480E+02  0.14413758480E+02  0.00000000000E+00 0.  1.
          2   -1    0    0  501    0  0.00000000000E+00 -0.00000000000E+00 -0.23434587545E+04  0.23434587545E+04  0.00000000000E+00 0. -1.
         25    2    1    2    0    0 -0.51739351429E+02  0.33032957630E+02 -0.20886879020E+04  0.20933305647E+04  0.12509022456E+03 0.  0.
          5    1    3    3  502    0  0.27027011003E+02 -0.19029592699E+02 -0.24933286252E+03  0.25154906769E+03  0.41800000000E+01 0. -1.
         -5    1    3    3    0  502 -0.78766362433E+02  0.52062550329E+02 -0.18393550395E+04  0.18417814970E+04  0.41800000000E+01 0. -1.
        -11    1    1    2    0    0 -0.34041943233E+01 -0.31129941777E+02 -0.19485698029E+02  0.36882980380E+02  0.00000000000E+00 0.  1.
         11    1    1    2    0    0  0.55143545753E+02 -0.19030158522E+01 -0.22087139598E+03  0.22765896791E+03  0.00000000000E+00 0. -1.
</event>
<event>
 7    1  0.2873461E-009  0.1038014E+03  0.7561462E-02  0.1272499E+00
         -2   -1    0    0    0  501 -0.00000000000E+00  0.00000000000E+00  0.12039981824E+03  0.12039981824E+03  0.00000000000E+00 0.  1.
          2   -1    0    0  501    0  0.00000000000E+00 -0.00000000000E+00 -0.15414454053E+03  0.15414454053E+03  0.00000000000E+00 0. -1.
         25    2    1    2    0    0  0.24548905280E+02 -0.29399295711E+02  0.53367780485E+02  0.14128959875E+03  0.12509062068E+03 0.  0.
          5    1    3    3  502    0 -0.51201716227E+02 -0.15807757436E+02  0.21942360193E+02  0.58055495094E+02  0.41800000000E+01 0. -1.
         -5    1    3    3    0  502  0.75750621507E+02 -0.13591538275E+02  0.31425420291E+02  0.83234103659E+02  0.41800000000E+01 0. -1.
        -11    1    1    2    0    0  0.17968833510E+02  0.29171381632E+02  0.22061294670E+01  0.34332426236E+02  0.00000000000E+00 0.  1.
         11    1    1    2    0    0 -0.42517738790E+02  0.22791407882E+00 -0.89318632241E+02  0.98922333788E+02  0.00000000000E+00 0. -1.
</event>
<event>
 7    1  0.2873461E-009  0.3356718E+03  0.7561462E-02  0.1068654E+00
         -2   -1    0    0    0  501 -0.00000000000E+00  0.00000000000E+00  0.30922688962E+03  0.30922688962E+03  0.00000000000E+00 0.  1.
          2   -1    0    0  501    0  0.00000000000E+00 -0.00000000000E+00 -0.66177566492E+03  0.66177566492E+03  0.00000000000E+00 0. -1.
         25    2    1    2    0    0 -0.12000064505E+03  0.30311281722E+03  0.13767731991E+03  0.37534005451E+03  0.12509027672E+03 0.  0.
          5    1    3    3  502    0 -0.49110406174E+02  0.25366331652E+03  0.12768094471E+03  0.28823047407E+03  0.41800000000E+01 0. -1.
         -5    1    3    3    0  502 -0.70890238877E+02  0.49449500703E+02  0.99963751980E+01  0.87109580442E+02  0.41800000000E+01 0. -1.
        -11    1    1    2    0    0  0.64895672730E+02 -0.18539595561E+03 -0.21457521319E+03  0.29090484838E+03  0.00000000000E+00 0.  1.
         11    1    1    2    0    0  0.55104972320E+02 -0.11771686161E+03 -0.27565088201E+03  0.30475765164E+03  0.00000000000E+00 0. -1.
</event>
<event>
 7    1  0.2873461E-009  0.1294852E+03  0.7561462E-02  0.1228222E+00
         -2   -1    0    0    0  501 -0.00000000000E+00  0.00000000000E+00  0.31645607135E+02  0.31645607135E+02  0.00000000000E+00 0.  1.
          2   -1    0    0  501    0  0.00000000000E+00 -0.00000000000E+00 -0.57587440593E+03  0.57587440593E+03  0.00000000000E+00 0. -1.
         25    2    1    2    0    0  0.16486963289E+02 -0.66562164011E+02 -0.21496669929E+03  0.25799207512E+03  0.12508751889E+03 0.  0.
          5    1    3    3  502    0 -0.50241537458E+02 -0.43112777644E+01 -0.64706113912E+02  0.82141054167E+02  0.41800000000E+01 0. -1.
         -5    1    3    3    0  502  0.66728500747E+02 -0.62250886247E+02 -0.15026058538E+03  0.17585102095E+03  0.41800000000E+01 0. -1.
        -11    1    1    2    0    0 -0.13589717753E+02 -0.23373028163E+02 -0.66506042051E+02  0.71791590757E+02  0.00000000000E+00 0.  1.
         11    1    1    2    0    0 -0.28972455359E+01  0.89935192174E+02 -0.26275605745E+03  0.27773634719E+03  0.00000000000E+00 0. -1.
</event>
<event>
 7    1  0.2873461E-009  0.1911148E+03  0.7561462E-02  0.1157460E+00
          1   -1    0    0  501    0  0.00000000000E+00  0.00000000000E+00  0.17118151602E+03  0.17118151602E+03  0.00000000000E+00 0. -1.
         -1   -1    0    0    0  501 -0.00000000000E+00 -0.00000000000E+00 -0.26629314243E+03  0.26629314243E+03  0.00000000000E+00 0.  1.
         25    2    1    2    0    0 -0.16562661939E+03  0.29985770728E+02 -0.12997930312E+03  0.24672576408E+03  0.12509060685E+03 0.  0.
          5    1    3    3  502    0  0.16408795923E+01 -0.31173804368E+02 -0.17295106367E+02  0.35931764066E+02  0.41800000000E+01 0. -1.
         -5    1    3    3    0  502 -0.16726749899E+03  0.61159575096E+02 -0.11268419675E+03  0.21079400001E+03  0.41800000000E+01 0. -1.
        -11    1    1    2    0    0  0.70595927445E+02 -0.32057707164E+02 -0.21215344370E+02  0.80383906332E+02  0.00000000000E+00 0.  1.
         11    1    1    2    0    0  0.95030691949E+02  0.20719364369E+01  0.56083021074E+02  0.11036498804E+03  0.00000000000E+00 0. -1.
</event>
<event>
 7    1  0.2873461E-009  0.1049691E+03  0.7561462E-02  0.1270181E+00
         -2   -1    0    0    0  501 -0.00000000000E+00  0.00000000000E+00  0.17724479157E+03  0.17724479157E+03  0.00000000000E+00 0. -1.
          2   -1    0    0  501    0  0.00000000000E+00 -0.00000000000E+00 -0.73836844568E+02  0.73836844568E+02  0.00000000000E+00 0.  1.
         25    2    1    2    0    0 -0.11960995341E+02 -0.10993282478E+02  0.22236209968E+02  0.12808710195E+03  0.12509172228E+03 0.  0.
          5    1    3    3  502    0 -0.11681948783E+01 -0.64338481183E+02  0.33017796739E+02  0.72446201707E+02  0.41800000000E+01 0. -1.
         -5    1    3    3    0  502 -0.10792800463E+02  0.53345198706E+02 -0.10781586772E+02  0.55640900245E+02  0.41800000000E+01 0. -1.
        -11    1    1    2    0    0 -0.27955758069E+02  0.34607732609E+02  0.50942176711E+02  0.67633755874E+02  0.00000000000E+00 0. -1.
         11    1    1    2    0    0  0.39916753410E+02 -0.23614450131E+02  0.30229560321E+02  0.55360778309E+02  0.00000000000E+00 0.  1.
</event>
<event>
 7    1  0.2873461E-009  0.1259692E+03  0.7561462E-02  0.1233562E+00
          2   -1    0    0  501    0  0.00000000000E+00  0.00000000000E+00  0.19423882465E+03  0.19423882465E+03  0.00000000000E+00 0. -1.
         -2   -1    0    0    0  501 -0.00000000000E+00 -0.00000000000E+00 -0.12654374558E+03  0.12654374558E+03  0.00000000000E+00 0.  1.
         25    2    1    2    0    0 -0.30736435236E+02  0.75472866731E+02 -0.43452862382E+02  0.15549103333E+03  0.12509367744E+03 0.  0.
          5    1    3    3  502    0  0.29681460593E+02  0.82370852333E+02 -0.32924191430E+02  0.93634508587E+02  0.41800000000E+01 0.  1.
         -5    1    3    3    0  502 -0.60417895829E+02 -0.68979856018E+01 -0.10528670952E+02  0.61856524747E+02  0.41800000000E+01 0.  1.
        -11    1    1    2    0    0  0.39360798677E+02 -0.83014223667E+02  0.53080127414E+02  0.10610435302E+03  0.00000000000E+00 0.  1.
         11    1    1    2    0    0 -0.86243634408E+01  0.75413569357E+01  0.58067814036E+02  0.59187183884E+02  0.00000000000E+00 0. -1.
</event>
<event>
 7    1  0.2873461E-009  0.2691774E+03  0.7561462E-02  0.1101751E+00
          1   -1    0    0  501    0  0.00000000000E+00  0.00000000000E+00  0.10164521549E+04  0.10164521549E+04  0.00000000000E+00 0. -1.
         -1   -1    0    0    0  501 -0.00000000000E+00 -0.00000000000E+00 -0.73696445900E+02  0.73696445900E+02  0.00000000000E+00 0.  1.
         25    2    1    2    0    0  0.12289722329E+03 -0.21752521060E+03  0.45674814113E+03  0.53543156868E+03  0.12508859092E+03 0.  0.
          5    1    3    3  502    0  0.35641080507E+02 -0.18133307720E+03  0.30190051456E+03  0.35399627766E+03  0.41800000000E+01 0.  1.
         -5    1    3    3    0  502  0.87256142779E+02 -0.36192133393E+02  0.15484762657E+03  0.18143529102E+03  0.41800000000E+01 0.  1.
        -11    1    1    2    0    0 -0.56820168100E+02  0.16508870487E+03  0.38756864085E+03  0.42507912598E+03  0.00000000000E+00 0. -1.
         11    1    1    2    0    0 -0.66077055186E+02  0.52436505729E+02  0.98438927042E+02  0.12963790616E+03  0.00000000000E+00 0.  1.
</event>
<event>
 7    1  0.2873461E-009  0.1149197E+03  0.7561462E-02  0.1251721E+00
          1   -1    0    0  501    0  0.00000000000E+00  0.00000000000E+00  0.21590678764E+03  0.21590678764E+03  0.00000000000E+00 0. -1.
         -1   -1    0    0    0  501 -0.00000000000E+00 -0.00000000000E+00 -0.12342898469E+03  0.12342898469E+03  0.00000000000E+00 0.  1.
         25    2    1    2    0    0  0.17543228316E+01  0.52383447879E+02  0.16211520016E+03  0.21136840127E+03  0.12509260438E+03 0.  0.
          5    1    3    3  502    0 -0.30279392433E+02 -0.32553527023E+02  0.57295466730E+02  0.72641700390E+02  0.41800000000E+01 0. -1.
         -5    1    3    3    0  502  0.32033715265E+02  0.84936974902E+02  0.10481973343E+03  0.13872670088E+03  0.41800000000E+01 0. -1.
        -11    1    1    2    0    0  0.33324742091E+02 -0.48740554144E+02 -0.11778832199E+02  0.60207316347E+02  0.00000000000E+00 0. -1.
         11    1    1    2    0    0 -0.35079064923E+02 -0.36428937348E+01 -0.57858565005E+02  0.67760054715E+02  0.00000000000E+00 0.  1.
</event>
<event>
 7    1  0.2873461E-009  0.1619777E+03  0.7561462E-02  0.1186482E+00
         -1   -1    0    0    0  501 -0.00000000000E+00  0.00000000000E+00  0.37150400862E+03  0.37150400862E+03  0.00000000000E+00 0.  1.
          1   -1    0    0  501    0  0.00000000000E+00 -0.00000000000E+00 -0.90694862020E+02  0.90694862020E+02  0.00000000000E+00 0. -1.
         25    2    1    2    0    0  0.15059513067E+03  0.13456750061E+02  0.16021063035E+03  0.25333004591E+03  0.12509471845E+03 0.  0.
          5    1    3    3  502    0  0.76785461458E+02  0.25430586479E+02  0.15898618361E+03  0.17842869948E+03  0.41800000000E+01 0.  1.
         -5    1    3    3    0  502  0.73809669207E+02 -0.11973836418E+02  0.12244467350E+01  0.74901346429E+02  0.41800000000E+01 0.  1.
        -11    1    1    2    0    0 -0.12697456760E+03  0.18515845368E+02  0.10628485268E+03  0.16661886824E+03  0.00000000000E+00 0. -1.
         11    1    1    2    0    0 -0.23620563069E+02 -0.31972595429E+02  0.14313663581E+02  0.42249956488E+02  0.00000000000E+00 0.  1.
</event>
<event>
 7    1  0.2873461E-009  0.1560065E+03  0.7561462E-02  0.1193281E+00
         -3   -1    0    0    0  501 -0.00000000000E+00  0.00000000000E+00  0.99462277405E+02  0.99462277405E+02  0.00000000000E+00 0.  1.
          3   -1    0    0  501    0  0.00000000000E+00 -0.00000000000E+00 -0.32826239122E+03  0.32826239122E+03  0.00000000000E+00 0. -1.
         25    2    1    2    0    0 -0.20444107409E+02 -0.14671460481E+03 -0.12904938798E+03  0.23290615169E+03  0.12509354167E+03 0.  0.
          5    1    3    3  502    0 -0.19819295271E+01 -0.33697636720E+02  0.24060486969E+02  0.41663391585E+02  0.41800000000E+01 0.  1.
         -5    1    3    3    0  502 -0.18462177882E+02 -0.11301696809E+03 -0.15310987494E+03  0.19124276011E+03  0.41800000000E+01 0.  1.
        -11    1    1    2    0    0 -0.87545002664E+01  0.12891486905E+03 -0.60239136096E+02  0.14256380415E+03  0.00000000000E+00 0. -1.
         11    1    1    2    0    0  0.29198607676E+02  0.17799735765E+02 -0.39511589741E+02  0.52254712777E+02  0.00000000000E+00 0.  1.
</event>
<event>
 7    1  0.2873461E-009  0.8880196E+02  0.7561462E-02  0.1305779E+00
          1   -1    0    0  501    0  0.00000000000E+00  0.00000000000E+00  0.16857914933E+03  0.16857914933E+03  0.00000000000E+00 0. -1.
         -1   -1    0    0    0  501 -0.00000000000E+00 -0.00000000000E+00 -0.13120928849E+03  0.13120928849E+03  0.00000000000E+00 0.  1.
         25    2    1    2    0    0 -0.49672166264E+02  0.65147443616E+02  0.78810267894E+02  0.16902253878E+03  0.12508415878E+03 0.  0.
          5    1    3    3  502    0 -0.58930427143E+00  0.39642589666E+02  0.10153150967E+03  0.10907796318E+03  0.41800000000E+01 0.  1.
         -5    1    3    3    0  502 -0.49082861993E+02  0.25504853950E+02 -0.22721241775E+02  0.59944575603E+02  0.41800000000E+01 0.  1.
        -11    1    1    2    0    0  0.93147937617E+01 -0.17492160247E+02 -0.61944954167E+02  0.65037822839E+02  0.00000000000E+00 0.  1.
         11    1    1    2    0    0  0.40357372503E+02 -0.47655283368E+02  0.20504547114E+02  0.65728076197E+02  0.00000000000E+00 0. -1.
</event>
<event>
 7    1  0.2873461E-009  0.9751311E+02  0.7561462E-02  0.1285614E+00
         -1   -1    0    0    0  501 -0.00000000000E+00  0.00000000000E+00  0.73975098478E+03  0.73975098478E+03  0.00000000000E+00 0.  1.
          1   -1    0    0  501    0  0.00000000000E+00 -0.00000000000E+00 -0.21946833323E+02  0.21946833323E+02  0.00000000000E+00 0. -1.
         25    2    1    2    0    0  0.43661076423E+02  0.88310674725E+01  0.25103716160E+03  0.28398783502E+03  0.12508060036E+03 0.  0.
          5    1    3    3  502    0  0.21367085431E+02 -0.38475084849E+02  0.21698470646E+03  0.22144236210E+03  0.41800000000E+01 0.  1.
         -5    1    3    3    0  502  0.22293990992E+02  0.47306152322E+02  0.34052455139E+02  0.62545472921E+02  0.41800000000E+01 0.  1.
        -11    1    1    2    0    0 -0.32429556909E+02  0.38138026891E+02  0.17688474532E+03  0.18383252809E+03  0.00000000000E+00 0. -1.
         11    1    1    2    0    0 -0.11231519514E+02 -0.46969094364E+02  0.28988224454E+03  0.29387745499E+03  0.00000000000E+00 0.  1.
</event>
<event>
 7    1  0.2873461E-009  0.5067003E+02  0.7561462E-02  0.1441761E+00
          2   -1    0    0  501    0  0.00000000000E+00  0.00000000000E+00  0.19031544961E+03  0.19031544961E+03  0.00000000000E+00 0. -1.
         -2   -1    0    0    0  501 -0.00000000000E+00 -0.00000000000E+00 -0.81458326994E+02  0.81458326994E+02  0.00000000000E+00 0.  1.
         25    2    1    2    0    0  0.15161658470E+02  0.40080779423E+02  0.13943569000E+02  0.13296452402E+03  0.12509515085E+03 0.  0.
          5    1    3    3  502    0  0.12386527560E+02  0.39101325489E+02  0.67537533172E+02  0.79127305697E+02  0.41800000000E+01 0. -1.
         -5    1    3    3    0  502  0.27751309103E+01  0.97945393425E+00 -0.53593964172E+02  0.53837218327E+02  0.41800000000E+01 0. -1.
        -11    1    1    2    0    0 -0.19212284787E+01 -0.41624758906E+02  0.11062046339E+03  0.11820828479E+03  0.00000000000E+00 0. -1.
         11    1    1    2    0    0 -0.13240429991E+02  0.15439794829E+01 -0.15706909776E+02  0.20600967786E+02  0.00000000000E+00 0.  1.
</event>
<event>
 7    1  0.2873461E-009  0.9464712E+02  0.7561462E-02  0.1291973E+00
         -2   -1    0    0    0  501 -0.00000000000E+00  0.00000000000E+00  0.10541466848E+03  0.10541466848E+03  0.00000000000E+00 0.  1.
          2   -1    0    0  501    0  0.00000000000E+00 -0.00000000000E+00 -0.15090983337E+03  0.15090983337E+03  0.00000000000E+00 0. -1.
         25    2    1    2    0    0 -0.24870166847E+02  0.35946012269E+02 -0.76621308820E+02  0.15306591869E+03  0.12509080502E+03 0.  0.
          5    1    3    3  502    0  0.18829414799E+02  0.43328398843E+02 -0.93993111991E+02  0.10528093137E+03  0.41800000000E+01 0. -1.
         -5    1    3    3    0  502 -0.43699581647E+02 -0.73823865740E+01  0.17371803171E+02  0.47784987318E+02  0.41800000000E+01 0. -1.
        -11    1    1    2    0    0 -0.32632463969E+02 -0.17084964824E+02  0.43769332387E+01  0.37093547583E+02  0.00000000000E+00 0. -1.
         11    1    1    2    0    0  0.57502630816E+02 -0.18861047446E+02  0.26749210685E+02  0.66165035584E+02  0.00000000000E+00 0.  1.
</event>
<event>
 7    1  0.2873461E-009  0.1028904E+03  0.7561462E-02  0.1274333E+00
          1   -1    0    0  501    0  0.00000000000E+00  0.00000000000E+00  0.14530438811E+03  0.14530438811E+03  0.00000000000E+00 0. -1.
         -1   -1    0    0    0  501 -0.00000000000E+00 -0.00000000000E+00 -0.14049698406E+03  0.14049698406E+03  0.00000000000E+00 0.  1.
         25    2    1    2    0    0 -0.55497415811E+02  0.31394711930E+02 -0.61337583450E+02  0.15321427008E+03  0.12508685908E+03 0.  0.
          5    1    3    3  502    0 -0.90213457665E+02  0.38428456002E+02 -0.22909402245E+02  0.10078455877E+03  0.41800000000E+01 0. -1.
         -5    1    3    3    0  502  0.34716041854E+02 -0.70337440718E+01 -0.38428181205E+02  0.52429711313E+02  0.41800000000E+01 0. -1.
        -11    1    1    2    0    0  0.33811977589E+02 -0.36431976356E+02  0.88205168853E+02  0.10124569394E+03  0.00000000000E+00 0. -1.
         11    1    1    2    0    0  0.21685438222E+02  0.50372644265E+01 -0.22060181353E+02  0.31341408155E+02  0.00000000000E+00 0.  1.
</event>
<event>
 7    1  0.2873461E-009  0.9766381E+02  0.7561462E-02  0.1285287E+00
          1   -1    0    0  501    0  0.00000000000E+00  0.00000000000E+00  0.31853817802E+02  0.31853817802E+02  0.00000000000E+00 0. -1.
         -1   -1    0    0    0  501 -0.00000000000E+00 -0.00000000000E+00 -0.38320558438E+03  0.38320558438E+03  0.00000000000E+00 0.  1.
         25    2    1    2    0    0 -0.79318425277E+01 -0.19986140093E+02 -0.21507541716E+03  0.24973414707E+03  0.12508936496E+03 0.  0.
          5    1    3    3  502    0 -0.62696845044E+02  0.20847174343E+01 -0.76324461135E+02  0.98884458803E+02  0.41800000000E+01 0. -1.
         -5    1    3    3    0  502  0.54765002516E+02 -0.22070857527E+02 -0.13875095603E+03  0.15084968827E+03  0.41800000000E+01 0. -1.
        -11    1    1    2    0    0 -0.24110203399E+01 -0.26008954962E+02 -0.60272463288E+01  0.26806835986E+02  0.00000000000E+00 0. -1.
         11    1    1    2    0    0  0.10342862868E+02  0.45995095055E+02 -0.13024910309E+03  0.13851841913E+03  0.00000000000E+00 0.  1.
</event>
<event>
 7    1  0.2873461E-009  0.1702340E+03  0.7561462E-02  0.1177604E+00
         -2   -1    0    0    0  501 -0.00000000000E+00  0.00000000000E+00  0.14694551480E+03  0.14694551480E+03  0.00000000000E+00 0.  1.
          2   -1    0    0  501    0  0.00000000000E+00 -0.00000000000E+00 -0.21513561868E+03  0.21513561868E+03  0.00000000000E+00 0. -1.
         25    2    1    2    0    0  0.12783084167E+03  0.53997894654E+02 -0.59635435815E+02  0.19611162063E+03  0.12508751270E+03 0.  0.
          5    1    3    3  502    0  0.12410253629E+03 -0.22743618013E+01 -0.17133191438E+02  0.12536997601E+03  0.41800000000E+01 0. -1.
         -5    1    3    3    0  502  0.37283053798E+01  0.56272256455E+02 -0.42502244377E+02  0.70741644628E+02  0.41800000000E+01 0. -1.
        -11    1    1    2    0    0 -0.36876381314E+02  0.20466660282E+02  0.17342960699E+02  0.45601863643E+02  0.00000000000E+00 0.  1.
         11    1    1    2    0    0 -0.90954460356E+02 -0.74464554936E+02 -0.25897628767E+02  0.12036764921E+03  0.00000000000E+00 0. -1.
</event>
<event>
 7    1  0.2873461E-009  0.1097532E+03  0.7561462E-02  0.1261028E+00
         -2   -1    0    0    0  501 -0.00000000000E+00  0.00000000000E+00  0.16598439605E+02  0.16598439605E+02  0.00000000000E+00 0.  1.
          2   -1    0    0  501    0  0.00000000000E+00 -0.00000000000E+00 -0.15603961563E+04  0.15603961563E+04  0.00000000000E+00 0. -1.
         25    2    1    2    0    0 -0.35546852463E+02  0.22977482779E+02 -0.13631598013E+04  0.13695414200E+04  0.12509002229E+03 0.  0.
          5    1    3    3  502    0 -0.77237248509E+02  0.30093973805E+02 -0.10830830884E+04  0.10862585735E+04  0.41800000000E+01 0.  1.
         -5    1    3    3    0  502  0.41690396046E+02 -0.71164910257E+01 -0.28007671295E+03  0.28328284647E+03  0.41800000000E+01 0.  1.
        -11    1    1    2    0    0  0.57141233255E+01  0.31437374769E+02 -0.10424159537E+03  0.10902875742E+03  0.00000000000E+00 0.  1.
         11    1    1    2    0    0  0.29832729137E+02 -0.54414857548E+02 -0.76396320032E+02  0.98424418536E+02  0.00000000000E+00 0. -1.
</event>
<event>
 7    1  0.2873461E-009  0.7834254E+02  0.7561462E-02  0.1333822E+00
          2   -1    0    0  501    0  0.00000000000E+00  0.00000000000E+00  0.12293068205E+03  0.12293068205E+03  0.00000000000E+00 0. -1.
         -2   -1    0    0    0  501 -0.00000000000E+00 -0.00000000000E+00 -0.10657465507E+03  0.10657465507E+03  0.00000000000E+00 0.  1.
         25    2    1    2    0    0  0.31449836038E+02  0.20144129124E+02  0.18508545708E+01  0.13056358404E+03  0.12509414731E+03 0.  0.
          5    1    3    3  502    0  0.47439009973E+02 -0.24913323987E+02  0.41826069041E+02  0.68103053020E+02  0.41800000000E+01 0. -1.
         -5    1    3    3    0  502 -0.15989173934E+02  0.45057453111E+02 -0.39975214470E+02  0.62460531024E+02  0.41800000000E+01 0. -1.
        -11    1    1    2    0    0 -0.14207060428E+02 -0.31324927087E+02  0.48355930553E+02  0.59341281101E+02  0.00000000000E+00 0. -1.
         11    1    1    2    0    0 -0.17242775610E+02  0.11180797963E+02 -0.33850758142E+02  0.39600471975E+02  0.00000000000E+00 0.  1.
</event>
<event>
 7    1  0.2873461E-009  0.1632902E+03  0.7561462E-02  0.1185031E+00
          1   -1    0    0  501    0  0.00000000000E+00  0.00000000000E+00  0.11403265053E+04  0.11403265053E+04  0.00000000000E+00 0. -1.
         -1   -1    0    0    0  501 -0.00000000000E+00 -0.00000000000E+00 -0.24907941041E+02  0.24907941041E+02  0.00000000000E+00 0.  1.
         25    2    1    2    0    0 -0.11640955487E+03  0.48327135075E+02  0.67296968420E+03  0.69600477728E+03  0.12509099762E+03 0.  0.
          5    1    3    3  502    0 -0.11790862631E+03 -0.70461018035E+01  0.38530465550E+03  0.40302511293E+03  0.41800000000E+01 0. -1.
         -5    1    3    3    0  502  0.14990714355E+01  0.55373236879E+02  0.28766502871E+03  0.29297966434E+03  0.41800000000E+01 0. -1.
        -11    1    1    2    0    0 -0.78375553628E+01 -0.25283652802E+02  0.12041437588E+03  0.12328954656E+03  0.00000000000E+00 0. -1.
         11    1    1    2    0    0  0.12424711023E+03 -0.23043482274E+02  0.32203450418E+03  0.34594012250E+03  0.00000000000E+00 0.  1.
</event>
<event>
 7    1  0.2873461E-009  0.2503246E+03  0.7561462E-02  0.1113100E+00
         -1   -1    0    0    0  501 -0.00000000000E+00  0.00000000000E+00  0.26438502490E+03  0.26438502490E+03  0.00000000000E+00 0.  1.
          1   -1    0    0  501    0  0.00000000000E+00 -0.00000000000E+00 -0.27977902781E+03  0.27977902781E+03  0.00000000000E+00 0. -1.
         25    2    1    2    0    0  0.12190709797E+03 -0.19307861869E+03 -0.10719730585E+03  0.28156602808E+03  0.12508985672E+03 0.  0.
          5    1    3    3  502    0  0.93204106460E+02 -0.20526414549E+03 -0.77828132497E+02  0.23852686535E+03  0.41800000000E+01 0. -1.
         -5    1    3    3    0  502  0.28702991512E+02  0.12185526796E+02 -0.29369173355E+02  0.43039162731E+02  0.41800000000E+01 0. -1.
        -11    1    1    2    0    0  0.97522164725E+00  0.69271400908E+02  0.10228680146E+02  0.70029307711E+02  0.00000000000E+00 0. -1.
         11    1    1    2    0    0 -0.12288231962E+03  0.12380721778E+03  0.81574622793E+02  0.19256871692E+03  0.00000000000E+00 0.  1.
</event>
<event>
 7    1  0.2873461E-009  0.1289696E+03  0.7561462E-02  0.1228993E+00
          4   -1    0    0  501    0  0.00000000000E+00  0.00000000000E+00  0.75831943238E+02  0.75831943238E+02  0.00000000000E+00 0. -1.
         -4   -1    0    0    0  501 -0.00000000000E+00 -0.00000000000E+00 -0.25096144116E+03  0.25096144116E+03  0.00000000000E+00 0.  1.
         25    2    1    2    0    0  0.56175885938E+02 -0.56557116309E+02 -0.12985329319E+03  0.19713766579E+03  0.12508774503E+03 0.  0.
          5    1    3    3  502    0  0.92879266965E+02 -0.28913974618E+02 -0.63219462717E+02  0.11608940101E+03  0.41800000000E+01 0.  1.
         -5    1    3    3    0  502 -0.36703381027E+02 -0.27643141691E+02 -0.66633830471E+02  0.81048264785E+02  0.41800000000E+01 0.  1.
        -11    1    1    2    0    0 -0.67457252694E+02  0.69779018265E+02 -0.53059938338E+02  0.11061170547E+03  0.00000000000E+00 0.  1.
         11    1    1    2    0    0  0.11281366756E+02 -0.13221901956E+02  0.77837336070E+01  0.19044013130E+02  0.00000000000E+00 0. -1.
</event>
<event>
 7    1  0.2873461E-009  0.9465792E+02  0.7561462E-02  0.1291948E+00
          2   -1    0    0  501    0  0.00000000000E+00  0.00000000000E+00  0.16153246528E+03  0.16153246528E+03  0.00000000000E+00 0.  1.
         -2   -1    0    0    0  501 -0.00000000000E+00 -0.00000000000E+00 -0.10101704368E+03  0.10101704368E+03  0.00000000000E+00 0. -1.
         25    2    1    2    0    0 -0.46002420131E+02 -0.45671214780E+02  0.23585023891E+02  0.14285023979E+03  0.12509138714E+03 0.  0.
          5    1    3    3  502    0  0.20957342116E+02  0.21445490394E+01 -0.35483388721E+02  0.41477132908E+02  0.41800000000E+01 0.  1.
         -5    1    3    3    0  502 -0.66959762247E+02 -0.47815763819E+02  0.59068412612E+02  0.10137310688E+03  0.41800000000E+01 0.  1.
        -11    1    1    2    0    0  0.51038106610E+01 -0.12981291027E+02  0.45587000584E+02  0.47673235911E+02  0.00000000000E+00 0.  1.
         11    1    1    2    0    0  0.40898609470E+02  0.58652505806E+02 -0.86566028694E+01  0.72026033260E+02  0.00000000000E+00 0. -1.
</event>
<event>
 7    1  0.2873461E-009  0.1005988E+03  0.7561462E-02  0.1279042E+00
          1   -1    0    0  501    0  0.00000000000E+00  0.00000000000E+00  0.31285884110E+02  0.31285884110E+02  0.00000000000E+00 0. -1.
         -1   -1    0    0    0  501 -0.00000000000E+00 -0.00000000000E+00 -0.38414532870E+03  0.38414532870E+03  0.00000000000E+00 0.  1.
         25    2    1    2    0    0  0.27408114699E+02  0.14913537870E+01 -0.23045775138E+03  0.26365098509E+03  0.12509051876E+03 0.  0.
          5    1    3    3  502    0  0.69053265840E+02  0.68391135505E+01 -0.19964934584E+03  0.21140591451E+03  0.41800000000E+01 0.  1.
         -5    1    3    3    0  502 -0.41645151141E+02 -0.53477597635E+01 -0.30808405539E+02  0.52245070580E+02  0.41800000000E+01 0.  1.
        -11    1    1    2    0    0 -0.16876628794E+02 -0.43246699827E+02 -0.69297619636E+02  0.83410177632E+02  0.00000000000E+00 0.  1.
         11    1    1    2    0    0 -0.10531485904E+02  0.41755346040E+02 -0.53104073573E+02  0.68370050083E+02  0.00000000000E+00 0. -1.
</event>
<event>
 7    1  0.2873461E-009  0.1032264E+03  0.7561462E-02  0.1273654E+00
         -1   -1    0    0    0  501 -0.00000000000E+00  0.00000000000E+00  0.72774213201E+02  0.72774213201E+02  0.00000000000E+00 0.  1.
          1   -1    0    0  501    0  0.00000000000E+00 -0.00000000000E+00 -0.21095282495E+03  0.21095282495E+03  0.00000000000E+00 0. -1.
         25    2    1    2    0    0 -0.74105270291E+01  0.62537815920E+01 -0.84192523659E+01  0.12574616643E+03  0.12508872397E+03 0.  0.
          5    1    3    3  502    0  0.56507108293E+02  0.17343637390E+02 -0.12686049329E+02  0.60599202084E+02  0.41800000000E+01 0.  1.
         -5    1    3    3    0  502 -0.63917635323E+02 -0.11089855798E+02  0.42667969633E+01  0.65146964343E+02  0.41800000000E+01 0.  1.
        -11    1    1    2    0    0  0.32417480431E+02  0.25873398271E+02 -0.97770558532E+02  0.10620455683E+03  0.00000000000E+00 0. -1.
         11    1    1    2    0    0 -0.25006953402E+02 -0.32127179863E+02 -0.31988800855E+02  0.51776314899E+02  0.00000000000E+00 0.  1.
</event>
<event>
 7    1  0.2873461E-009  0.1483093E+03  0.7561462E-02  0.1202566E+00
         -1   -1    0    0    0  501 -0.00000000000E+00  0.00000000000E+00  0.10719118004E+03  0.10719118004E+03  0.00000000000E+00 0.  1.
          1   -1    0    0  501    0  0.00000000000E+00 -0.00000000000E+00 -0.22894043888E+03  0.22894043888E+03  0.00000000000E+00 0. -1.
         25    2    1    2    0    0  0.10480527524E+03  0.40601202989E+02 -0.83405998512E+02  0.18771448048E+03  0.12509021621E+03 0.  0.
          5    1    3    3  502    0  0.89545813772E+02 -0.25827981314E+02 -0.73387858734E+02  0.11869619873E+03  0.41800000000E+01 0. -1.
         -5    1    3    3    0  502  0.15259461464E+02  0.66429184303E+02 -0.10018139778E+02  0.69018281752E+02  0.41800000000E+01 0. -1.
        -11    1    1    2    0    0 -0.43966841305E+02 -0.57042541125E+02 -0.45192304478E+02  0.85025166958E+02  0.00000000000E+00 0. -1.
         11    1    1    2    0    0 -0.60838433931E+02  0.16441338136E+02  0.68490441534E+01  0.63391971484E+02  0.00000000000E+00 0.  1.
</event>
<event>
 7    1  0.2873461E-009  0.2188072E+03  0.7561462E-02  0.1134775E+00
         -2   -1    0    0    0  501 -0.00000000000E+00  0.00000000000E+00  0.79450807012E+02  0.79450807012E+02  0.00000000000E+00 0.  1.
          2   -1    0    0  501    0  0.00000000000E+00 -0.00000000000E+00 -0.80202215047E+03  0.80202215047E+03  0.00000000000E+00 0. -1.
         25    2    1    2    0    0  0.12629405608E+02  0.21535266885E+03 -0.49718070567E+03  0.55621267117E+03  0.12509039778E+03 0.  0.
          5    1    3    3  502    0  0.13745251701E+02  0.30239577219E+02 -0.98612204511E+01  0.34901003474E+02  0.41800000000E+01 0. -1.
         -5    1    3    3    0  502 -0.11158460929E+01  0.18511309163E+03 -0.48731948522E+03  0.52131166770E+03  0.41800000000E+01 0. -1.
        -11    1    1    2    0    0 -0.25476069157E+02 -0.11422484663E+03 -0.17755329457E+03  0.21265351654E+03  0.00000000000E+00 0. -1.
         11    1    1    2    0    0  0.12846663549E+02 -0.10112782222E+03 -0.47837343224E+02  0.11260676977E+03  0.00000000000E+00 0.  1.
</event>
<event>
 7    1  0.2873461E-009  0.1523025E+03  0.7561462E-02  0.1197672E+00
         -4   -1    0    0    0  501 -0.00000000000E+00  0.00000000000E+00  0.12575552916E+03  0.12575552916E+03  0.00000000000E+00 0.  1.
          4   -1    0    0  501    0  0.00000000000E+00 -0.00000000000E+00 -0.20635322147E+03  0.20635322147E+03  0.00000000000E+00 0. -1.
         25    2    1    2    0    0  0.74679938613E+02 -0.85342191041E+02 -0.67580036012E+01  0.16897776080E+03  0.12508968874E+03 0.  0.
          5    1    3    3  502    0 -0.76687476306E+01 -0.75803164452E+02 -0.31218689623E+02  0.82443971356E+02  0.41800000000E+01 0. -1.
         -5    1    3    3    0  502  0.82348686244E+02 -0.95390265895E+01  0.24460686022E+02  0.86533789441E+02  0.41800000000E+01 0. -1.
        -11    1    1    2    0    0 -0.20102076555E+02  0.88376222107E+02 -0.49825757093E+02  0.10342657388E+03  0.00000000000E+00 0.  1.
         11    1    1    2    0    0 -0.54577862058E+02 -0.30340310652E+01 -0.24013931619E+02  0.59704415944E+02  0.00000000000E+00 0. -1.
</event>
<event>
 7    1  0.2873461E-009  0.3288700E+03  0.7561462E-02  0.1071638E+00
         -1   -1    0    0    0  501 -0.00000000000E+00  0.00000000000E+00  0.47744891462E+02  0.47744891462E+02  0.00000000000E+00 0.  1.
          1   -1    0    0  501    0  0.00000000000E+00 -0.00000000000E+00 -0.27687958389E+04  0.27687958389E+04  0.00000000000E+00 0. -1.
         25    2    1    2    0    0  0.29773951731E+03 -0.98804168425E+02 -0.19233399244E+04  0.19527653201E+04  0.12507936136E+03 0.  0.
          5    1    3    3  502    0  0.18515710841E+03  0.77522276716E+00 -0.11697994234E+04  0.11843698406E+04  0.41800000000E+01 0.  1.
         -5    1    3    3    0  502  0.11258240890E+03 -0.99579391192E+02 -0.75354050099E+03  0.76839547953E+03  0.41800000000E+01 0.  1.
        -11    1    1    2    0    0 -0.14297842948E+03  0.86077981194E+02 -0.31178765928E+03  0.35364359830E+03  0.00000000000E+00 0.  1.
         11    1    1    2    0    0 -0.15476108783E+03  0.12726187231E+02 -0.48592336376E+03  0.51013181198E+03  0.00000000000E+00 0. -1.
</event>
<event>
 7    1  0.2873461E-009  0.1385375E+03  0.7561462E-02  0.1215311E+00
         -2   -1    0    0    0  501 -0.00000000000E+00  0.00000000000E+00  0.67168569199E+02  0.67168569199E+02  0.00000000000E+00 0. -1.
          2   -1    0    0  501    0  0.00000000000E+00 -0.00000000000E+00 -0.35801387599E+03  0.35801387599E+03  0.00000000000E+00 0.  1.
         25    2    1    2    0    0  0.49614719751E+02 -0.99426617506E+02 -0.15524280609E+03  0.22823901821E+03  0.12508176488E+03 0.  0.
          5    1    3    3  502    0  0.37203267841E+02 -0.12210595153E+03 -0.85374411111E+02  0.15362359522E+03  0.41800000000E+01 0.  1.
         -5    1    3    3    0  502  0.12411451910E+02  0.22679334021E+02 -0.69868394981E+02  0.74615422986E+02  0.41800000000E+01 0.  1.
        -11    1    1    2    0    0  0.96687247788E+01  0.31798067918E+02  0.11653210596E+01  0.33255966913E+02  0.00000000000E+00 0. -1.
         11    1    1    2    0    0 -0.59283444530E+02  0.67628549589E+02 -0.13676782175E+03  0.16368746006E+03  0.00000000000E+00 0.  1.
</event>
<event>
 7    1  0.2873461E-009  0.7816226E+02  0.7561462E-02  0.1334349E+00
         -2   -1    0    0    0  501 -0.00000000000E+00  0.00000000000E+00  0.12322814552E+02  0.12322814552E+02  0.00000000000E+00 0. -1.
          2   -1    0    0  501    0  0.00000000000E+00 -0.00000000000E+00 -0.10017071191E+04  0.10017071191E+04  0.00000000000E+00 0.  1.
         25    2    1    2    0    0 -0.18774330236E+02 -0.32090740573E+00 -0.55065644227E+03  0.56498606489E+03  0.12503662525E+03 0.  0.
          5    1    3    3  502    0  0.69352306225E+01  0.25209714852E+02 -0.20267956098E+02  0.33345008488E+02  0.41800000000E+01 0.  1.
         -5    1    3    3    0  502 -0.25709560858E+02 -0.25530622257E+02 -0.53038848617E+03  0.53164105640E+03  0.41800000000E+01 0.  1.
        -11    1    1    2    0    0 -0.21148304004E+02  0.34734138486E+02 -0.14362908593E+03  0.14927499946E+03  0.00000000000E+00 0. -1.
         11    1    1    2    0    0  0.39922634240E+02 -0.34413231080E+02 -0.29509877636E+03  0.29976886931E+03  0.00000000000E+00 0.  1.
</event>
<event>
 7    1  0.2873461E-009  0.1925482E+03  0.7561462E-02  0.1156183E+00
         -1   -1    0    0    0  501 -0.00000000000E+00  0.00000000000E+00  0.33818401503E+03  0.33818401503E+03  0.00000000000E+00 0.  1.
          1   -1    0    0  501    0  0.00000000000E+00 -0.00000000000E+00 -0.13895313661E+03  0.13895313661E+03  0.00000000000E+00 0. -1.
         25    2    1    2    0    0 -0.17020064355E+03  0.76634168083E+02  0.96504750434E+02  0.24454715598E+03  0.12509632233E+03 0.  0.
          5    1    3    3  502    0 -0.38461300278E+02  0.94474163321E+01  0.87729213534E+02  0.96345278046E+02  0.41800000000E+01 0. -1.
         -5    1    3    3    0  502 -0.13173934327E+03  0.67186751751E+02  0.87755368992E+01  0.14820187794E+03  0.41800000000E+01 0. -1.
        -11    1    1    2    0    0  0.71602656367E+01 -0.25459010407E+02 -0.95547461208E+01  0.28119811314E+02  0.00000000000E+00 0.  1.
         11    1    1    2    0    0  0.16304037791E+03 -0.51175157676E+02  0.11228087411E+03  0.20447018434E+03  0.00000000000E+00 0. -1.
</event>
<event>
 7    1  0.2873461E-009  0.1345378E+03  0.7561462E-02  0.1220874E+00
         -2   -1    0    0    0  501 -0.00000000000E+00  0.00000000000E+00  0.31201552095E+02  0.31201552095E+02  0.00000000000E+00 0.  1.
          2   -1    0    0  501    0  0.00000000000E+00 -0.00000000000E+00 -0.90542092522E+03  0.90542092522E+03  0.00000000000E+00 0. -1.
         25    2    1    2    0    0  0.93050445020E+02  0.55522768864E+01 -0.69018174487E+03  0.70759249322E+03  0.12508829845E+03 0.  0.
          5    1    3    3  502    0  0.11119705172E+03  0.35111696822E+02 -0.59175836482E+03  0.60315259288E+03  0.41800000000E+01 0.  1.
         -5    1    3    3    0  502 -0.18146606704E+02 -0.29559419936E+02 -0.98423380052E+02  0.10443990034E+03  0.41800000000E+01 0.  1.
        -11    1    1    2    0    0 -0.37099586639E+02  0.32883291082E+02 -0.13897733940E+03  0.14755470521E+03  0.00000000000E+00 0. -1.
         11    1    1    2    0    0 -0.55950858381E+02 -0.38435567969E+02 -0.45060288852E+02  0.81475278889E+02  0.00000000000E+00 0.  1.
</event>
<event>
 6    1  0.2873461E-009  0.1611888E+03  0.7561462E-02  0.1187361E+00
          2   -1    0    0  501    0  0.00000000000E+00  0.00000000000E+00  0.60651149340E+03  0.60651149340E+03  0.00000000000E+00 0. -1.
         -2   -1    0    0    0  501 -0.00000000000E+00 -0.00000000000E+00 -0.52150664589E+02  0.52150664589E+02  0.00000000000E+00 0.  1.
          5    1    1    2  502    0  0.13132575666E+03 -0.84055860038E+02  0.34126083540E+03  0.37521763304E+03  0.41800000000E+01 0. -1.
         -5    1    1    2    0  502 -0.24500904755E+02  0.57002929992E+01  0.42454038846E+02  0.49523787097E+02  0.41800000000E+01 0. -1.
        -11    1    1    2    0    0 -0.50011797033E+02  0.65913712777E+02  0.42109314705E+02  0.92838525190E+02  0.00000000000E+00 0.  1.
         11    1    1    2    0    0 -0.56813054875E+02  0.12441854262E+02  0.12853663986E+03  0.14108221266E+03  0.00000000000E+00 0. -1.
</event>
<event>
 7    1  0.2873461E-009  0.1756492E+03  0.7561462E-02  0.1172081E+00
         -1   -1    0    0    0  501 -0.00000000000E+00  0.00000000000E+00  0.15187678601E+03  0.15187678601E+03  0.00000000000E+00 0. -1.
          1   -1    0    0  501    0  0.00000000000E+00 -0.00000000000E+00 -0.28413262811E+03  0.28413262811E+03  0.00000000000E+00 0.  1.
         25    2    1    2    0    0  0.13850685821E+03 -0.31708193203E+02 -0.17839944390E+03  0.26012106562E+03  0.12508816053E+03 0.  0.
          5    1    3    3  502    0  0.11359028276E+03  0.27834195892E+02 -0.14793249386E+03  0.18862393787E+03  0.41800000000E+01 0.  1.
         -5    1    3    3    0  502  0.24916575457E+02 -0.59542389094E+02 -0.30466950044E+02  0.71497127751E+02  0.41800000000E+01 0.  1.
        -11    1    1    2    0    0 -0.62165436861E+02 -0.32219875132E+02  0.15597737935E+02  0.71735286452E+02  0.00000000000E+00 0. -1.
         11    1    1    2    0    0 -0.76341421353E+02  0.63928068335E+02  0.30545863864E+02  0.10415306205E+03  0.00000000000E+00 0.  1.
</event>
<event>
 7    1  0.2873461E-009  0.1142127E+03  0.7561462E-02  0.1252962E+00
          2   -1    0    0  501    0  0.00000000000E+00  0.00000000000E+00  0.75387731522E+03  0.75387731522E+03  0.00000000000E+00 0. -1.
         -2   -1    0    0    0  501 -0.00000000000E+00 -0.00000000000E+00 -0.33349048063E+02  0.33349048063E+02  0.00000000000E+00 0.  1.
         25    2    1    2    0    0 -0.33250173471E+02  0.62976724058E+02  0.61033820558E+03  0.62708131740E+03  0.12508641669E+03 0.  0.
          5    1    3    3  502    0 -0.53137055227E+02  0.78569736085E+02  0.57839954549E+03  0.58614013400E+03  0.41800000000E+01 0. -1.
         -5    1    3    3    0  502  0.19886881756E+02 -0.15593012028E+02  0.31938660093E+02  0.40941183405E+02  0.41800000000E+01 0. -1.
        -11    1    1    2    0    0 -0.46362705057E+01 -0.69301912894E+02  0.40050531410E+02  0.80176649975E+02  0.00000000000E+00 0.  1.
         11    1    1    2    0    0  0.37886443977E+02  0.63251888366E+01  0.70139530164E+02  0.79968395899E+02  0.00000000000E+00 0. -1.
</event>
<event>
 7    1  0.2873461E-009  0.1080763E+03  0.7561462E-02  0.1264174E+00
          1   -1    0    0  501    0  0.00000000000E+00  0.00000000000E+00  0.43034519391E+02  0.43034519391E+02  0.00000000000E+00 0. -1.
         -1   -1    0    0    0  501 -0.00000000000E+00 -0.00000000000E+00 -0.40350478987E+03  0.40350478987E+03  0.00000000000E+00 0.  1.
         25    2    1    2    0    0 -0.16575632921E+01  0.14523934945E+02 -0.73765184509E+02  0.14595187950E+03  0.12508779510E+03 0.  0.
          5    1    3    3  502    0  0.29842358165E+02  0.61916144656E+02 -0.41644355785E+02  0.80472977319E+02  0.41800000000E+01 0. -1.
         -5    1    3    3    0  502 -0.31499921457E+02 -0.47392209711E+02 -0.32120828724E+02  0.65478902182E+02  0.41800000000E+01 0. -1.
        -11    1    1    2    0    0  0.37068863979E+02 -0.33583195212E+02 -0.15346203085E+03  0.16140795083E+03  0.00000000000E+00 0. -1.
         11    1    1    2    0    0 -0.35411300687E+02  0.19059260267E+02 -0.13324305512E+03  0.13917947893E+03  0.00000000000E+00 0.  1.
</event>
<event>
 7    1  0.2873461E-009  0.8892149E+02  0.7561462E-02  0.1305485E+00
          2   -1    0    0  501    0  0.00000000000E+00  0.00000000000E+00  0.51401244958E+02  0.51401244958E+02  0.00000000000E+00 0. -1.
         -2   -1    0    0    0  501 -0.00000000000E+00 -0.00000000000E+00 -0.23583114371E+03  0.23583114371E+03  0.00000000000E+00 0.  1.
         25    2    1    2    0    0  0.19180907064E+02  0.65751683255E+01 -0.93387628967E+02  0.15741726993E+03  0.12509119711E+03 0.  0.
          5    1    3    3  502    0 -0.46179078303E+01  0.57256627664E+02 -0.81873655676E+02  0.10010201985E+03  0.41800000000E+01 0. -1.
         -5    1    3    3    0  502  0.23798814895E+02 -0.50681459339E+02 -0.11513973291E+02  0.57315250083E+02  0.41800000000E+01 0. -1.
        -11    1    1    2    0    0  0.79640990533E+01  0.22772526651E+02 -0.86240176828E+02  0.89551007494E+02  0.00000000000E+00 0.  1.
         11    1    1    2    0    0 -0.27145006118E+02 -0.29347694977E+02 -0.48020929598E+01  0.40264111245E+02  0.00000000000E+00 0. -1.
</event>
<event>
 7    1  0.2873461E-009  0.9389860E+02  0.7561462E-02  0.1293676E+00
         -2   -1    0    0    0  501 -0.00000000000E+00  0.00000000000E+00  0.10991291269E+03  0.10991291269E+03  0.00000000000E+00 0.  1.
          2   -1    0    0  501    0  0.00000000000E+00 -0.00000000000E+00 -0.14730881812E+03  0.14730881812E+03  0.00000000000E+00 0. -1.
         25    2    1    2    0    0 -0.59049411448E+02  0.78448426506E+00 -0.31438346061E+02  0.14185932831E+03  0.12509296950E+03 0.  0.
          5    1    3    3  502    0 -0.39285416873E+02  0.20922490372E+02  0.43070193779E+02  0.62077440141E+02  0.41800000000E+01 0. -1.
         -5    1    3    3    0  502 -0.19763994575E+02 -0.20138006107E+02 -0.74508539840E+02  0.79781888174E+02  0.41800000000E+01 0. -1.
        -11    1    1    2    0    0 -0.19977984608E+02 -0.24917657503E+02  0.37799158326E+01  0.32160492660E+02  0.00000000000E+00 0.  1.
         11    1    1    2    0    0  0.79027396055E+02  0.24133173238E+02 -0.97374752024E+01  0.83201909841E+02  0.00000000000E+00 0. -1.
</event>
<event>
 7    1  0.2873461E-009  0.1042747E+03  0.7561462E-02  0.1271555E+00
         -1   -1    0    0    0  501 -0.00000000000E+00  0.00000000000E+00  0.51433459435E+02  0.51433459435E+02  0.00000000000E+00 0.  1.
          1   -1    0    0  501    0  0.00000000000E+00 -0.00000000000E+00 -0.36864817124E+03  0.36864817124E+03  0.00000000000E+00 0. -1.
         25    2    1    2    0    0  0.45455624246E+02 -0.39640807615E+02 -0.84458569237E+02  0.16253914118E+03  0.12509242620E+03 0.  0.
          5    1    3    3  502    0 -0.18670880413E+02 -0.34095438528E+02  0.16742061418E+02  0.42530809120E+02  0.41800000000E+01 0. -1.
         -5    1    3    3    0  502  0.64126504659E+02 -0.55453690866E+01 -0.10120063065E+03  0.12000833206E+03  0.41800000000E+01 0. -1.
        -11    1    1    2    0    0 -0.58833767440E+02  0.57746917471E+02 -0.20968116422E+03  0.22530492515E+03  0.00000000000E+00 0. -1.
         11    1    1    2    0    0  0.13378143194E+02 -0.18106109856E+02 -0.23074978358E+02  0.32237564356E+02  0.00000000000E+00 0.  1.
</event>
<event>
 7    1  0.2873461E-009  0.9874000E+02  0.7561462E-02  0.1282968E+00
         -3   -1    0    0    0  501 -0.00000000000E+00  0.00000000000E+00  0.38008785656E+03  0.38008785656E+03  0.00000000000E+00 0.  1.
          3   -1    0    0  501    0  0.00000000000E+00 -0.00000000000E+00 -0.44826920984E+02  0.44826920984E+02  0.00000000000E+00 0. -1.
         25    2    1    2    0    0  0.61232469227E+02 -0.40104911076E+01  0.11810144395E+03  0.18264952911E+03  0.12508956829E+03 0.  0.
          5    1    3    3  502    0  0.59263135751E+02 -0.28279276786E+02  0.13671040779E+03  0.15172028458E+03  0.41800000000E+01 0.  1.
         -5    1    3    3    0  502  0.19693334753E+01  0.24268785678E+02 -0.18608963836E+02  0.30929244538E+02  0.41800000000E+01 0.  1.
        -11    1    1    2    0    0  0.18536913837E+02  0.18175051886E+02  0.62319828481E+02  0.67510819189E+02  0.00000000000E+00 0.  1.
         11    1    1    2    0    0 -0.79769383064E+02 -0.14164560778E+02  0.15483966314E+03  0.17475442924E+03  0.00000000000E+00 0. -1.
</event>
<event>
 7    1  0.2873461E-009  0.1475292E+03  0.7561462E-02  0.1203542E+00
         -1   -1    0    0    0  501 -0.00000000000E+00  0.00000000000E+00  0.42656435616E+02  0.42656435616E+02  0.00000000000E+00 0.  1.
          1   -1    0    0  501    0  0.00000000000E+00 -0.00000000000E+00 -0.67989094003E+03  0.67989094003E+03  0.00000000000E+00 0. -1.
         25    2    1    2    0    0  0.95674375991E+02  0.91505309575E+02 -0.28603787647E+03  0.33910019580E+03  0.12507784821E+03 0.  0.
          5    1    3    3  502    0  0.38127841705E+02  0.73379283434E+02 -0.26069248345E+03  0.27352567499E+03  0.41800000000E+01 0. -1.
         -5    1    3    3    0  502  0.57546534286E+02  0.18126026141E+02 -0.25345393016E+02  0.65574520808E+02  0.41800000000E+01 0. -1.
        -11    1    1    2    0    0  0.59476653580E+01 -0.35007710295E+02 -0.57603701289E+02  0.67669054268E+02  0.00000000000E+00 0.  1.
         11    1    1    2    0    0 -0.10162204135E+03 -0.56497599280E+02 -0.29359292666E+03  0.31577812558E+03  0.00000000000E+00 0. -1.
</event>
<event>
 7    1  0.2873461E-009  0.9574735E+02  0.7561462E-02  0.1289502E+00
         -1   -1    0    0    0  501 -0.00000000000E+00  0.00000000000E+00  0.82616313770E+03  0.82616313770E+03  0.00000000000E+00 0.  1.
          1   -1    0    0  501    0  0.00000000000E+00 -0.00000000000E+00 -0.15195836694E+02  0.15195836694E+02  0.00000000000E+00 0. -1.
         25    2    1    2    0    0 -0.27842136467E+01 -0.27165688885E+02  0.48421255023E+03  0.50085287529E+03  0.12508430112E+03 0.  0.
          5    1    3    3  502    0 -0.47679155444E+02 -0.76123219216E+01  0.79070673889E+02  0.92741000524E+02  0.41800000000E+01 0. -1.
         -5    1    3    3    0  502  0.44894941797E+02 -0.19553366963E+02  0.40514187634E+03  0.40811187476E+03  0.41800000000E+01 0. -1.
        -11    1    1    2    0    0  0.15734988898E+01  0.60504006826E+02  0.17638555188E+03  0.18648075947E+03  0.00000000000E+00 0. -1.
         11    1    1    2    0    0  0.12107147569E+01 -0.33338317941E+02  0.15036919889E+03  0.15402533963E+03  0.00000000000E+00 0.  1.
</event>
<event>
 7    1  0.2873461E-009  0.2434376E+03  0.7561462E-02  0.1117524E+00
         -1   -1    0    0    0  501 -0.00000000000E+00  0.00000000000E+00  0.59369636618E+02  0.59369636618E+02  0.00000000000E+00 0.  1.
          1   -1    0    0  501    0  0.00000000000E+00 -0.00000000000E+00 -0.12016707975E+04  0.12016707975E+04  0.00000000000E+00 0. -1.
         25    2    1    2    0    0 -0.15305506442E+03 -0.17191902930E+03 -0.39645091383E+03  0.47518592872E+03  0.12508530850E+03 0.  0.
          5    1    3    3  502    0  0.14159468653E+01 -0.61776255938E+02 -0.16279979471E+03  0.17418253719E+03  0.41800000000E+01 0.  1.
         -5    1    3    3    0  502 -0.15447101128E+03 -0.11014277336E+03 -0.23365111912E+03  0.30100339153E+03  0.41800000000E+01 0.  1.
        -11    1    1    2    0    0  0.98094441514E+01  0.37423869299E+02 -0.52596450078E+02  0.65292861392E+02  0.00000000000E+00 0.  1.
         11    1    1    2    0    0  0.14324562027E+03  0.13449516000E+03 -0.69325379700E+03  0.72056164403E+03  0.00000000000E+00 0. -1.
</event>
<event>
 7    1  0.2873461E-009  0.2320189E+03  0.7561462E-02  0.1125227E+00
         -1   -1    0    0    0  501 -0.00000000000E+00  0.00000000000E+00  0.67604955065E+02  0.67604955065E+02  0.00000000000E+00 0.  1.
          1   -1    0    0  501    0  0.00000000000E+00 -0.00000000000E+00 -0.92289172765E+03  0.92289172765E+03  0.00000000000E+00 0. -1.
         25    2    1    2    0    0  0.15290043327E+03 -0.14372311794E+03 -0.59766551243E+03  0.64566734587E+03  0.12508948660E+03 0.  0.
          5    1    3    3  502    0  0.16566029908E+03 -0.11087693555E+03 -0.42571156424E+03  0.47009024437E+03  0.41800000000E+01 0.  1.
         -5    1    3    3    0  502 -0.12759865813E+02 -0.32846182391E+02 -0.17195394819E+03  0.17557710150E+03  0.41800000000E+01 0.  1.
        -11    1    1    2    0    0 -0.15722311679E+03  0.10242285085E+03 -0.21353851987E+03  0.28426791640E+03  0.00000000000E+00 0.  1.
         11    1    1    2    0    0  0.43226835181E+01  0.41300267088E+02 -0.44082740285E+02  0.60561420437E+02  0.00000000000E+00 0. -1.
</event>
<event>
 7    1  0.2873461E-009  0.1112259E+03  0.7561462E-02  0.1258316E+00
         -2   -1    0    0    0  501 -0.00000000000E+00  0.00000000000E+00  0.12894884913E+03  0.12894884913E+03  0.00000000000E+00 0.  1.
          2   -1    0    0  501    0  0.00000000000E+00 -0.00000000000E+00 -0.11982427220E+03  0.11982427220E+03  0.00000000000E+00 0. -1.
         25    2    1    2    0    0  0.89162503037E+00  0.39760829760E+02 -0.40231499413E+02  0.13728185400E+03  0.12508403301E+03 0.  0.
          5    1    3    3  502    0  0.57509612384E+02  0.10253997970E+02 -0.43902731748E+02  0.73194414034E+02  0.41800000000E+01 0.  1.
         -5    1    3    3    0  502 -0.56617987354E+02  0.29506831790E+02  0.36712323343E+01  0.64087439964E+02  0.41800000000E+01 0.  1.
        -11    1    1    2    0    0 -0.70083449721E+01  0.29526539801E+02  0.16892058856E+02  0.34731471380E+02  0.00000000000E+00 0. -1.
         11    1    1    2    0    0  0.61167199417E+01 -0.69287369561E+02  0.32464017489E+02  0.76759795955E+02  0.00000000000E+00 0.  1.
</event>
<event>
 7    1  0.2873461E-009  0.6832959E+02  0.7561462E-02  0.1365867E+00
          2   -1    0    0  501    0  0.00000000000E+00  0.00000000000E+00  0.46066847769E+03  0.46066847769E+03  0.00000000000E+00 0. -1.
         -2   -1    0    0    0  501 -0.00000000000E+00 -0.00000000000E+00 -0.27351622518E+02  0.27351622518E+02  0.00000000000E+00 0.  1.
         25    2    1    2    0    0  0.27061730620E+02 -0.36109742614E+01  0.26143128080E+03  0.29109896026E+03  0.12508762402E+03 0.  0.
          5    1    3    3  502    0  0.36680106268E+02  0.61178657345E+01  0.27120453733E+03  0.27377405273E+03  0.41800000000E+01 0.  1.
         -5    1    3    3    0  502 -0.96183756479E+01 -0.97288399960E+01 -0.97732565308E+01  0.17324907532E+02  0.41800000000E+01 0.  1.
        -11    1    1    2    0    0 -0.31031127898E+02  0.38708801621E+02  0.51702493390E+02  0.71655076891E+02  0.00000000000E+00 0. -1.
         11    1    1    2    0    0  0.39693972782E+01 -0.35097827360E+02  0.12018308098E+03  0.12526606306E+03  0.00000000000E+00 0.  1.
</event>
<event>
 7    1  0.2873461E-009  0.1539827E+03  0.7561462E-02  0.1195663E+00
         -2   -1    0    0    0  501 -0.00000000000E+00  0.00000000000E+00  0.31186807194E+02  0.31186807194E+02  0.00000000000E+00 0.  1.
          2   -1    0    0  501    0  0.00000000000E+00 -0.00000000000E+00 -0.94155345948E+03  0.94155345948E+03  0.00000000000E+00 0. -1.
         25    2    1    2    0    0 -0.14285681748E+01  0.12817880539E+03 -0.63413725401E+03  0.65894674867E+03  0.12509561821E+03 0.  0.
          5    1    3    3  502    0 -0.61549895342E+02  0.56369350431E+02 -0.25275114332E+03  0.26620763726E+03  0.41800000000E+01 0.  1.
         -5    1    3    3    0  502  0.60121327168E+02  0.71809454960E+02 -0.38138611069E+03  0.39273911141E+03  0.41800000000E+01 0.  1.
        -11    1    1    2    0    0 -0.99270115024E+01 -0.25792235490E+02 -0.11880881265E+02  0.30082225792E+02  0.00000000000E+00 0.  1.
         11    1    1    2    0    0  0.11355579677E+02 -0.10238656990E+03 -0.26434851701E+03  0.28371129222E+03  0.00000000000E+00 0. -1.
</event>
<event>
 7    1  0.2873461E-009  0.1074850E+03  0.7561462E-02  0.1265299E+00
          1   -1    0    0  501    0  0.00000000000E+00  0.00000000000E+00  0.56372247558E+03  0.56372247558E+03  0.00000000000E+00 0. -1.
         -1   -1    0    0    0  501 -0.00000000000E+00 -0.00000000000E+00 -0.30360290146E+02  0.30360290146E+02  0.00000000000E+00 0.  1.
         25    2    1    2    0    0 -0.60149842770E+02  0.35213709759E+02  0.24904299190E+03  0.28727773241E+03  0.12509226508E+03 0.  0.
          5    1    3    3  502    0 -0.75953409185E+02  0.62991057698E+02  0.12606157363E+03  0.16014301878E+03  0.41800000000E+01 0.  1.
         -5    1    3    3    0  502  0.15803566416E+02 -0.27777347940E+02  0.12298141827E+03  0.12713471363E+03  0.41800000000E+01 0.  1.
        -11    1    1    2    0    0  0.50485105210E+02 -0.46832805510E+02  0.28341914995E+03  0.29166499975E+03  0.00000000000E+00 0. -1.
         11    1    1    2    0    0  0.96647375590E+01  0.11619095752E+02  0.90004358834E+00  0.15140033574E+02  0.00000000000E+00 0.  1.
</event>
<event>
 7    1  0.2873461E-009  0.1020680E+03  0.7561462E-02  0.1276006E+00
         -1   -1    0    0    0  501 -0.00000000000E+00  0.00000000000E+00  0.19405693172E+03  0.19405693172E+03  0.00000000000E+00 0.  1.
          1   -1    0    0  501    0  0.00000000000E+00 -0.00000000000E+00 -0.67828290766E+02  0.67828290766E+02  0.00000000000E+00 0. -1.
         25    2    1    2    0    0  0.39480360653E+02  0.17659559250E+01  0.76415973755E+02  0.15182847987E+03  0.12510263297E+03 0.  0.
          5    1    3    3  502    0 -0.12972772892E+02 -0.37801084962E+02 -0.11683507019E+02  0.41847241212E+02  0.41800000000E+01 0.  1.
         -5    1    3    3    0  502  0.52453133544E+02  0.39567040887E+02  0.88099480774E+02  0.10998123865E+03  0.41800000000E+01 0.  1.
        -11    1    1    2    0    0  0.13481158229E+02  0.32399085735E+02  0.16714299732E+02  0.38869141992E+02  0.00000000000E+00 0. -1.
         11    1    1    2    0    0 -0.52961518882E+02 -0.34165041660E+02  0.33098367464E+02  0.71187600625E+02  0.00000000000E+00 0.  1.
</event>
<event>
 7    1  0.2873461E-009  0.9805118E+02  0.7561462E-02  0.1284448E+00
         -2   -1    0    0    0  501 -0.00000000000E+00  0.00000000000E+00  0.35033617124E+02  0.35033617124E+02  0.00000000000E+00 0.  1.
          2   -1    0    0  501    0  0.00000000000E+00 -0.00000000000E+00 -0.60604808470E+03  0.60604808470E+03  0.00000000000E+00 0. -1.
         25    2    1    2    0    0 -0.15149828876E+02 -0.47656627423E+02 -0.48990863687E+03  0.50809320622E+03  0.12509021657E+03 0.  0.
          5    1    3    3  502    0  0.39528149659E+02 -0.30892375148E+02 -0.82336211323E+02  0.96506671027E+02  0.41800000000E+01 0.  1.
         -5    1    3    3    0  502 -0.54677978535E+02 -0.16764252274E+02 -0.40757242554E+03  0.41158653520E+03  0.41800000000E+01 0.  1.
        -11    1    1    2    0    0 -0.27729867081E+02  0.54686369696E+01  0.42334626623E+01  0.28579253398E+02  0.00000000000E+00 0.  1.
         11    1    1    2    0    0  0.42879695958E+02  0.42187990453E+02 -0.85339293368E+02  0.10440924220E+03  0.00000000000E+00 0. -1.
</event>
<event>
 7    1  0.2873461E-009  0.6320798E+02  0.7561462E-02  0.1384842E+00
          1   -1    0    0  501    0  0.00000000000E+00  0.00000000000E+00  0.12259146449E+03  0.12259146449E+03  0.00000000000E+00 0. -1.
         -1   -1    0    0    0  501 -0.00000000000E+00 -0.00000000000E+00 -0.14041342162E+03  0.14041342162E+03  0.00000000000E+00 0.  1.
         25    2    1    2    0    0  0.94529773871E+01 -0.23043663018E+02  0.59681663139E+02  0.14082998875E+03  0.12510321990E+03 0.  0.
          5    1    3    3  502    0  0.16656543096E+02  0.19113686755E+02  0.86459802027E+02  0.90197246166E+02  0.41800000000E+01 0.  1.
         -5    1    3    3    0  502 -0.72035657087E+01 -0.42157349773E+02 -0.26778138888E+02  0.50632742580E+02  0.41800000000E+01 0.  1.
        -11    1    1    2    0    0 -0.28553832808E+02  0.25758852742E+02  0.37725492864E+01  0.38640289734E+02  0.00000000000E+00 0. -1.
         11    1    1    2    0    0  0.19100855421E+02 -0.27151897241E+01 -0.81276169562E+02  0.83534607629E+02  0.00000000000E+00 0.  1.
</event>
<event>
 7    1  0.2873461E-009  0.1401080E+03  0.7561462E-02  0.1213184E+00
         -1   -1    0    0    0  501 -0.00000000000E+00  0.00000000000E+00  0.16284774840E+03  0.16284774840E+03  0.00000000000E+00 0.  1.
          1   -1    0    0  501    0  0.00000000000E+00 -0.00000000000E+00 -0.21024723299E+03  0.21024723299E+03  0.00000000000E+00 0. -1.
         25    2    1    2    0    0 -0.93373372274E+02 -0.70305305647E+01 -0.14172932414E+03  0.21095587403E+03  0.12508862642E+03 0.  0.
          5    1    3    3  502    0 -0.10900282290E+03 -0.36879268124E+02 -0.13295909296E+03  0.17588999010E+03  0.41800000000E+01 0.  1.
         -5    1    3    3    0  502  0.15629450630E+02  0.29848737560E+02 -0.87702311834E+01  0.35065883932E+02  0.41800000000E+01 0.  1.
        -11    1    1    2    0    0 -0.14494093168E+02  0.17521821768E+02  0.10109639808E+02  0.24885694523E+02  0.00000000000E+00 0.  1.
         11    1    1    2    0    0  0.10786746544E+03 -0.10491291203E+02  0.84220199735E+02  0.13725341284E+03  0.00000000000E+00 0. -1.
</event>
<event>
 7    1  0.2873461E-009  0.1035189E+03  0.7561462E-02  0.1273066E+00
         -2   -1    0    0    0  501 -0.00000000000E+00  0.00000000000E+00  0.55587429480E+02  0.55587429480E+02  0.00000000000E+00 0. -1.
          2   -1    0    0  501    0  0.00000000000E+00 -0.00000000000E+00 -0.21167726496E+03  0.21167726496E+03  0.00000000000E+00 0.  1.
         25    2    1    2    0    0  0.36446492177E+01  0.30351324548E+00 -0.92218934594E+02  0.15545076319E+03  0.12508889755E+03 0.  0.
          5    1    3    3  502    0  0.60475845029E+02  0.56173596024E+01 -0.21703693669E+02  0.64632849850E+02  0.41800000000E+01 0.  1.
         -5    1    3    3    0  502 -0.56831195811E+02 -0.53138463569E+01 -0.70515240924E+02  0.90817913338E+02  0.41800000000E+01 0.  1.
        -11    1    1    2    0    0  0.42120140663E+02  0.66306670224E+01 -0.16891695254E+02  0.45862853850E+02  0.00000000000E+00 0. -1.
         11    1    1    2    0    0 -0.45764789881E+02 -0.69341802678E+01 -0.46979205636E+02  0.65951077406E+02  0.00000000000E+00 0.  1.
</event>
<event>
 7    1  0.2873461E-009  0.9982388E+02  0.7561462E-02  0.1280667E+00
         -1   -1    0    0    0  501 -0.00000000000E+00  0.00000000000E+00  0.14282883228E+03  0.14282883228E+03  0.00000000000E+00 0.  1.
          1   -1    0    0  501    0  0.00000000000E+00 -0.00000000000E+00 -0.91920317100E+02  0.91920317100E+02  0.00000000000E+00 0. -1.
         25    2    1    2    0    0  0.21273797513E+02  0.30390745851E+02  0.22895834666E+02  0.13246568296E+03  0.12508703379E+03 0.  0.
          5    1    3    3  502    0  0.50533470532E+02 -0.32935733740E+02  0.77460133090E+01  0.60957914360E+02  0.41800000000E+01 0. -1.
         -5    1    3    3    0  502 -0.29259673019E+02  0.63326479591E+02  0.15149821357E+02  0.71507768596E+02  0.41800000000E+01 0. -1.
        -11    1    1    2    0    0 -0.41668169286E+02 -0.23087865102E+02  0.51621065500E+02  0.70242581458E+02  0.00000000000E+00 0.  1.
         11    1    1    2    0    0  0.20394371772E+02 -0.73028807484E+01 -0.23608384990E+02  0.32040884961E+02  0.00000000000E+00 0. -1.
</event>
<event>
 7    1  0.2873461E-009  0.1460297E+03  0.7561462E-02  0.1205438E+00
          3   -1    0    0  501    0  0.00000000000E+00  0.00000000000E+00  0.10456443267E+03  0.10456443267E+03  0.00000000000E+00 0. -1.
         -3   -1    0    0    0  501 -0.00000000000E+00 -0.00000000000E+00 -0.24525976457E+03  0.24525976457E+03  0.00000000000E+00 0.  1.
         25    2    1    2    0    0 -0.81420329058E+02 -0.66294621277E+02 -0.18389459458E+02  0.16434449083E+03  0.12508674051E+03 0.  0.
          5    1    3    3  502    0  0.65775980288E+01 -0.69066479877E+02  0.13136527099E+02  0.70735310720E+02  0.41800000000E+01 0.  1.
         -5    1    3    3    0  502 -0.87997927087E+02  0.27718585998E+01 -0.31525986557E+02  0.93609180106E+02  0.41800000000E+01 0.  1.
        -11    1    1    2    0    0  0.65939168256E+02 -0.40585363447E+00 -0.35407367452E+02  0.74845309121E+02  0.00000000000E+00 0. -1.
         11    1    1    2    0    0  0.15481160802E+02  0.66700474912E+02 -0.86898504994E+02  0.11063439729E+03  0.00000000000E+00 0.  1.
</event>
<event>
 7    1  0.2873461E-009  0.8442129E+02  0.7561462E-02  0.1316953E+00
         -1   -1    0    0    0  501 -0.00000000000E+00  0.00000000000E+00  0.56552826227E+02  0.56552826227E+02  0.00000000000E+00 0.  1.
          1   -1    0    0  501    0  0.00000000000E+00 -0.00000000000E+00 -0.27442420807E+03  0.27442420807E+03  0.00000000000E+00 0. -1.
         25    2    1    2    0    0 -0.48705193349E+02  0.34910622633E+02 -0.12467548556E+03  0.18649968708E+03  0.12508880505E+03 0.  0.
          5    1    3    3  502    0 -0.66461334074E+01  0.56429089797E+02 -0.12681273482E+03  0.13902285919E+03  0.41800000000E+01 0.  1.
         -5    1    3    3    0  502 -0.42059059942E+02 -0.21518467164E+02  0.21372492581E+01  0.47476827892E+02  0.41800000000E+01 0.  1.
        -11    1    1    2    0    0  0.19676959062E+02 -0.28632312869E+02 -0.10643436559E+03  0.11196100319E+03  0.00000000000E+00 0. -1.
         11    1    1    2    0    0  0.29028234287E+02 -0.62783097647E+01  0.13238469302E+02  0.32516344026E+02  0.00000000000E+00 0.  1.
</event>
<event>
 7    1  0.2873461E-009  0.1975142E+03  0.7561462E-02  0.1151853E+00
         -2   -1    0    0    0  501 -0.00000000000E+00  0.00000000000E+00  0.10763585188E+04  0.10763585188E+04  0.00000000000E+00 0.  1.
          2   -1    0    0  501    0  0.00000000000E+00 -0.00000000000E+00 -0.37963157820E+02  0.37963157820E+02  0.00000000000E+00 0. -1.
         25    2    1    2    0    0 -0.44305128164E+02  0.16311991208E+03  0.49145365688E+03  0.53454792113E+03  0.12507490965E+03 0.  0.
          5    1    3    3  502    0 -0.88545894411E+01 -0.16916604923E+02  0.17271781808E+02  0.26083752091E+02  0.41800000000E+01 0. -1.
         -5    1    3    3    0  502 -0.35450538723E+02  0.18003651701E+03  0.47418187507E+03  0.50846416904E+03  0.41800000000E+01 0. -1.
        -11    1    1    2    0    0  0.35112080868E+02 -0.73158136527E+01  0.88444835043E+02  0.95440390811E+02  0.00000000000E+00 0. -1.
         11    1    1    2    0    0  0.91930472957E+01 -0.15580409843E+03  0.45849686907E+03  0.48433336469E+03  0.00000000000E+00 0.  1.
</event>
<event>
 7    1  0.2873461E-009  0.9481418E+02  0.7561462E-02  0.1291595E+00
         -1   -1    0    0    0  501 -0.00000000000E+00  0.00000000000E+00  0.18466550711E+03  0.18466550711E+03  0.00000000000E+00 0.  1.
          1   -1    0    0  501    0  0.00000000000E+00 -0.00000000000E+00 -0.66381579775E+02  0.66381579775E+02  0.00000000000E+00 0. -1.
         25    2    1    2    0    0  0.17885254810E+02  0.26558107865E+01  0.50224462941E+02  0.13601544805E+03  0.12510303657E+03 0.  0.
          5    1    3    3  502    0  0.50643254134E+02  0.40466908936E+02  0.55628102485E+02  0.85523494399E+02  0.41800000000E+01 0. -1.
         -5    1    3    3    0  502 -0.32757999325E+02 -0.37811098149E+02 -0.54036395441E+01  0.50491953649E+02  0.41800000000E+01 0. -1.
        -11    1    1    2    0    0 -0.38041673003E+02 -0.24102597495E+02  0.72417826976E+02  0.85278635981E+02  0.00000000000E+00 0.  1.
         11    1    1    2    0    0  0.20156418194E+02  0.21446786709E+02 -0.43583625812E+01  0.29753002855E+02  0.00000000000E+00 0. -1.
</event>
<event>
 7    1  0.2873461E-009  0.1227146E+03  0.7561462E-02  0.1238685E+00
          2   -1    0    0  501    0  0.00000000000E+00  0.00000000000E+00  0.11663461155E+03  0.11663461155E+03  0.00000000000E+00 0. -1.
         -2   -1    0    0    0  501 -0.00000000000E+00 -0.00000000000E+00 -0.13857085442E+03  0.13857085442E+03  0.00000000000E+00 0.  1.
         25    2    1    2    0    0 -0.27195784195E+02  0.53344650753E+02 -0.40541392343E+02  0.14448961139E+03  0.12509348850E+03 0.  0.
          5    1    3    3  502    0 -0.13980449999E+02  0.94015262041E+02 -0.33963782864E+02  0.10102145032E+03  0.41800000000E+01 0.  1.
         -5    1    3    3    0  502 -0.13215334196E+02 -0.40670611289E+02 -0.65776094790E+01  0.43468161072E+02  0.41800000000E+01 0.  1.
        -11    1    1    2    0    0  0.20664456761E+02  0.22872156643E+02  0.14620003984E+02  0.34115976304E+02  0.00000000000E+00 0.  1.
         11    1    1    2    0    0  0.65313274342E+01 -0.76216807395E+02  0.39851454864E+01  0.76599878278E+02  0.00000000000E+00 0. -1.
</event>
<event>
 7    1  0.2873461E-009  0.1088078E+03  0.7561462E-02  0.1262794E+00
         -3   -1    0    0    0  501 -0.00000000000E+00  0.00000000000E+00  0.18333854906E+02  0.18333854906E+02  0.00000000000E+00 0.  1.
          3   -1    0    0  501    0  0.00000000000E+00 -0.00000000000E+00 -0.79238629405E+03  0.79238629405E+03  0.00000000000E+00 0. -1.
         25    2    1    2    0    0 -0.40827120993E+02  0.26578880071E+02 -0.49939587853E+03  0.51712330553E+03  0.12508788490E+03 0.  0.
          5    1    3    3  502    0 -0.60015089050E+02 -0.20274869734E+02 -0.40480694222E+03  0.40975482197E+03  0.41800000000E+01 0. -1.
         -5    1    3    3    0  502  0.19187968057E+02  0.46853749805E+02 -0.94588936313E+02  0.10736848356E+03  0.41800000000E+01 0. -1.
        -11    1    1    2    0    0  0.65954221445E+02 -0.37567375880E+02 -0.21286039635E+03  0.22598852933E+03  0.00000000000E+00 0.  1.
         11    1    1    2    0    0 -0.25127100452E+02  0.10988495809E+02 -0.61796164266E+02  0.67608314099E+02  0.00000000000E+00 0. -1.
</event>
<event>
 7    1  0.2873461E-009  0.1771433E+03  0.7561462E-02  0.1170597E+00
         -2   -1    0    0    0  501 -0.00000000000E+00  0.00000000000E+00  0.15643929435E+02  0.15643929435E+02  0.00000000000E+00 0.  1.
          2   -1    0    0  501    0  0.00000000000E+00 -0.00000000000E+00 -0.24186373868E+04  0.24186373868E+04  0.00000000000E+00 0. -1.
         25    2    1    2    0    0  0.26165047330E+02 -0.15526859708E+03 -0.14936253697E+04  0.15071032780E+04  0.12510235316E+03 0.  0.
          5    1    3    3  502    0 -0.30691273246E+02 -0.11272782474E+03 -0.64556065705E+03  0.65606063063E+03  0.41800000000E+01 0. -1.
         -5    1    3    3    0  502  0.56856320577E+02 -0.42540772340E+02 -0.84806471263E+03  0.85104264741E+03  0.41800000000E+01 0. -1.
        -11    1    1    2    0    0  0.13763568559E+02  0.14782343605E+02 -0.32755244154E+02  0.38481937601E+02  0.00000000000E+00 0.  1.
         11    1    1    2    0    0 -0.39928615890E+02  0.14048625347E+03 -0.87661284354E+03  0.88869610061E+03  0.00000000000E+00 0. -1.
</event>
<event>
 7    1  0.2873461E-009  0.1402281E+03  0.7561462E-02  0.1213022E+00
          2   -1    0    0  501    0  0.00000000000E+00  0.00000000000E+00  0.93017456525E+03  0.93017456525E+03  0.00000000000E+00 0. -1.
         -2   -1    0    0    0  501 -0.00000000000E+00 -0.00000000000E+00 -0.25760782572E+02  0.25760782572E+02  0.00000000000E+00 0.  1.
         25    2    1    2    0    0  0.84652639081E+02 -0.67285041937E+02  0.41565616421E+03  0.44733680769E+03  0.12508727552E+03 0.  0.
          5    1    3    3  502    0  0.18649946213E+02  0.21801347193E+02  0.22410544989E+03  0.22597310527E+03  0.41800000000E+01 0. -1.
         -5    1    3    3    0  502  0.66002692868E+02 -0.89086389131E+02  0.19155071431E+03  0.22136370242E+03  0.41800000000E+01 0. -1.
        -11    1    1    2    0    0 -0.73709069673E+02  0.13982315523E+01  0.26850754491E+03  0.27844439962E+03  0.00000000000E+00 0.  1.
         11    1    1    2    0    0 -0.10943569407E+02  0.65886810385E+02  0.22025007356E+03  0.23015414052E+03  0.00000000000E+00 0. -1.
</event>
<event>
 7    1  0.2873461E-009  0.1673450E+03  0.7561462E-02  0.1180645E+00
         -1   -1    0    0    0  501 -0.00000000000E+00  0.00000000000E+00  0.18831509291E+03  0.18831509291E+03  0.00000000000E+00 0.  1.
          1   -1    0    0  501    0  0.00000000000E+00 -0.00000000000E+00 -0.18387343703E+03  0.18387343703E+03  0.00000000000E+00 0. -1.
         25    2    1    2    0    0  0.65806612866E+02 -0.12520558374E+03  0.54688804848E+02  0.19658443364E+03  0.12509046996E+03 0.  0.
          5    1    3    3  502    0  0.60369881921E+01 -0.10548338108E+03 -0.10027097877E+02  0.10621301240E+03  0.41800000000E+01 0.  1.
         -5    1    3    3    0  502  0.59769624674E+02 -0.19722202661E+02  0.64715902725E+02  0.90371421240E+02  0.41800000000E+01 0.  1.
        -11    1    1    2    0    0 -0.38384988604E+02  0.70803339399E+00 -0.24515881470E+02  0.45551477536E+02  0.00000000000E+00 0. -1.
         11    1    1    2    0    0 -0.27421624262E+02  0.12449755035E+03 -0.25731267494E+02  0.13005261876E+03  0.00000000000E+00 0.  1.
</event>
<event>
 7    1  0.2873461E-009  0.8460240E+02  0.7561462E-02  0.1316476E+00
         -4   -1    0    0    0  501 -0.00000000000E+00  0.00000000000E+00  0.77432878195E+02  0.77432878195E+02  0.00000000000E+00 0.  1.
          4   -1    0    0  501    0  0.00000000000E+00 -0.00000000000E+00 -0.17886801394E+03  0.17886801394E+03  0.00000000000E+00 0. -1.
         25    2    1    2    0    0  0.28606989230E+02 -0.40125625607E+02 -0.55354977823E+02  0.14539741480E+03  0.12509120271E+03 0.  0.
          5    1    3    3  502    0  0.43936159867E+02  0.77796287191E+00 -0.82664797323E+02  0.93711965547E+02  0.41800000000E+01 0.  1.
         -5    1    3    3    0  502 -0.15329170637E+02 -0.40903588479E+02  0.27309819500E+02  0.51685449249E+02  0.41800000000E+01 0.  1.
        -11    1    1    2    0    0 -0.34041420078E+02  0.55370438347E+02 -0.32065043109E+01  0.65076765390E+02  0.00000000000E+00 0.  1.
         11    1    1    2    0    0  0.54344308475E+01 -0.15244812740E+02 -0.42873653615E+02  0.45826711953E+02  0.00000000000E+00 0. -1.
</event>
<event>
 7    1  0.2873461E-009  0.7852281E+02  0.7561462E-02  0.1333297E+00
          1   -1    0    0  501    0  0.00000000000E+00  0.00000000000E+00  0.81921790369E+03  0.81921790369E+03  0.00000000000E+00 0. -1.
         -1   -1    0    0    0  501 -0.00000000000E+00 -0.00000000000E+00 -0.15215363264E+02  0.15215363264E+02  0.00000000000E+00 0.  1.
         25    2    1    2    0    0  0.11285210570E+02 -0.42626338985E+01  0.54177718969E+03  0.55616139866E+03  0.12508977599E+03 0.  0.
          5    1    3    3  502    0  0.23720426749E+02 -0.35868616161E+02  0.50129470925E+03  0.50315313195E+03  0.41800000000E+01 0.  1.
         -5    1    3    3    0  502 -0.12435216179E+02  0.31605982263E+02  0.40482480444E+02  0.53008266705E+02  0.41800000000E+01 0.  1.
        -11    1    1    2    0    0 -0.81881544505E+01 -0.37175305041E+02  0.54791993851E+02  0.66717402290E+02  0.00000000000E+00 0.  1.
         11    1    1    2    0    0 -0.30970561196E+01  0.41437938940E+02  0.20743335688E+03  0.21155446601E+03  0.00000000000E+00 0. -1.
</event>
<event>
 7    1  0.2873461E-009  0.1143263E+03  0.7561462E-02  0.1252762E+00
         -2   -1    0    0    0  501 -0.00000000000E+00  0.00000000000E+00  0.13743631000E+02  0.13743631000E+02  0.00000000000E+00 0.  1.
          2   -1    0    0  501    0  0.00000000000E+00 -0.00000000000E+00 -0.18135189632E+04  0.18135189632E+04  0.00000000000E+00 0. -1.
         25    2    1    2    0    0 -0.57623934905E+02  0.56998038290E+02 -0.14314080442E+04  0.14391485217E+04  0.12510069692E+03 0.  0.
          5    1    3    3  502    0 -0.55536635266E+02  0.85134621678E+02 -0.71810295547E+03  0.72527343031E+03  0.41800000000E+01 0. -1.
         -5    1    3    3    0  502 -0.20872996391E+01 -0.28136583387E+02 -0.71330508868E+03  0.71387509138E+03  0.41800000000E+01 0. -1.
        -11    1    1    2    0    0 -0.94519721430E+01 -0.19210188919E+02 -0.14235314049E+02  0.25710217847E+02  0.00000000000E+00 0.  1.
         11    1    1    2    0    0  0.67075907048E+02 -0.37787849372E+02 -0.35413197397E+03  0.36240385463E+03  0.00000000000E+00 0. -1.
</event>
<event>
 7    1  0.2873461E-009  0.6598525E+02  0.7561462E-02  0.1374303E+00
         -2   -1    0    0    0  501 -0.00000000000E+00  0.00000000000E+00  0.25507183187E+03  0.25507183187E+03  0.00000000000E+00 0. -1.
          2   -1    0    0  501    0  0.00000000000E+00 -0.00000000000E+00 -0.82935829657E+02  0.82935829657E+02  0.00000000000E+00 0.  1.
         25    2    1    2    0    0 -0.46093057370E+02 -0.28164718661E+02  0.18615010684E+03  0.23068972811E+03  0.12509223423E+03 0.  0.
          5    1    3    3  502    0 -0.38701744512E+02 -0.11514118040E+02  0.20208891173E+03  0.20612569123E+03  0.41800000000E+01 0. -1.
         -5    1    3    3    0  502 -0.73913128582E+01 -0.16650600621E+02 -0.15938804884E+02  0.24564036882E+02  0.41800000000E+01 0. -1.
        -11    1    1    2    0    0  0.36080083524E+02 -0.64497987624E+01  0.32150792909E+02  0.48754956834E+02  0.00000000000E+00 0. -1.
         11    1    1    2    0    0  0.10012973845E+02  0.34614517424E+02 -0.46164897536E+02  0.58562976583E+02  0.00000000000E+00 0.  1.
</event>
<event>
 7    1  0.2873461E-009  0.1326782E+03  0.7561462E-02  0.1223535E+00
         -1   -1    0    0    0  501 -0.00000000000E+00  0.00000000000E+00  0.25036504260E+03  0.25036504260E+03  0.00000000000E+00 0.  1.
          1   -1    0    0  501    0  0.00000000000E+00 -0.00000000000E+00 -0.13477188331E+03  0.13477188331E+03  0.00000000000E+00 0. -1.
         25    2    1    2    0    0  0.40510569681E+02  0.66275969626E+02 -0.70100442683E+02  0.16308101250E+03  0.12509090362E+03 0.  0.
          5    1    3    3  502    0 -0.22540518866E+02 -0.26038797954E+02 -0.23446240985E+02  0.41872337002E+02  0.41800000000E+01 0. -1.
         -5    1    3    3    0  502  0.63051088547E+02  0.92314767580E+02 -0.46654201698E+02  0.12120867550E+03  0.41800000000E+01 0. -1.
        -11    1    1    2    0    0 -0.58574919919E+02 -0.96603305142E+01  0.11717806038E+03  0.13135844496E+03  0.00000000000E+00 0.  1.
         11    1    1    2    0    0  0.18064350237E+02 -0.56615639112E+02  0.68515541592E+02  0.90697468438E+02  0.00000000000E+00 0. -1.
</event>
<event>
 7    1  0.2873461E-009  0.1316182E+03  0.7561462E-02  0.1225074E+00
          1   -1    0    0  501    0  0.00000000000E+00  0.00000000000E+00  0.12882318103E+03  0.12882318103E+03  0.00000000000E+00 0.  1.
         -1   -1    0    0    0  501 -0.00000000000E+00 -0.00000000000E+00 -0.18249347079E+03  0.18249347079E+03  0.00000000000E+00 0. -1.
         25    2    1    2    0    0 -0.26814542457E+02  0.99190630747E+02 -0.48515932155E+02  0.16899502021E+03  0.12509084805E+03 0.  0.
          5    1    3    3  502    0 -0.36757364796E+02  0.10441417335E+03 -0.79120054215E+02  0.13612817064E+03  0.41800000000E+01 0. -1.
         -5    1    3    3    0  502  0.99428223397E+01 -0.52235425993E+01  0.30604122061E+02  0.32866849567E+02  0.41800000000E+01 0. -1.
        -11    1    1    2    0    0 -0.36248804457E+02 -0.40123324493E+02 -0.12835581280E+02  0.55575256542E+02  0.00000000000E+00 0. -1.
         11    1    1    2    0    0  0.63063346914E+02 -0.59067306254E+02  0.76812236775E+01  0.86746375079E+02  0.00000000000E+00 0.  1.
</event>
<event>
 7    1  0.2873461E-009  0.1042336E+03  0.7561462E-02  0.1271637E+00
         -3   -1    0    0    0  501 -0.00000000000E+00  0.00000000000E+00  0.51714725562E+03  0.51714725562E+03  0.00000000000E+00 0.  1.
          3   -1    0    0  501    0  0.00000000000E+00 -0.00000000000E+00 -0.24956061557E+02  0.24956061557E+02  0.00000000000E+00 0. -1.
         25    2    1    2    0    0 -0.34853893878E+02  0.35953656911E+01  0.26490988957E+03  0.29504588547E+03  0.12508838622E+03 0.  0.
          5    1    3    3  502    0  0.13725507311E+02 -0.44441768757E+02  0.45475177167E+02  0.65183774818E+02  0.41800000000E+01 0. -1.
         -5    1    3    3    0  502 -0.48579401189E+02  0.48037134448E+02  0.21943471241E+03  0.22986211065E+03  0.41800000000E+01 0. -1.
        -11    1    1    2    0    0  0.16421814839E+02  0.41484822801E+02  0.14205501671E+03  0.14889692508E+03  0.00000000000E+00 0. -1.
         11    1    1    2    0    0  0.18432079039E+02 -0.45080188492E+02  0.85226287774E+02  0.98160506620E+02  0.00000000000E+00 0.  1.
</event>
<event>
 7    1  0.4132478E-009  0.1422434E+03  0.7561462E-02  0.1210342E+00
         -2   -1    0    0    0  501 -0.00000000000E+00  0.00000000000E+00  0.60386343094E+02  0.60386343094E+02  0.00000000000E+00 0.  1.
          2   -1    0    0  501    0  0.00000000000E+00 -0.00000000000E+00 -0.63375526907E+03  0.63375526907E+03  0.00000000000E+00 0. -1.
         25    2    1    2    0    0 -0.21733263242E+02 -0.12295379930E+03 -0.48486832793E+03  0.51607654117E+03  0.12509088466E+03 0.  0.
          5    1    3    3  502    0  0.27733486092E+02 -0.91867548388E+02 -0.40955233659E+03  0.42066540326E+03  0.41800000000E+01 0. -1.
         -5    1    3    3    0  502 -0.49466749334E+02 -0.31086250907E+02 -0.75315991339E+02  0.95411137906E+02  0.41800000000E+01 0. -1.
        -11    1    1    2    0    0 -0.89967451879E+01  0.48273428497E+02  0.10591785396E+02  0.50233965011E+02  0.00000000000E+00 0.  1.
         11    1    1    2    0    0  0.30730008430E+02  0.74680370798E+02 -0.99092383445E+02  0.12783110599E+03  0.00000000000E+00 0. -1.
</event>
<event>
 7    1  0.2873461E-009  0.6929582E+02  0.7561462E-02  0.1362504E+00
          2   -1    0    0  501    0  0.00000000000E+00  0.00000000000E+00  0.14993407946E+02  0.14993407946E+02  0.00000000000E+00 0. -1.
         -2   -1    0    0    0  501 -0.00000000000E+00 -0.00000000000E+00 -0.10244891413E+04  0.10244891413E+04  0.00000000000E+00 0.  1.
         25    2    1    2    0    0  0.13184618874E+02  0.31494822592E+01 -0.80890745299E+03  0.81863523340E+03  0.12509446211E+03 0.  0.
          5    1    3    3  502    0  0.97369745636E+01 -0.37377019334E+02 -0.83708063396E+02  0.92284140162E+02  0.41800000000E+01 0.  1.
         -5    1    3    3    0  502  0.34476443102E+01  0.40526501593E+02 -0.72519938959E+03  0.72635109324E+03  0.41800000000E+01 0.  1.
        -11    1    1    2    0    0 -0.35894852163E+02 -0.40751001082E+01 -0.19378268421E+03  0.19712122045E+03  0.00000000000E+00 0.  1.
         11    1    1    2    0    0  0.22710233289E+02  0.92561784908E+00 -0.68055961808E+01  0.23726095419E+02  0.00000000000E+00 0. -1.
</event>
<event>
 7    1  0.2873461E-009  0.1889877E+03  0.7561462E-02  0.1159377E+00
          2   -1    0    0  501    0  0.00000000000E+00  0.00000000000E+00  0.61737472046E+02  0.61737472046E+02  0.00000000000E+00 0. -1.
         -2   -1    0    0    0  501 -0.00000000000E+00 -0.00000000000E+00 -0.65944984403E+03  0.65944984403E+03  0.00000000000E+00 0.  1.
         25    2    1    2    0    0  0.13202422082E+03  0.10374922008E+03 -0.27460947884E+03  0.34532849908E+03  0.12508841216E+03 0.  0.
          5    1    3    3  502    0 -0.18757033112E+02  0.29703871173E+02 -0.21118283079E+02  0.41201948182E+02  0.41800000000E+01 0. -1.
         -5    1    3    3    0  502  0.15078125393E+03  0.74045348910E+02 -0.25349119576E+03  0.30412655089E+03  0.41800000000E+01 0. -1.
        -11    1    1    2    0    0 -0.63625010298E+02 -0.20557032781E+02 -0.20683247989E+03  0.21737159030E+03  0.00000000000E+00 0.  1.
         11    1    1    2    0    0 -0.68399210521E+02 -0.83192187302E+02 -0.11627041326E+03  0.15848722670E+03  0.00000000000E+00 0. -1.
</event>
<event>
 7    1  0.2873461E-009  0.1215794E+03  0.7561462E-02  0.1240514E+00
          1   -1    0    0  501    0  0.00000000000E+00  0.00000000000E+00  0.15827942855E+03  0.15827942855E+03  0.00000000000E+00 0. -1.
         -1   -1    0    0    0  501 -0.00000000000E+00 -0.00000000000E+00 -0.12610388446E+03  0.12610388446E+03  0.00000000000E+00 0.  1.
         25    2    1    2    0    0  0.38786271495E+02  0.51017068714E+02  0.79695270720E+02  0.16157336616E+03  0.12508996890E+03 0.  0.
          5    1    3    3  502    0  0.46578695614E+02  0.85327407875E+02  0.32559356766E+02  0.10260567983E+03  0.41800000000E+01 0.  1.
         -5    1    3    3    0  502 -0.77924241191E+01 -0.34310339161E+02  0.47135913954E+02  0.58967686332E+02  0.41800000000E+01 0.  1.
        -11    1    1    2    0    0 -0.53691878300E+02 -0.68767715403E+02 -0.48094730615E+02  0.99623890659E+02  0.00000000000E+00 0.  1.
         11    1    1    2    0    0  0.14905606804E+02  0.17750646689E+02  0.57500397826E+00  0.23186056191E+02  0.00000000000E+00 0. -1.
</event>
<event>
 7    1  0.2873461E-009  0.8367217E+02  0.7561462E-02  0.1318942E+00
          2   -1    0    0  501    0  0.00000000000E+00  0.00000000000E+00  0.55712342410E+02  0.55712342410E+02  0.00000000000E+00 0. -1.
         -2   -1    0    0    0  501 -0.00000000000E+00 -0.00000000000E+00 -0.22627124863E+03  0.22627124863E+03  0.00000000000E+00 0.  1.
         25    2    1    2    0    0  0.27047553610E+01 -0.29920225706E+02 -0.99184184418E+02  0.16244424885E+03  0.12509234964E+03 0.  0.
          5    1    3    3  502    0  0.22333262196E+02  0.11686865447E+02  0.21391219651E+02  0.33322876563E+02  0.41800000000E+01 0.  1.
         -5    1    3    3    0  502 -0.19628506834E+02 -0.41607091153E+02 -0.12057540407E+03  0.12912137229E+03  0.41800000000E+01 0.  1.
        -11    1    1    2    0    0 -0.46512745552E+02  0.10516768864E+02 -0.30938770797E+02  0.56844045111E+02  0.00000000000E+00 0. -1.
         11    1    1    2    0    0  0.43807990191E+02  0.19403456842E+02 -0.40435951002E+02  0.62695297076E+02  0.00000000000E+00 0.  1.
</event>
<event>
 7    1  0.2873461E-009  0.1153569E+03  0.7561462E-02  0.1250959E+00
         -1   -1    0    0    0  501 -0.00000000000E+00  0.00000000000E+00  0.75726029443E+02  0.75726029443E+02  0.00000000000E+00 0.  1.
          1   -1    0    0  501    0  0.00000000000E+00 -0.00000000000E+00 -0.31495885449E+03  0.31495885449E+03  0.00000000000E+00 0. -1.
         25    2    1    2    0    0  0.66482619685E+02 -0.53599745607E+02 -0.42871444301E+02  0.15740837880E+03  0.12508623238E+03 0.  0.
          5    1    3    3  502    0  0.27709525482E+02  0.33932293142E+02  0.13747621166E+02  0.46105182009E+02  0.41800000000E+01 0. -1.
         -5    1    3    3    0  502  0.38773094202E+02 -0.87532038750E+02 -0.56619065467E+02  0.11130319679E+03  0.41800000000E+01 0. -1.
        -11    1    1    2    0    0 -0.17365963767E+02  0.33648277131E+02 -0.94979337417E+01  0.39038365703E+02  0.00000000000E+00 0.  1.
         11    1    1    2    0    0 -0.49116655918E+02  0.19951468477E+02 -0.18686344700E+03  0.19423813943E+03  0.00000000000E+00 0. -1.
</event>
<event>
 7    1  0.2873461E-009  0.1182486E+03  0.7561462E-02  0.1246015E+00
         -2   -1    0    0    0  501 -0.00000000000E+00  0.00000000000E+00  0.35782453601E+02  0.35782453601E+02  0.00000000000E+00 0.  1.
          2   -1    0    0  501    0  0.00000000000E+00 -0.00000000000E+00 -0.53486472243E+03  0.53486472243E+03  0.00000000000E+00 0. -1.
         25    2    1    2    0    0  0.81045226637E+02  0.30778175740E+02 -0.21220093979E+03  0.26113673420E+03  0.12509008849E+03 0.  0.
          5    1    3    3  502    0  0.92154711253E+02  0.52330981222E+02 -0.21140623601E+03  0.23651869149E+03  0.41800000000E+01 0.  1.
         -5    1    3    3    0  502 -0.11109484616E+02 -0.21552805482E+02 -0.79470377562E+00  0.24618042706E+02  0.41800000000E+01 0.  1.
        -11    1    1    2    0    0 -0.76292557715E+01 -0.31502789645E+02 -0.37603186789E+02  0.49645049660E+02  0.00000000000E+00 0.  1.
         11    1    1    2    0    0 -0.73415970865E+02  0.72461390518E+00 -0.24927814225E+03  0.25986539217E+03  0.00000000000E+00 0. -1.
</event>
<event>
 7    1  0.2873461E-009  0.1099260E+03  0.7561462E-02  0.1260707E+00
          1   -1    0    0  501    0  0.00000000000E+00  0.00000000000E+00  0.18181920217E+03  0.18181920217E+03  0.00000000000E+00 0. -1.
         -1   -1    0    0    0  501 -0.00000000000E+00 -0.00000000000E+00 -0.86367655136E+02  0.86367655136E+02  0.00000000000E+00 0.  1.
         25    2    1    2    0    0 -0.52924280258E+02 -0.85722033865E+01  0.18304623813E+02  0.13732191018E+03  0.12509110940E+03 0.  0.
          5    1    3    3  502    0 -0.87057973076E+02 -0.29185500405E+02 -0.29113897475E+01  0.91961039034E+02  0.41800000000E+01 0.  1.
         -5    1    3    3    0  502  0.34133692818E+02  0.20613297019E+02  0.21216013560E+02  0.45360871142E+02  0.41800000000E+01 0.  1.
        -11    1    1    2    0    0 -0.15807837277E+02  0.10682815126E+02  0.55632864390E+02  0.58813483646E+02  0.00000000000E+00 0. -1.
         11    1    1    2    0    0  0.68732117535E+02 -0.21106117394E+01  0.21514058830E+02  0.72051463484E+02  0.00000000000E+00 0.  1.
</event>
<event>
 7    1  0.2873461E-009  0.2140594E+03  0.7561462E-02  0.1138391E+00
         -1   -1    0    0    0  501 -0.00000000000E+00  0.00000000000E+00  0.48995676165E+02  0.48995676165E+02  0.00000000000E+00 0.  1.
          1   -1    0    0  501    0  0.00000000000E+00 -0.00000000000E+00 -0.11211179125E+04  0.11211179125E+04  0.00000000000E+00 0. -1.
         25    2    1    2    0    0  0.16185862268E+03  0.11306295220E+03 -0.39778440336E+03  0.46136894067E+03  0.12508965971E+03 0.  0.
          5    1    3    3  502    0 -0.28624026318E+01  0.51225886355E+02 -0.14063792043E+03  0.14976241799E+03  0.41800000000E+01 0. -1.
         -5    1    3    3    0  502  0.16472102531E+03  0.61837065849E+02 -0.25714648293E+03  0.31160652268E+03  0.41800000000E+01 0. -1.
        -11    1    1    2    0    0 -0.78913564762E+02 -0.76819996138E+02 -0.22655357386E+03  0.25190312491E+03  0.00000000000E+00 0.  1.
         11    1    1    2    0    0 -0.82945057919E+02 -0.36242956066E+02 -0.44778425916E+03  0.45684152312E+03  0.00000000000E+00 0. -1.
</event>
<event>
 7    1  0.2873461E-009  0.2305670E+03  0.7561462E-02  0.1126241E+00
          1   -1    0    0  501    0  0.00000000000E+00  0.00000000000E+00  0.89496154056E+03  0.89496154056E+03  0.00000000000E+00 0. -1.
         -1   -1    0    0    0  501 -0.00000000000E+00 -0.00000000000E+00 -0.63556948371E+02  0.63556948371E+02  0.00000000000E+00 0.  1.
         25    2    1    2    0    0 -0.20237236671E+03 -0.59672167136E+02  0.37987307029E+03  0.45217980665E+03  0.12509070977E+03 0.  0.
          5    1    3    3  502    0 -0.16367221224E+03 -0.95103235678E+02  0.26366958946E+03  0.32461106466E+03  0.41800000000E+01 0. -1.
         -5    1    3    3    0  502 -0.38700154464E+02  0.35431068542E+02  0.11620348084E+03  0.12756874199E+03  0.41800000000E+01 0. -1.
        -11    1    1    2    0    0  0.51668312524E+02  0.43582702313E+02  0.77903052336E+02  0.10314044805E+03  0.00000000000E+00 0.  1.
         11    1    1    2    0    0  0.15070405418E+03  0.16089464823E+02  0.37362846956E+03  0.40319823424E+03  0.00000000000E+00 0. -1.
</event>
<event>
 7    1  0.2873461E-009  0.1097637E+03  0.7561462E-02  0.1261008E+00
         -2   -1    0    0    0  501 -0.00000000000E+00  0.00000000000E+00  0.17555973316E+03  0.17555973316E+03  0.00000000000E+00 0.  1.
          2   -1    0    0  501    0  0.00000000000E+00 -0.00000000000E+00 -0.98823164196E+02  0.98823164196E+02  0.00000000000E+00 0. -1.
         25    2    1    2    0    0 -0.75579203184E+02  0.80332176265E+01  0.61697767533E+02  0.15883768161E+03  0.12508415584E+03 0.  0.
          5    1    3    3  502    0 -0.70546843607E+02  0.56952122001E+02  0.61222673450E+02  0.10948100058E+03  0.41800000000E+01 0. -1.
         -5    1    3    3    0  502 -0.50323595772E+01 -0.48918904375E+02  0.47509408315E+00  0.49356681032E+02  0.41800000000E+01 0. -1.
        -11    1    1    2    0    0  0.30148820865E+02  0.80701862860E+01  0.47927428428E+02  0.57193685857E+02  0.00000000000E+00 0.  1.
         11    1    1    2    0    0  0.45430382320E+02 -0.16103403912E+02 -0.32888626992E+02  0.58351529892E+02  0.00000000000E+00 0. -1.
</event>
<event>
 7    1  0.2873461E-009  0.1175192E+03  0.7561462E-02  0.1247247E+00
         -2   -1    0    0    0  501 -0.00000000000E+00  0.00000000000E+00  0.10864789517E+03  0.10864789517E+03  0.00000000000E+00 0.  1.
          2   -1    0    0  501    0  0.00000000000E+00 -0.00000000000E+00 -0.19557929350E+03  0.19557929350E+03  0.00000000000E+00 0. -1.
         25    2    1    2    0    0 -0.11086666184E+02  0.86323821492E+02 -0.19381994489E+01  0.15240096883E+03  0.12509029682E+03 0.  0.
          5    1    3    3  502    0 -0.29728851579E+02  0.11070138025E+03  0.17215765188E+02  0.11598471958E+03  0.41800000000E+01 0. -1.
         -5    1    3    3    0  502  0.18642185396E+02 -0.24377558761E+02 -0.19153964637E+02  0.36416249241E+02  0.41800000000E+01 0. -1.
        -11    1    1    2    0    0 -0.59006849411E+01 -0.17128295390E+02  0.18685168347E+02  0.26025604737E+02  0.00000000000E+00 0.  1.
         11    1    1    2    0    0  0.16987351125E+02 -0.69195526101E+02 -0.10367836722E+03  0.12580061511E+03  0.00000000000E+00 0. -1.
</event>
<event>
 7    1  0.2873461E-009  0.1151853E+03  0.7561462E-02  0.1251258E+00
         -1   -1    0    0    0  501 -0.00000000000E+00  0.00000000000E+00  0.45059308172E+02  0.45059308172E+02  0.00000000000E+00 0.  1.
          1   -1    0    0  501    0  0.00000000000E+00 -0.00000000000E+00 -0.39263956050E+03  0.39263956050E+03  0.00000000000E+00 0. -1.
         25    2    1    2    0    0 -0.34898543422E+01  0.76322903549E+02 -0.19626060712E+03  0.24495325863E+03  0.12508600368E+03 0.  0.
          5    1    3    3  502    0  0.14366433613E+02 -0.27015496171E+02 -0.12465361558E+02  0.33302989159E+02  0.41800000000E+01 0.  1.
         -5    1    3    3    0  502 -0.17856287955E+02  0.10333839972E+03 -0.18379524556E+03  0.21165026947E+03  0.41800000000E+01 0.  1.
        -11    1    1    2    0    0 -0.12842524110E+02  0.32958897012E+01  0.68439693820E+01  0.14920899146E+02  0.00000000000E+00 0.  1.
         11    1    1    2    0    0  0.16332378452E+02 -0.79618793250E+02 -0.15816361459E+03  0.17782471090E+03  0.00000000000E+00 0. -1.
</event>
<event>
 7    1  0.2873461E-009  0.1061846E+03  0.7561462E-02  0.1267803E+00
          3   -1    0    0  501    0  0.00000000000E+00  0.00000000000E+00  0.16381180451E+02  0.16381180451E+02  0.00000000000E+00 0. -1.
         -3   -1    0    0    0  501 -0.00000000000E+00 -0.00000000000E+00 -0.78820159329E+03  0.78820159329E+03  0.00000000000E+00 0.  1.
         25    2    1    2    0    0  0.15675496621E+02 -0.28363675268E+02 -0.47883063036E+03  0.49596292912E+03  0.12510090019E+03 0.  0.
          5    1    3    3  502    0  0.62371797325E+02 -0.39794724218E+02 -0.36292150604E+03  0.37040970981E+03  0.41800000000E+01 0.  1.
         -5    1    3    3    0  502 -0.46696300704E+02  0.11431048949E+02 -0.11590912432E+03  0.12555321931E+03  0.41800000000E+01 0.  1.
        -11    1    1    2    0    0 -0.50062501152E+01 -0.30133720665E+02 -0.16074515144E+03  0.16362184259E+03  0.00000000000E+00 0. -1.
         11    1    1    2    0    0 -0.10669246506E+02  0.58497395933E+02 -0.13224463103E+03  0.14499800202E+03  0.00000000000E+00 0.  1.
</event>
<event>
 7    1  0.2873461E-009  0.1593702E+03  0.7561462E-02  0.1189410E+00
         -1   -1    0    0    0  501 -0.00000000000E+00  0.00000000000E+00  0.42166606651E+02  0.42166606651E+02  0.00000000000E+00 0.  1.
          1   -1    0    0  501    0  0.00000000000E+00 -0.00000000000E+00 -0.10497808397E+04  0.10497808397E+04  0.00000000000E+00 0. -1.
         25    2    1    2    0    0  0.11142391177E+03 -0.99393253172E+02 -0.26558399132E+03  0.32935866302E+03  0.12509182857E+03 0.  0.
          5    1    3    3  502    0  0.38074733417E+02 -0.64035973523E+02 -0.22739528840E+03  0.23932484371E+03  0.41800000000E+01 0. -1.
         -5    1    3    3    0  502  0.73349178354E+02 -0.35357279649E+02 -0.38188702911E+02  0.90033819310E+02  0.41800000000E+01 0. -1.
        -11    1    1    2    0    0 -0.56986893601E+02  0.91198514234E+02 -0.61213920231E+03  0.62151353810E+03  0.00000000000E+00 0. -1.
         11    1    1    2    0    0 -0.54437018171E+02  0.81947389376E+01 -0.12989103947E+03  0.14107524527E+03  0.00000000000E+00 0.  1.
</event>
<event>
 7    1  0.2873461E-009  0.1202593E+03  0.7561462E-02  0.1242670E+00
         -1   -1    0    0    0  501 -0.00000000000E+00  0.00000000000E+00  0.37974855018E+03  0.37974855018E+03  0.00000000000E+00 0.  1.
          1   -1    0    0  501    0  0.00000000000E+00 -0.00000000000E+00 -0.42181096664E+02  0.42181096664E+02  0.00000000000E+00 0. -1.
         25    2    1    2    0    0  0.11188834221E+02 -0.53629602970E+02  0.12881702692E+03  0.18773098863E+03  0.12509106020E+03 0.  0.
          5    1    3    3  502    0  0.70116583737E+01  0.39865602018E+02  0.24395712607E+02  0.47445260785E+02  0.41800000000E+01 0.  1.
         -5    1    3    3    0  502  0.41771758474E+01 -0.93495204987E+02  0.10442131432E+03  0.14028572785E+03  0.41800000000E+01 0.  1.
        -11    1    1    2    0    0  0.21913963128E+02 -0.17267462858E+02  0.52571950912E+02  0.59516359736E+02  0.00000000000E+00 0. -1.
         11    1    1    2    0    0 -0.33102797349E+02  0.70897065828E+02  0.15617847569E+03  0.17468229848E+03  0.00000000000E+00 0.  1.
</event>
<event>
 7    1  0.2873461E-009  0.1298846E+03  0.7561462E-02  0.1227627E+00
         -2   -1    0    0    0  501 -0.00000000000E+00  0.00000000000E+00  0.15592436755E+03  0.15592436755E+03  0.00000000000E+00 0.  1.
          2   -1    0    0  501    0  0.00000000000E+00 -0.00000000000E+00 -0.15511550784E+03  0.15511550784E+03  0.00000000000E+00 0. -1.
         25    2    1    2    0    0 -0.77121393851E+02 -0.56234610098E+02  0.59162509041E+02  0.16810098680E+03  0.12509076114E+03 0.  0.
          5    1    3    3  502    0 -0.81371601441E+02 -0.84506933102E+01 -0.11366574806E+02  0.82700805083E+02  0.41800000000E+01 0.  1.
         -5    1    3    3    0  502  0.42502075906E+01 -0.47783916788E+02  0.70529083848E+02  0.85400181713E+02  0.41800000000E+01 0.  1.
        -11    1    1    2    0    0  0.30231124082E+02 -0.22756464048E+02 -0.10039594091E+02  0.39148064687E+02  0.00000000000E+00 0.  1.
         11    1    1    2    0    0  0.46890269769E+02  0.78991074147E+02 -0.48314055245E+02  0.10379082391E+03  0.00000000000E+00 0. -1.
</event>
<event>
 7    1  0.2873461E-009  0.1177604E+03  0.7561462E-02  0.1246838E+00
         -1   -1    0    0    0  501 -0.00000000000E+00  0.00000000000E+00  0.18894524261E+02  0.18894524261E+02  0.00000000000E+00 0.  1.
          1   -1    0    0  501    0  0.00000000000E+00 -0.00000000000E+00 -0.79291374638E+03  0.79291374638E+03  0.00000000000E+00 0. -1.
         25    2    1    2    0    0  0.22358051799E+02  0.40391864770E+02 -0.32635133564E+03  0.35254030188E+03  0.12509230573E+03 0.  0.
          5    1    3    3  502    0 -0.33026581851E+02 -0.29117425887E+02 -0.11602080302E+03  0.12416472419E+03  0.41800000000E+01 0.  1.
         -5    1    3    3    0  502  0.55384633650E+02  0.69509290657E+02 -0.21033053263E+03  0.22837557769E+03  0.41800000000E+01 0.  1.
        -11    1    1    2    0    0  0.23559366784E+02  0.16828872895E+02 -0.14161023693E+03  0.14453966213E+03  0.00000000000E+00 0.  1.
         11    1    1    2    0    0 -0.45917418583E+02 -0.57220737665E+02 -0.30605764954E+03  0.31472830663E+03  0.00000000000E+00 0. -1.
</event>
<event>
 7    1  0.2873461E-009  0.8043737E+02  0.7561462E-02  0.1327815E+00
         -2   -1    0    0    0  501 -0.00000000000E+00  0.00000000000E+00  0.15054107934E+02  0.15054107934E+02  0.00000000000E+00 0.  1.
          2   -1    0    0  501    0  0.00000000000E+00 -0.00000000000E+00 -0.84188847656E+03  0.84188847656E+03  0.00000000000E+00 0. -1.
         25    2    1    2    0    0 -0.12063558786E+02  0.21362938835E+02 -0.39952208184E+03  0.41936923700E+03  0.12510299139E+03 0.  0.
          5    1    3    3  502    0 -0.37182960593E+02  0.16173679140E+02 -0.34442652446E+02  0.53365992569E+02  0.41800000000E+01 0.  1.
         -5    1    3    3    0  502  0.25119401807E+02  0.51892596945E+01 -0.36507942940E+03  0.36600324443E+03  0.41800000000E+01 0.  1.
        -11    1    1    2    0    0 -0.31873895028E+02 -0.35744957229E+02 -0.22653842929E+03  0.23154547522E+03  0.00000000000E+00 0.  1.
         11    1    1    2    0    0  0.43937453814E+02  0.14382018395E+02 -0.20077385750E+03  0.20602787228E+03  0.00000000000E+00 0. -1.
</event>
<event>
 7    1  0.2873461E-009  0.1106969E+03  0.7561462E-02  0.1259285E+00
         -1   -1    0    0    0  501 -0.00000000000E+00  0.00000000000E+00  0.11178835541E+03  0.11178835541E+03  0.00000000000E+00 0.  1.
          1   -1    0    0  501    0  0.00000000000E+00 -0.00000000000E+00 -0.11351375942E+03  0.11351375942E+03  0.00000000000E+00 0. -1.
         25    2    1    2    0    0 -0.31436381183E+02  0.38135091123E+01 -0.19466706988E+01  0.12905723512E+03  0.12509672856E+03 0.  0.
          5    1    3    3  502    0  0.31492796046E+02  0.43960821143E+02  0.80588413511E+00  0.54244555926E+02  0.41800000000E+01 0.  1.
         -5    1    3    3    0  502 -0.62929177228E+02 -0.40147312031E+02 -0.27525548339E+01  0.74812679193E+02  0.41800000000E+01 0.  1.
        -11    1    1    2    0    0 -0.28539047469E+02  0.11049654460E+02  0.12826251994E+02  0.33182598366E+02  0.00000000000E+00 0.  1.
         11    1    1    2    0    0  0.59975428652E+02 -0.14863163572E+02 -0.12604985304E+02  0.63062281340E+02  0.00000000000E+00 0. -1.
</event>
<event>
 7    1  0.2873461E-009  0.1065910E+03  0.7561462E-02  0.1267016E+00
          2   -1    0    0  501    0  0.00000000000E+00  0.00000000000E+00  0.56930333027E+02  0.56930333027E+02  0.00000000000E+00 0.  1.
         -2   -1    0    0    0  501 -0.00000000000E+00 -0.00000000000E+00 -0.26619187134E+03  0.26619187134E+03  0.00000000000E+00 0. -1.
         25    2    1    2    0    0 -0.30527764611E+02  0.26764826465E+02 -0.17379203677E+03  0.21794301070E+03  0.12508870261E+03 0.  0.
          5    1    3    3  502    0 -0.32345386783E+02 -0.46907394783E+02 -0.65888032057E+02  0.87207986445E+02  0.41800000000E+01 0.  1.
         -5    1    3    3    0  502  0.18176221724E+01  0.73672221249E+02 -0.10790400471E+03  0.13073502425E+03  0.41800000000E+01 0.  1.
        -11    1    1    2    0    0  0.25245312797E+01 -0.47390786771E+02  0.94292313687E+01  0.48385641808E+02  0.00000000000E+00 0.  1.
         11    1    1    2    0    0  0.28003233331E+02  0.20625960305E+02 -0.44898732914E+02  0.56793551859E+02  0.00000000000E+00 0. -1.
</event>
<event>
 7    1  0.2873461E-009  0.8931435E+02  0.7561462E-02  0.1304521E+00
         -1   -1    0    0    0  501 -0.00000000000E+00  0.00000000000E+00  0.16860734746E+03  0.16860734746E+03  0.00000000000E+00 0.  1.
          1   -1    0    0  501    0  0.00000000000E+00 -0.00000000000E+00 -0.93438366547E+02  0.93438366547E+02  0.00000000000E+00 0. -1.
         25    2    1    2    0    0 -0.50556698625E+02  0.40068332758E+02  0.34916346541E+02  0.14501321604E+03  0.12509288751E+03 0.  0.
          5    1    3    3  502    0 -0.29690908358E+02  0.14297871258E+01  0.77862816450E+02  0.83448696311E+02  0.41800000000E+01 0.  1.
         -5    1    3    3    0  502 -0.20865790266E+02  0.38638545633E+02 -0.42946469909E+02  0.61564519731E+02  0.41800000000E+01 0.  1.
        -11    1    1    2    0    0 -0.36415240842E+01  0.21884716814E+02  0.24809225781E+02  0.33282115491E+02  0.00000000000E+00 0.  1.
         11    1    1    2    0    0  0.54198222709E+02 -0.61953049573E+02  0.15443408594E+02  0.83750382478E+02  0.00000000000E+00 0. -1.
</event>
