<event>
 8    1  0.3719512E-009  0.1162058E+03  0.7561462E-02  0.1249491E+00
          2   -1    0    0  501    0  0.00000000000E+00  0.00000000000E+00  0.85988403850E+02  0.85988403850E+02  0.00000000000E+00 0.  1.
         -2   -1    0    0    0  501 -0.00000000000E+00 -0.00000000000E+00 -0.32971362199E+03  0.32971362199E+03  0.00000000000E+00 0. -1.
         25    2    1    2    0    0 -0.91183031713E+01 -0.69783030562E+02 -0.26385794624E+03  0.30036909589E+03  0.12509101953E+03 0.  0.
         23    2    1    2    0    0  0.91183031713E+01  0.69783030562E+02  0.20132728101E+02  0.11533292994E+03  0.89126557106E+02 0.  0.
          5    1    3    3  502    0  0.16281188817E+02  0.30196021918E+02 -0.10820951525E+03  0.11359422714E+03  0.41800000000E+01 0. -1.
         -5    1    3    3    0  502 -0.25399491989E+02 -0.99979052480E+02 -0.15564843098E+03  0.18677486875E+03  0.41800000000E+01 0. -1.
        -11    1    4    4    0    0  0.30540212437E+02  0.11699061815E+02 -0.22911228960E+02  0.39931153696E+02  0.00000000000E+00 0.  1.
         11    1    4    4    0    0 -0.21421909265E+02  0.58083968747E+02  0.43043957061E+02  0.75401776249E+02  0.00000000000E+00 0. -1.
</event>
<event>
 8    1  0.3719512E-009  0.1252066E+03  0.7561462E-02  0.1234747E+00
         -1   -1    0    0    0  501 -0.00000000000E+00  0.00000000000E+00  0.34483878213E+03  0.34483878213E+03  0.00000000000E+00 0. -1.
          1   -1    0    0  501    0  0.00000000000E+00 -0.00000000000E+00 -0.81009587824E+02  0.81009587824E+02  0.00000000000E+00 0.  1.
         25    2    1    2    0    0 -0.17259667292E+02  0.11475241016E+03  0.21050507501E+03  0.27097148792E+03  0.12508856424E+03 0.  0.
         23    2    1    2    0    0  0.17259667292E+02 -0.11475241016E+03  0.53324119296E+02  0.15487688204E+03  0.87620631921E+02 0.  0.
          5    1    3    3  502    0  0.62950176233E+00  0.79615726381E+02  0.28454700478E+02  0.84653426032E+02  0.41800000000E+01 0.  1.
         -5    1    3    3    0  502 -0.17889169054E+02  0.35136683783E+02  0.18205037453E+03  0.18631806188E+03  0.41800000000E+01 0.  1.
        -11    1    4    4    0    0  0.35553474885E+02 -0.37613476914E+02  0.55076022246E+02  0.75579041066E+02  0.00000000000E+00 0. -1.
         11    1    4    4    0    0 -0.18293807593E+02 -0.77138933250E+02 -0.17519029502E+01  0.79297840974E+02  0.00000000000E+00 0.  1.
</event>
<event>
 8    1  0.3719512E-009  0.1072733E+03  0.7561462E-02  0.1265704E+00
          1   -1    0    0  501    0  0.00000000000E+00  0.00000000000E+00  0.62470268908E+03  0.62470268908E+03  0.00000000000E+00 0. -1.
         -1   -1    0    0    0  501 -0.00000000000E+00 -0.00000000000E+00 -0.30014348556E+02  0.30014348556E+02  0.00000000000E+00 0.  1.
         25    2    1    2    0    0 -0.79165878191E+02  0.21509417688E+02  0.39571705953E+03  0.42304866596E+03  0.12509313030E+03 0.  0.
         23    2    1    2    0    0  0.79165878191E+02 -0.21509417688E+02  0.19897128099E+03  0.23166837168E+03  0.85736645931E+02 0.  0.
          5    1    3    3  502    0 -0.75165664887E+02 -0.20795806799E+02  0.11445041429E+03  0.13855941862E+03  0.41800000000E+01 0.  1.
         -5    1    3    3    0  502 -0.40002133046E+01  0.42305224488E+02  0.28126664524E+03  0.28448924733E+03  0.41800000000E+01 0.  1.
        -11    1    4    4    0    0  0.64397228744E+02  0.37281368843E+01  0.19064913821E+03  0.20126598316E+03  0.00000000000E+00 0. -1.
         11    1    4    4    0    0  0.14768649447E+02 -0.25237554572E+02  0.83221427824E+01  0.30402388521E+02  0.00000000000E+00 0.  1.
</event>
<event>
 8    1  0.3719512E-009  0.9113163E+02  0.7561462E-02  0.1300134E+00
          2   -1    0    0  501    0  0.00000000000E+00  0.00000000000E+00  0.48852233040E+03  0.48852233040E+03  0.00000000000E+00 0. -1.
         -2   -1    0    0    0  501 -0.00000000000E+00 -0.00000000000E+00 -0.27587606972E+02  0.27587606972E+02  0.00000000000E+00 0.  1.
         25    2    1    2    0    0  0.14302170240E+02  0.20582533559E+01  0.33509275700E+03  0.35797179243E+03  0.12509140618E+03 0.  0.
         23    2    1    2    0    0 -0.14302170240E+02 -0.20582533559E+01  0.12584196643E+03  0.15813814495E+03  0.94671452359E+02 0.  0.
          5    1    3    3  502    0 -0.52263353850E+02  0.21161574399E+02  0.15203920355E+03  0.16221178195E+03  0.41800000000E+01 0. -1.
         -5    1    3    3    0  502  0.66565524090E+02 -0.19103321043E+02  0.18305355345E+03  0.19576001048E+03  0.41800000000E+01 0. -1.
        -11    1    4    4    0    0 -0.32039838758E+02  0.11476502745E+02  0.39969363189E+01  0.34267139986E+02  0.00000000000E+00 0.  1.
         11    1    4    4    0    0  0.17737668518E+02 -0.13534756101E+02  0.12184503011E+03  0.12387100496E+03  0.00000000000E+00 0. -1.
</event>
<event>
 8    1  0.3719512E-009  0.1705175E+03  0.7561462E-02  0.1177309E+00
         -2   -1    0    0    0  501 -0.00000000000E+00  0.00000000000E+00  0.12136083763E+02  0.12136083763E+02  0.00000000000E+00 0.  1.
          2   -1    0    0  501    0  0.00000000000E+00 -0.00000000000E+00 -0.40563641957E+04  0.40563641957E+04  0.00000000000E+00 0. -1.
         25    2    1    2    0    0 -0.19767123093E+02 -0.15611042236E+03 -0.31268333596E+04  0.31332884254E+04  0.12509314499E+03 0.  0.
         23    2    1    2    0    0  0.19767123093E+02  0.15611042236E+03 -0.91739475225E+03  0.93521185397E+03  0.90812318735E+02 0.  0.
          5    1    3    3  502    0 -0.18169514164E+02 -0.44763253115E+02 -0.20753579853E+04  0.20759244012E+04  0.41800000000E+01 0. -1.
         -5    1    3    3    0  502 -0.15976089287E+01 -0.11134716924E+03 -0.10514753743E+04  0.10573640242E+04  0.41800000000E+01 0. -1.
        -11    1    4    4    0    0 -0.28827506605E+02  0.16353726152E+02 -0.19850401922E+03  0.20125186991E+03  0.00000000000E+00 0. -1.
         11    1    4    4    0    0  0.48594629698E+02  0.13975669621E+03 -0.71889073303E+03  0.73395998407E+03  0.00000000000E+00 0.  1.
</event>
<event>
 8    1  0.3719512E-009  0.1195234E+03  0.7561462E-02  0.1243885E+00
         -2   -1    0    0    0  501 -0.00000000000E+00  0.00000000000E+00  0.59647046203E+02  0.59647046203E+02  0.00000000000E+00 0.  1.
          2   -1    0    0  501    0  0.00000000000E+00 -0.00000000000E+00 -0.40761195525E+03  0.40761195525E+03  0.00000000000E+00 0. -1.
         25    2    1    2    0    0 -0.77409148946E+02  0.42340461913E+02 -0.28767741902E+03  0.32586958904E+03  0.12509116912E+03 0.  0.
         23    2    1    2    0    0  0.77409148946E+02 -0.42340461913E+02 -0.60287490031E+02  0.14138941242E+03  0.92582360273E+02 0.  0.
          5    1    3    3  502    0 -0.14712087006E+01  0.66335397300E+02 -0.83931962412E+02  0.10707285419E+03  0.41800000000E+01 0. -1.
         -5    1    3    3    0  502 -0.75937940245E+02 -0.23994935387E+02 -0.20374545661E+03  0.21879673485E+03  0.41800000000E+01 0. -1.
        -11    1    4    4    0    0  0.66868873514E+02 -0.46538767210E+02 -0.14650712410E+01  0.81482817405E+02  0.00000000000E+00 0.  1.
         11    1    4    4    0    0  0.10540275432E+02  0.41983052974E+01 -0.58822418790E+02  0.59906595012E+02  0.00000000000E+00 0. -1.
</event>
<event>
 8    1  0.3719512E-009  0.1314150E+03  0.7561462E-02  0.1225371E+00
          1   -1    0    0  501    0  0.00000000000E+00  0.00000000000E+00  0.30188280620E+03  0.30188280620E+03  0.00000000000E+00 0. -1.
         -1   -1    0    0    0  501 -0.00000000000E+00 -0.00000000000E+00 -0.63506172791E+02  0.63506172791E+02  0.00000000000E+00 0.  1.
         25    2    1    2    0    0  0.30294717039E+02  0.68866379363E+02  0.18329718501E+03  0.23431895570E+03  0.12508863610E+03 0.  0.
         23    2    1    2    0    0 -0.30294717039E+02 -0.68866379363E+02  0.55079448399E+02  0.13107002329E+03  0.92115456259E+02 0.  0.
          5    1    3    3  502    0  0.58517859648E+02  0.91262538196E+02  0.14968415972E+03  0.18486754947E+03  0.41800000000E+01 0.  1.
         -5    1    3    3    0  502 -0.28223142609E+02 -0.22396158833E+02  0.33613025288E+02  0.49451406231E+02  0.41800000000E+01 0.  1.
        -11    1    4    4    0    0 -0.27107175041E+02  0.17093774071E+02  0.22181348838E+02  0.38974456853E+02  0.00000000000E+00 0.  1.
         11    1    4    4    0    0 -0.31875419975E+01 -0.85960153434E+02  0.32898099562E+02  0.92095566436E+02  0.00000000000E+00 0. -1.
</event>
<event>
 8    1  0.3719512E-009  0.1886935E+03  0.7561462E-02  0.1159645E+00
         -1   -1    0    0    0  501 -0.00000000000E+00  0.00000000000E+00  0.19313030695E+03  0.19313030695E+03  0.00000000000E+00 0.  1.
          1   -1    0    0  501    0  0.00000000000E+00 -0.00000000000E+00 -0.20260180691E+03  0.20260180691E+03  0.00000000000E+00 0. -1.
         25    2    1    2    0    0  0.15072172380E+03  0.68679023534E+02 -0.92146493033E+01  0.20777333658E+03  0.12510397008E+03 0.  0.
         23    2    1    2    0    0 -0.15072172380E+03 -0.68679023534E+02 -0.25685065843E+00  0.18795877729E+03  0.88851503571E+02 0.  0.
          5    1    3    3  502    0  0.13136262397E+02  0.61976613984E+02  0.20645353654E+02  0.66763501242E+02  0.41800000000E+01 0. -1.
         -5    1    3    3    0  502  0.13758546141E+03  0.67024095507E+01 -0.29860002957E+02  0.14100983533E+03  0.41800000000E+01 0. -1.
        -11    1    4    4    0    0 -0.12272704924E+03 -0.26653690257E+02 -0.30313394187E+02  0.12919461942E+03  0.00000000000E+00 0. -1.
         11    1    4    4    0    0 -0.27994674561E+02 -0.42025333277E+02  0.30056543528E+02  0.58764157866E+02  0.00000000000E+00 0.  1.
</event>
<event>
 8    1  0.3719512E-009  0.1330366E+03  0.7561462E-02  0.1223018E+00
          3   -1    0    0  501    0  0.00000000000E+00  0.00000000000E+00  0.19748171367E+03  0.19748171367E+03  0.00000000000E+00 0. -1.
         -3   -1    0    0    0  501 -0.00000000000E+00 -0.00000000000E+00 -0.11633261947E+03  0.11633261947E+03  0.00000000000E+00 0.  1.
         25    2    1    2    0    0  0.95220114529E+02 -0.48352916338E+02  0.34638210418E+02  0.16808531612E+03  0.12509193877E+03 0.  0.
         23    2    1    2    0    0 -0.95220114529E+02  0.48352916338E+02  0.46510883774E+02  0.14572901702E+03  0.87571738384E+02 0.  0.
          5    1    3    3  502    0  0.51829462508E+02 -0.86719737328E+02  0.42116518344E+02  0.10953483256E+03  0.41800000000E+01 0.  1.
         -5    1    3    3    0  502  0.43390652021E+02  0.38366820990E+02 -0.74783079258E+01  0.58550483560E+02  0.41800000000E+01 0.  1.
        -11    1    4    4    0    0 -0.38653831114E+02  0.22112930250E+02 -0.24822893111E+02  0.50983098831E+02  0.00000000000E+00 0.  1.
         11    1    4    4    0    0 -0.56566283415E+02  0.26239986088E+02  0.71333776885E+02  0.94745918192E+02  0.00000000000E+00 0. -1.
</event>
<event>
 8    1  0.3719512E-009  0.1746875E+03  0.7561462E-02  0.1173046E+00
          2   -1    0    0  501    0  0.00000000000E+00  0.00000000000E+00  0.93173385312E+03  0.93173385312E+03  0.00000000000E+00 0. -1.
         -2   -1    0    0    0  501 -0.00000000000E+00 -0.00000000000E+00 -0.51732074881E+02  0.51732074881E+02  0.00000000000E+00 0.  1.
         25    2    1    2    0    0  0.48643403523E+02 -0.13064854466E+03  0.16690992918E+03  0.25088170115E+03  0.12508989000E+03 0.  0.
         23    2    1    2    0    0 -0.48643403523E+02  0.13064854466E+03  0.71309184906E+03  0.73258422686E+03  0.93511717538E+02 0.  0.
          5    1    3    3  502    0  0.88868515351E+02 -0.10293591810E+03  0.10470740851E+03  0.17168147848E+03  0.41800000000E+01 0. -1.
         -5    1    3    3    0  502 -0.40225111828E+02 -0.27712626566E+02  0.62202520669E+02  0.79200222666E+02  0.41800000000E+01 0. -1.
        -11    1    4    4    0    0 -0.52738662859E+02  0.24646669993E+02  0.18498688566E+03  0.19393032968E+03  0.00000000000E+00 0. -1.
         11    1    4    4    0    0  0.40952593355E+01  0.10600187467E+03  0.52810496340E+03  0.53865389718E+03  0.00000000000E+00 0.  1.
</event>
<event>
 8    1  0.3719512E-009  0.9607616E+02  0.7561462E-02  0.1288771E+00
          2   -1    0    0  501    0  0.00000000000E+00  0.00000000000E+00  0.10734210533E+03  0.10734210533E+03  0.00000000000E+00 0. -1.
         -2   -1    0    0    0  501 -0.00000000000E+00 -0.00000000000E+00 -0.11566745504E+03  0.11566745504E+03  0.00000000000E+00 0.  1.
         25    2    1    2    0    0 -0.24026262109E+01  0.20986032281E+02  0.11529714818E+02  0.12738255629E+03  0.12508874913E+03 0.  0.
         23    2    1    2    0    0  0.24026262109E+01 -0.20986032281E+02 -0.19855064526E+02  0.95627004084E+02  0.91126912376E+02 0.  0.
          5    1    3    3  502    0 -0.50542892199E+02  0.27131744287E+02 -0.28632810220E+02  0.64249713781E+02  0.41800000000E+01 0. -1.
         -5    1    3    3    0  502  0.48140265988E+02 -0.61457120062E+01  0.40162525038E+02  0.63132842506E+02  0.41800000000E+01 0. -1.
        -11    1    4    4    0    0  0.26238121241E+02 -0.44999503086E+02 -0.30243666338E+02  0.60233492658E+02  0.00000000000E+00 0.  1.
         11    1    4    4    0    0 -0.23835495030E+02  0.24013470805E+02  0.10388601812E+02  0.35393511426E+02  0.00000000000E+00 0. -1.
</event>
<event>
 8    1  0.3719512E-009  0.1235036E+03  0.7561462E-02  0.1237427E+00
         -2   -1    0    0    0  501 -0.00000000000E+00  0.00000000000E+00  0.58309595914E+02  0.58309595914E+02  0.00000000000E+00 0.  1.
          2   -1    0    0  501    0  0.00000000000E+00 -0.00000000000E+00 -0.27398571483E+03  0.27398571483E+03  0.00000000000E+00 0. -1.
         25    2    1    2    0    0  0.59920203649E+02  0.87170137839E+01 -0.90145356570E+02  0.16565223092E+03  0.12509220264E+03 0.  0.
         23    2    1    2    0    0 -0.59920203649E+02 -0.87170137839E+01 -0.12553076234E+03  0.16664307983E+03  0.91353853912E+02 0.  0.
          5    1    3    3  502    0  0.65269096774E+02  0.58211729266E+02 -0.45602805979E+02  0.98720558806E+02  0.41800000000E+01 0.  1.
         -5    1    3    3    0  502 -0.53488931248E+01 -0.49494715482E+02 -0.44542550591E+02  0.66931672110E+02  0.41800000000E+01 0.  1.
        -11    1    4    4    0    0  0.14328844392E+02  0.24318579855E+02 -0.35630142142E+02  0.45455650219E+02  0.00000000000E+00 0.  1.
         11    1    4    4    0    0 -0.74249048042E+02 -0.33035593639E+02 -0.89900620202E+02  0.12118742961E+03  0.00000000000E+00 0. -1.
</event>
<event>
 8    1  0.3719512E-009  0.1387346E+03  0.7561462E-02  0.1215042E+00
          1   -1    0    0  501    0  0.00000000000E+00  0.00000000000E+00  0.56718383758E+02  0.56718383758E+02  0.00000000000E+00 0. -1.
         -1   -1    0    0    0  501 -0.00000000000E+00 -0.00000000000E+00 -0.45670841939E+03  0.45670841939E+03  0.00000000000E+00 0.  1.
         25    2    1    2    0    0  0.39390524738E+02 -0.99544524595E+02 -0.13913577621E+03  0.21556254103E+03  0.12509084321E+03 0.  0.
         23    2    1    2    0    0 -0.39390524738E+02  0.99544524595E+02 -0.26085425942E+03  0.29786426213E+03  0.96007542294E+02 0.  0.
          5    1    3    3  502    0  0.65736685400E+02 -0.18627263801E+02 -0.24441900616E+02  0.72685388283E+02  0.41800000000E+01 0. -1.
         -5    1    3    3    0  502 -0.26346160662E+02 -0.80917260795E+02 -0.11469387560E+03  0.14287715274E+03  0.41800000000E+01 0. -1.
        -11    1    4    4    0    0 -0.34716296718E+02  0.12885324025E+02 -0.16263188231E+03  0.16679443030E+03  0.00000000000E+00 0. -1.
         11    1    4    4    0    0 -0.46742280196E+01  0.86659200570E+02 -0.98222377107E+02  0.13106983183E+03  0.00000000000E+00 0.  1.
</event>
<event>
 8    1  0.3719512E-009  0.1676269E+03  0.7561462E-02  0.1180345E+00
         -1   -1    0    0    0  501 -0.00000000000E+00  0.00000000000E+00  0.72160237707E+02  0.72160237707E+02  0.00000000000E+00 0.  1.
          1   -1    0    0  501    0  0.00000000000E+00 -0.00000000000E+00 -0.46097565410E+03  0.46097565410E+03  0.00000000000E+00 0. -1.
         25    2    1    2    0    0  0.12872233448E+03  0.53953912580E+02 -0.26153560807E+03  0.32176503878E+03  0.12510556269E+03 0.  0.
         23    2    1    2    0    0 -0.12872233448E+03 -0.53953912580E+02 -0.12727980833E+03  0.21137085303E+03  0.94852642693E+02 0.  0.
          5    1    3    3  502    0  0.11966647775E+03 -0.63685133428E+01 -0.20990551857E+03  0.24174040412E+03  0.41800000000E+01 0.  1.
         -5    1    3    3    0  502  0.90558567260E+01  0.60322425923E+02 -0.51630089502E+02  0.80024634659E+02  0.41800000000E+01 0.  1.
        -11    1    4    4    0    0 -0.24621962531E+02  0.15468960556E+02  0.47562781896E+01  0.29464418572E+02  0.00000000000E+00 0.  1.
         11    1    4    4    0    0 -0.10410037195E+03 -0.69422873136E+02 -0.13203608652E+03  0.18190643446E+03  0.00000000000E+00 0. -1.
</event>
<event>
 8    1  0.3719512E-009  0.1932769E+03  0.7561462E-02  0.1155539E+00
          2   -1    0    0  501    0  0.00000000000E+00  0.00000000000E+00  0.58967099456E+03  0.58967099456E+03  0.00000000000E+00 0. -1.
         -2   -1    0    0    0  501 -0.00000000000E+00 -0.00000000000E+00 -0.72367874587E+02  0.72367874587E+02  0.00000000000E+00 0.  1.
         25    2    1    2    0    0 -0.13923335941E+03 -0.98050883975E+02  0.33799781467E+03  0.39860957613E+03  0.12508863756E+03 0.  0.
         23    2    1    2    0    0  0.13923335941E+03  0.98050883975E+02  0.17930530531E+03  0.26342929302E+03  0.90800306648E+02 0.  0.
          5    1    3    3  502    0 -0.12183895291E+03 -0.11610570139E+03  0.21530173002E+03  0.27330856498E+03  0.41800000000E+01 0. -1.
         -5    1    3    3    0  502 -0.17394406496E+02  0.18054817412E+02  0.12269608464E+03  0.12530101115E+03  0.41800000000E+01 0. -1.
        -11    1    4    4    0    0  0.78280417060E+02  0.10550814454E+03  0.12777381834E+03  0.18326467448E+03  0.00000000000E+00 0.  1.
         11    1    4    4    0    0  0.60952942346E+02 -0.74572605646E+01  0.51531486971E+02  0.80164618537E+02  0.00000000000E+00 0. -1.
</event>
<event>
 8    1  0.3719512E-009  0.1451489E+03  0.7561462E-02  0.1206564E+00
         -1   -1    0    0    0  501 -0.00000000000E+00  0.00000000000E+00  0.44189770467E+02  0.44189770467E+02  0.00000000000E+00 0.  1.
          1   -1    0    0  501    0  0.00000000000E+00 -0.00000000000E+00 -0.82446754914E+03  0.82446754914E+03  0.00000000000E+00 0. -1.
         25    2    1    2    0    0  0.11705197023E+03 -0.80541622179E+02 -0.27033418179E+03  0.33002481679E+03  0.12509073991E+03 0.  0.
         23    2    1    2    0    0 -0.11705197023E+03  0.80541622179E+02 -0.50994359688E+03  0.53863250282E+03  0.99470520532E+02 0.  0.
          5    1    3    3  502    0  0.43674446179E+02 -0.21695213321E+02 -0.58637582499E+01  0.49294985455E+02  0.41800000000E+01 0. -1.
         -5    1    3    3    0  502  0.73377524055E+02 -0.58846408858E+02 -0.26447042354E+03  0.28072983133E+03  0.41800000000E+01 0. -1.
        -11    1    4    4    0    0 -0.62191023122E+02  0.19607943188E+02 -0.92265326145E+02  0.11298267656E+03  0.00000000000E+00 0.  1.
         11    1    4    4    0    0 -0.54860947112E+02  0.60933678991E+02 -0.41767827074E+03  0.42564982627E+03  0.00000000000E+00 0. -1.
</event>
<event>
 8    1  0.3719512E-009  0.9768051E+02  0.7561462E-02  0.1285251E+00
         -2   -1    0    0    0  501 -0.00000000000E+00  0.00000000000E+00  0.24557734401E+02  0.24557734401E+02  0.00000000000E+00 0.  1.
          2   -1    0    0  501    0  0.00000000000E+00 -0.00000000000E+00 -0.51773165867E+03  0.51773165867E+03  0.00000000000E+00 0. -1.
         25    2    1    2    0    0  0.18708152370E+02 -0.15800008014E+02 -0.23348083016E+03  0.26600803529E+03  0.12508933435E+03 0.  0.
         23    2    1    2    0    0 -0.18708152370E+02  0.15800008014E+02 -0.25969309411E+03  0.27628135779E+03  0.91056302977E+02 0.  0.
          5    1    3    3  502    0 -0.25731847097E+02 -0.42649058710E+02 -0.35550191493E+02  0.61338068759E+02  0.41800000000E+01 0. -1.
         -5    1    3    3    0  502  0.44439999467E+02  0.26849050695E+02 -0.19793063867E+03  0.20466996653E+03  0.41800000000E+01 0. -1.
        -11    1    4    4    0    0 -0.48597517526E+02 -0.14510799875E+02 -0.16098649883E+03  0.16878665477E+03  0.00000000000E+00 0.  1.
         11    1    4    4    0    0  0.29889365155E+02  0.30310807889E+02 -0.98706595278E+02  0.10749470301E+03  0.00000000000E+00 0. -1.
</event>
<event>
 8    1  0.3719512E-009  0.8068642E+02  0.7561462E-02  0.1327115E+00
          2   -1    0    0  501    0  0.00000000000E+00  0.00000000000E+00  0.10972512433E+04  0.10972512433E+04  0.00000000000E+00 0. -1.
         -2   -1    0    0    0  501 -0.00000000000E+00 -0.00000000000E+00 -0.20442505184E+02  0.20442505184E+02  0.00000000000E+00 0.  1.
         25    2    1    2    0    0  0.15191668206E+02  0.59694227675E+02  0.88419655735E+03  0.89512254853E+03  0.12508651907E+03 0.  0.
         23    2    1    2    0    0 -0.15191668206E+02 -0.59694227675E+02  0.19261218078E+03  0.22257119997E+03  0.92974723824E+02 0.  0.
          5    1    3    3  502    0  0.22888115828E+02  0.50783563933E+02  0.88024877460E+03  0.88201939536E+03  0.41800000000E+01 0. -1.
         -5    1    3    3    0  502 -0.76964476214E+01  0.89106637427E+01  0.39477827548E+01  0.13103153170E+02  0.41800000000E+01 0. -1.
        -11    1    4    4    0    0 -0.77101549740E+01  0.15574866596E+02  0.19926886733E+01  0.17492677535E+02  0.00000000000E+00 0.  1.
         11    1    4    4    0    0 -0.74815132322E+01 -0.75269094271E+02  0.19061949211E+03  0.20507852244E+03  0.00000000000E+00 0. -1.
</event>
<event>
 8    1  0.3719512E-009  0.2568760E+03  0.7561462E-02  0.1109035E+00
         -1   -1    0    0    0  501 -0.00000000000E+00  0.00000000000E+00  0.76929761779E+02  0.76929761779E+02  0.00000000000E+00 0.  1.
          1   -1    0    0  501    0  0.00000000000E+00 -0.00000000000E+00 -0.10707624034E+04  0.10707624034E+04  0.00000000000E+00 0. -1.
         25    2    1    2    0    0 -0.11063954862E+03 -0.22367832519E+03 -0.32800048448E+03  0.43070406045E+03  0.12509423245E+03 0.  0.
         23    2    1    2    0    0  0.11063954862E+03  0.22367832519E+03 -0.66583215711E+03  0.71698810470E+03  0.92012922781E+02 0.  0.
          5    1    3    3  502    0 -0.14958124947E+02 -0.97755766568E+02 -0.50129062670E+02  0.11095192979E+03  0.41800000000E+01 0. -1.
         -5    1    3    3    0  502 -0.95681423676E+02 -0.12592255862E+03 -0.27787142181E+03  0.31975213066E+03  0.41800000000E+01 0. -1.
        -11    1    4    4    0    0  0.41774234979E+01  0.67050042627E+02 -0.10143795206E+03  0.12166682868E+03  0.00000000000E+00 0. -1.
         11    1    4    4    0    0  0.10646212512E+03  0.15662828256E+03 -0.56439420505E+03  0.59532127601E+03  0.00000000000E+00 0.  1.
</event>
<event>
 8    1  0.3719512E-009  0.1180886E+03  0.7561462E-02  0.1246284E+00
         -2   -1    0    0    0  501 -0.00000000000E+00  0.00000000000E+00  0.39540975059E+02  0.39540975059E+02  0.00000000000E+00 0. -1.
          2   -1    0    0  501    0  0.00000000000E+00 -0.00000000000E+00 -0.39179386957E+03  0.39179386957E+03  0.00000000000E+00 0.  1.
         25    2    1    2    0    0 -0.35131131416E+02 -0.34198026445E+02 -0.13373577467E+03  0.18956922359E+03  0.12509009433E+03 0.  0.
         23    2    1    2    0    0  0.35131131416E+02  0.34198026445E+02 -0.21851711984E+03  0.24176562103E+03  0.91088871127E+02 0.  0.
          5    1    3    3  502    0 -0.81076832974E+02 -0.11686211672E+02 -0.93257916928E+02  0.12419553880E+03  0.41800000000E+01 0.  1.
         -5    1    3    3    0  502  0.45945701558E+02 -0.22511814773E+02 -0.40477857740E+02  0.65373684792E+02  0.41800000000E+01 0.  1.
        -11    1    4    4    0    0  0.13939819476E+02 -0.31147950080E+02 -0.85458964635E+02  0.92020367298E+02  0.00000000000E+00 0.  1.
         11    1    4    4    0    0  0.21191311940E+02  0.65345976525E+02 -0.13305815521E+03  0.14974525374E+03  0.00000000000E+00 0. -1.
</event>
<event>
 8    1  0.3719512E-009  0.8352941E+02  0.7561462E-02  0.1319324E+00
          1   -1    0    0  501    0  0.00000000000E+00  0.00000000000E+00  0.45939237162E+02  0.45939237162E+02  0.00000000000E+00 0. -1.
         -1   -1    0    0    0  501 -0.00000000000E+00 -0.00000000000E+00 -0.26244654697E+03  0.26244654697E+03  0.00000000000E+00 0.  1.
         25    2    1    2    0    0 -0.17348777216E+01  0.77425036555E+01 -0.10262780607E+03  0.16199676684E+03  0.12509008644E+03 0.  0.
         23    2    1    2    0    0  0.17348777216E+01 -0.77425036555E+01 -0.11387950374E+03  0.14638901729E+03  0.91641949172E+02 0.  0.
          5    1    3    3  502    0  0.64810150010E+01  0.55006671304E+02 -0.99235309006E+02  0.11372271715E+03  0.41800000000E+01 0. -1.
         -5    1    3    3    0  502 -0.82158927226E+01 -0.47264167649E+02 -0.33924970626E+01  0.48274049686E+02  0.41800000000E+01 0. -1.
        -11    1    4    4    0    0  0.24475173971E+02  0.16965014688E+02 -0.10833664287E+03  0.11235512473E+03  0.00000000000E+00 0.  1.
         11    1    4    4    0    0 -0.22740296249E+02 -0.24707518344E+02 -0.55428608656E+01  0.34033892560E+02  0.00000000000E+00 0. -1.
</event>
<event>
 8    1  0.3719512E-009  0.1384247E+03  0.7561462E-02  0.1215464E+00
         -2   -1    0    0    0  501 -0.00000000000E+00  0.00000000000E+00  0.15684437705E+03  0.15684437705E+03  0.00000000000E+00 0.  1.
          2   -1    0    0  501    0  0.00000000000E+00 -0.00000000000E+00 -0.20362825635E+03  0.20362825635E+03  0.00000000000E+00 0. -1.
         25    2    1    2    0    0  0.11442850522E+03 -0.70061434663E+02  0.19816247470E+02  0.18450942153E+03  0.12509418665E+03 0.  0.
         23    2    1    2    0    0 -0.11442850522E+03  0.70061434663E+02 -0.66600126766E+02  0.17596321187E+03  0.92330859481E+02 0.  0.
          5    1    3    3  502    0  0.97487574346E+02 -0.69543952710E+02  0.64824327593E+02  0.13623455640E+03  0.41800000000E+01 0.  1.
         -5    1    3    3    0  502  0.16940930876E+02 -0.51748195313E+00 -0.45008080123E+02  0.48274865125E+02  0.41800000000E+01 0.  1.
        -11    1    4    4    0    0 -0.55830668871E+02  0.56482557882E+02  0.83551786458E+01  0.79857071958E+02  0.00000000000E+00 0. -1.
         11    1    4    4    0    0 -0.58597836351E+02  0.13578876781E+02 -0.74955305412E+02  0.96106139914E+02  0.00000000000E+00 0.  1.
</event>
<event>
 8    1  0.3719512E-009  0.1532584E+03  0.7561462E-02  0.1196525E+00
         -1   -1    0    0    0  501 -0.00000000000E+00  0.00000000000E+00  0.15388149850E+03  0.15388149850E+03  0.00000000000E+00 0.  1.
          1   -1    0    0  501    0  0.00000000000E+00 -0.00000000000E+00 -0.25000038982E+03  0.25000038982E+03  0.00000000000E+00 0. -1.
         25    2    1    2    0    0  0.11814794955E+03 -0.76696667516E+02  0.34047595823E+02  0.19143286049E+03  0.12508390985E+03 0.  0.
         23    2    1    2    0    0 -0.11814794955E+03  0.76696667516E+02 -0.13016648714E+03  0.21244902782E+03  0.91378106004E+02 0.  0.
          5    1    3    3  502    0  0.14604761561E+02 -0.12612505609E+02 -0.42970584578E+02  0.47289722953E+02  0.41800000000E+01 0. -1.
         -5    1    3    3    0  502  0.10354318799E+03 -0.64084161906E+02  0.77018180401E+02  0.14414313754E+03  0.41800000000E+01 0. -1.
        -11    1    4    4    0    0 -0.74693800742E+02 -0.23458507387E+01 -0.39379149806E+02  0.84471204114E+02  0.00000000000E+00 0.  1.
         11    1    4    4    0    0 -0.43454148808E+02  0.79042518254E+02 -0.90787337337E+02  0.12797782371E+03  0.00000000000E+00 0. -1.
</event>
<event>
 8    1  0.3719512E-009  0.2411421E+03  0.7561462E-02  0.1119034E+00
         -1   -1    0    0    0  501 -0.00000000000E+00  0.00000000000E+00  0.13319204165E+03  0.13319204165E+03  0.00000000000E+00 0.  1.
          1   -1    0    0  501    0  0.00000000000E+00 -0.00000000000E+00 -0.51575692324E+03  0.51575692324E+03  0.00000000000E+00 0. -1.
         25    2    1    2    0    0 -0.22331609874E+03  0.40179242189E+02 -0.10664718177E+03  0.28018807160E+03  0.12508909875E+03 0.  0.
         23    2    1    2    0    0  0.22331609874E+03 -0.40179242189E+02 -0.27591769982E+03  0.36876089329E+03  0.91485342474E+02 0.  0.
          5    1    3    3  502    0 -0.57484060779E+02  0.47939932681E+02 -0.83994241992E+02  0.11258401075E+03  0.41800000000E+01 0.  1.
         -5    1    3    3    0  502 -0.16583203796E+03 -0.77606904925E+01 -0.22652939778E+02  0.16760406085E+03  0.41800000000E+01 0.  1.
        -11    1    4    4    0    0  0.11850154914E+03  0.20316692368E+02 -0.10688652103E+03  0.16087297323E+03  0.00000000000E+00 0.  1.
         11    1    4    4    0    0  0.10481454961E+03 -0.60495934557E+02 -0.16903117878E+03  0.20788792006E+03  0.00000000000E+00 0. -1.
</event>
<event>
 8    1  0.3719512E-009  0.8606197E+02  0.7561462E-02  0.1312678E+00
          1   -1    0    0  501    0  0.00000000000E+00  0.00000000000E+00  0.55418257283E+02  0.55418257283E+02  0.00000000000E+00 0. -1.
         -1   -1    0    0    0  501 -0.00000000000E+00 -0.00000000000E+00 -0.24019715225E+03  0.24019715225E+03  0.00000000000E+00 0.  1.
         25    2    1    2    0    0  0.33500881165E+02 -0.29553231791E+02 -0.85147550979E+02  0.15777593655E+03  0.12508972047E+03 0.  0.
         23    2    1    2    0    0 -0.33500881165E+02  0.29553231791E+02 -0.99631343984E+02  0.13783947298E+03  0.84128550802E+02 0.  0.
          5    1    3    3  502    0  0.35205222504E+02  0.29329466671E+02 -0.87297803420E+02  0.98681326444E+02  0.41800000000E+01 0.  1.
         -5    1    3    3    0  502 -0.17043413388E+01 -0.58882698462E+02  0.21502524402E+01  0.59094610103E+02  0.41800000000E+01 0.  1.
        -11    1    4    4    0    0 -0.39566080125E+01  0.36494058851E+02 -0.33177359226E+01  0.36857542648E+02  0.00000000000E+00 0.  1.
         11    1    4    4    0    0 -0.29544273153E+02 -0.69408270598E+01 -0.96313608061E+02  0.10098193033E+03  0.00000000000E+00 0. -1.
</event>
<event>
 8    1  0.3719512E-009  0.1468216E+03  0.7561462E-02  0.1204434E+00
          2   -1    0    0  501    0  0.00000000000E+00  0.00000000000E+00  0.33131858980E+03  0.33131858980E+03  0.00000000000E+00 0. -1.
         -2   -1    0    0    0  501 -0.00000000000E+00 -0.00000000000E+00 -0.96456275441E+02  0.96456275441E+02  0.00000000000E+00 0.  1.
         25    2    1    2    0    0  0.10462803852E+03 -0.93467760542E+02  0.14975675119E+03  0.24033801019E+03  0.12510805693E+03 0.  0.
         23    2    1    2    0    0 -0.10462803852E+03  0.93467760542E+02  0.85105563171E+02  0.18743685506E+03  0.90589011718E+02 0.  0.
          5    1    3    3  502    0  0.13967478368E+02 -0.24563780347E+02  0.11890154236E+03  0.12228458175E+03  0.41800000000E+01 0. -1.
         -5    1    3    3    0  502  0.90660560156E+02 -0.68903980195E+02  0.30855208826E+02  0.11805342844E+03  0.41800000000E+01 0. -1.
        -11    1    4    4    0    0 -0.77488146962E+02  0.31812091814E+02  0.86019903745E+02  0.12006600662E+03  0.00000000000E+00 0. -1.
         11    1    4    4    0    0 -0.27139891563E+02  0.61655668728E+02 -0.91434057428E+00  0.67370848436E+02  0.00000000000E+00 0.  1.
</event>
<event>
 8    1  0.3719512E-009  0.1657970E+03  0.7561462E-02  0.1182303E+00
          2   -1    0    0  501    0  0.00000000000E+00  0.00000000000E+00  0.17044577120E+03  0.17044577120E+03  0.00000000000E+00 0. -1.
         -2   -1    0    0    0  501 -0.00000000000E+00 -0.00000000000E+00 -0.19170098031E+03  0.19170098031E+03  0.00000000000E+00 0.  1.
         25    2    1    2    0    0  0.11587243742E+03 -0.82979425749E+02  0.10064153679E+02  0.18989928047E+03  0.12509373558E+03 0.  0.
         23    2    1    2    0    0 -0.11587243742E+03  0.82979425749E+02 -0.31319362786E+02  0.17224747103E+03  0.91522029814E+02 0.  0.
          5    1    3    3  502    0  0.77385375713E+02 -0.11147861773E+03  0.27933087638E+02  0.13861352160E+03  0.41800000000E+01 0.  1.
         -5    1    3    3    0  502  0.38487061706E+02  0.28499191979E+02 -0.17868933958E+02  0.51285758872E+02  0.41800000000E+01 0.  1.
        -11    1    4    4    0    0 -0.58702346938E+02  0.18434874218E+02 -0.55325466667E+02  0.82744893409E+02  0.00000000000E+00 0.  1.
         11    1    4    4    0    0 -0.57170090482E+02  0.64544551531E+02  0.24006103881E+02  0.89502577625E+02  0.00000000000E+00 0. -1.
</event>
<event>
 8    1  0.3719512E-009  0.1894593E+03  0.7561462E-02  0.1158950E+00
          2   -1    0    0  501    0  0.00000000000E+00  0.00000000000E+00  0.15717205244E+04  0.15717205244E+04  0.00000000000E+00 0.  1.
         -2   -1    0    0    0  501 -0.00000000000E+00 -0.00000000000E+00 -0.41379886508E+02  0.41379886508E+02  0.00000000000E+00 0. -1.
         25    2    1    2    0    0 -0.82577599609E+02 -0.14091865723E+03  0.13001546441E+04  0.13163307661E+04  0.12508980568E+03 0.  0.
         23    2    1    2    0    0  0.82577599609E+02  0.14091865723E+03  0.23018599385E+03  0.29676964479E+03  0.91703339041E+02 0.  0.
          5    1    3    3  502    0 -0.26400323885E+02 -0.13390719411E+03  0.67942413003E+03  0.69300990946E+03  0.41800000000E+01 0. -1.
         -5    1    3    3    0  502 -0.56177275724E+02 -0.70114631270E+01  0.62073051404E+03  0.62332085669E+03  0.41800000000E+01 0. -1.
        -11    1    4    4    0    0  0.64985250405E+02  0.15165567530E+03  0.19024587739E+03  0.25182537696E+03  0.00000000000E+00 0.  1.
         11    1    4    4    0    0  0.17592349204E+02 -0.10737018065E+02  0.39940116461E+02  0.44944267826E+02  0.00000000000E+00 0. -1.
</event>
<event>
 8    1  0.3719512E-009  0.1768972E+03  0.7561462E-02  0.1170840E+00
         -2   -1    0    0    0  501 -0.00000000000E+00  0.00000000000E+00  0.31545067891E+03  0.31545067891E+03  0.00000000000E+00 0.  1.
          2   -1    0    0  501    0  0.00000000000E+00 -0.00000000000E+00 -0.18402419709E+03  0.18402419709E+03  0.00000000000E+00 0. -1.
         25    2    1    2    0    0 -0.13675579367E+03  0.72201490657E+02 -0.86823990586E+02  0.21703185964E+03  0.12509684409E+03 0.  0.
         23    2    1    2    0    0  0.13675579367E+03 -0.72201490657E+02  0.21825047241E+03  0.28244301635E+03  0.90695018738E+02 0.  0.
          5    1    3    3  502    0 -0.55064584163E+02 -0.23429377431E+02 -0.66500972187E+02  0.89559454317E+02  0.41800000000E+01 0.  1.
         -5    1    3    3    0  502 -0.81691209511E+02  0.95630868088E+02 -0.20323018399E+02  0.12747240533E+03  0.41800000000E+01 0.  1.
        -11    1    4    4    0    0  0.67301370360E+02 -0.71935603295E+02  0.17441515262E+03  0.20031188416E+03  0.00000000000E+00 0.  1.
         11    1    4    4    0    0  0.69454423314E+02 -0.26588736232E+00  0.43835319790E+02  0.82131132191E+02  0.00000000000E+00 0. -1.
</event>
<event>
 8    1  0.3719512E-009  0.2105589E+03  0.7561462E-02  0.1141124E+00
         -2   -1    0    0    0  501 -0.00000000000E+00  0.00000000000E+00  0.23562604569E+03  0.23562604569E+03  0.00000000000E+00 0.  1.
          2   -1    0    0  501    0  0.00000000000E+00 -0.00000000000E+00 -0.21344501540E+03  0.21344501540E+03  0.00000000000E+00 0. -1.
         25    2    1    2    0    0  0.19106130694E+03  0.38639501339E+02 -0.15755178247E+02  0.23214880660E+03  0.12508960265E+03 0.  0.
         23    2    1    2    0    0 -0.19106130694E+03 -0.38639501339E+02  0.37936208528E+02  0.21692225449E+03  0.87285018783E+02 0.  0.
          5    1    3    3  502    0  0.14406104978E+02 -0.17816817713E+02 -0.38764286447E+02  0.45222971572E+02  0.41800000000E+01 0.  1.
         -5    1    3    3    0  502  0.17665520196E+03  0.56456319051E+02  0.23009108200E+02  0.18692583503E+03  0.41800000000E+01 0.  1.
        -11    1    4    4    0    0 -0.84532515639E+02  0.25101687639E+02  0.27371679993E+02  0.92331196181E+02  0.00000000000E+00 0.  1.
         11    1    4    4    0    0 -0.10652879130E+03 -0.63741188978E+02  0.10564528535E+02  0.12459105831E+03  0.00000000000E+00 0. -1.
</event>
<event>
 8    1  0.3719512E-009  0.9111509E+02  0.7561462E-02  0.1300174E+00
         -1   -1    0    0    0  501 -0.00000000000E+00  0.00000000000E+00  0.17148317699E+02  0.17148317699E+02  0.00000000000E+00 0.  1.
          1   -1    0    0  501    0  0.00000000000E+00 -0.00000000000E+00 -0.79018112535E+03  0.79018112535E+03  0.00000000000E+00 0. -1.
         25    2    1    2    0    0  0.12928096838E+02 -0.31055814562E+02 -0.52685973388E+03  0.54254870072E+03  0.12508522761E+03 0.  0.
         23    2    1    2    0    0 -0.12928096838E+02  0.31055814562E+02 -0.24617307377E+03  0.26478074233E+03  0.91520817032E+02 0.  0.
          5    1    3    3  502    0  0.45856345747E+02 -0.10134947415E+02 -0.72402420825E+02  0.86400836487E+02  0.41800000000E+01 0. -1.
         -5    1    3    3    0  502 -0.32928248909E+02 -0.20920867148E+02 -0.45445731305E+03  0.45614786424E+03  0.41800000000E+01 0. -1.
        -11    1    4    4    0    0  0.38065346512E+02  0.22269925378E+02 -0.13786086915E+03  0.14474301166E+03  0.00000000000E+00 0.  1.
         11    1    4    4    0    0 -0.50993443350E+02  0.87858891845E+01 -0.10831220463E+03  0.12003773067E+03  0.00000000000E+00 0. -1.
</event>
<event>
 8    1  0.3719512E-009  0.9152728E+02  0.7561462E-02  0.1299195E+00
         -2   -1    0    0    0  501 -0.00000000000E+00  0.00000000000E+00  0.61663181658E+02  0.61663181658E+02  0.00000000000E+00 0. -1.
          2   -1    0    0  501    0  0.00000000000E+00 -0.00000000000E+00 -0.32941852700E+03  0.32941852700E+03  0.00000000000E+00 0.  1.
         25    2    1    2    0    0 -0.18335291630E+02  0.76999699826E+02 -0.21192136376E+03  0.25850064239E+03  0.12508709368E+03 0.  0.
         23    2    1    2    0    0  0.18335291630E+02 -0.76999699826E+02 -0.55833981580E+02  0.13258106627E+03  0.90527172388E+02 0.  0.
          5    1    3    3  502    0 -0.14804763445E+02  0.73729830364E+02 -0.37814947509E+02  0.84277586352E+02  0.41800000000E+01 0.  1.
         -5    1    3    3    0  502 -0.35305281854E+01  0.32698694617E+01 -0.17410641625E+03  0.17422305604E+03  0.41800000000E+01 0.  1.
        -11    1    4    4    0    0 -0.22417795225E+02 -0.42150568486E+02  0.88571947774E+01  0.48555925135E+02  0.00000000000E+00 0. -1.
         11    1    4    4    0    0  0.40753086855E+02 -0.34849131340E+02 -0.64691176357E+02  0.84025141130E+02  0.00000000000E+00 0.  1.
</event>
<event>
 8    1  0.3719512E-009  0.1260944E+03  0.7561462E-02  0.1233369E+00
         -1   -1    0    0    0  501 -0.00000000000E+00  0.00000000000E+00  0.36428794319E+02  0.36428794319E+02  0.00000000000E+00 0.  1.
          1   -1    0    0  501    0  0.00000000000E+00 -0.00000000000E+00 -0.62415488827E+03  0.62415488827E+03  0.00000000000E+00 0. -1.
         25    2    1    2    0    0  0.69737372755E+02 -0.55584632248E+02 -0.18565063684E+03  0.24096727014E+03  0.12508442677E+03 0.  0.
         23    2    1    2    0    0 -0.69737372755E+02  0.55584632248E+02 -0.40207545711E+03  0.41961641245E+03  0.80376040478E+02 0.  0.
          5    1    3    3  502    0 -0.25463345448E+02 -0.21532354306E+02 -0.51009524205E+01  0.33992886888E+02  0.41800000000E+01 0.  1.
         -5    1    3    3    0  502  0.95200718204E+02 -0.34052277941E+02 -0.18054968442E+03  0.20697438326E+03  0.41800000000E+01 0.  1.
        -11    1    4    4    0    0 -0.61057333629E+02 -0.72180215679E-01 -0.16482472402E+03  0.17577028431E+03  0.00000000000E+00 0.  1.
         11    1    4    4    0    0 -0.86800391268E+01  0.55656812464E+02 -0.23725073309E+03  0.24384612813E+03  0.00000000000E+00 0. -1.
</event>
<event>
 8    1  0.3719512E-009  0.1357377E+03  0.7561462E-02  0.1219182E+00
          3   -1    0    0  501    0  0.00000000000E+00  0.00000000000E+00  0.39311840702E+02  0.39311840702E+02  0.00000000000E+00 0. -1.
         -3   -1    0    0    0  501 -0.00000000000E+00 -0.00000000000E+00 -0.63303375984E+03  0.63303375984E+03  0.00000000000E+00 0.  1.
         25    2    1    2    0    0  0.65779407852E+02 -0.52341861864E+02 -0.48122909516E+03  0.50427733893E+03  0.12509033350E+03 0.  0.
         23    2    1    2    0    0 -0.65779407852E+02  0.52341861864E+02 -0.11249282398E+03  0.16806826161E+03  0.92334739466E+02 0.  0.
          5    1    3    3  502    0  0.38964803570E+02  0.37960197376E+02 -0.13985817215E+03  0.15012332670E+03  0.41800000000E+01 0. -1.
         -5    1    3    3    0  502  0.26814604282E+02 -0.90302059241E+02 -0.34137092301E+03  0.35415401223E+03  0.41800000000E+01 0. -1.
        -11    1    4    4    0    0 -0.37365891711E+02 -0.21775154630E+02 -0.25081210045E+02  0.49994342878E+02  0.00000000000E+00 0.  1.
         11    1    4    4    0    0 -0.28413516141E+02  0.74117016494E+02 -0.87411613934E+02  0.11807391873E+03  0.00000000000E+00 0. -1.
</event>
<event>
 8    1  0.3719512E-009  0.1371477E+03  0.7561462E-02  0.1217219E+00
          1   -1    0    0  501    0  0.00000000000E+00  0.00000000000E+00  0.60133775920E+03  0.60133775920E+03  0.00000000000E+00 0. -1.
         -1   -1    0    0    0  501 -0.00000000000E+00 -0.00000000000E+00 -0.45134701502E+02  0.45134701502E+02  0.00000000000E+00 0.  1.
         25    2    1    2    0    0 -0.98882042969E+02  0.68703591841E+02  0.23893659152E+03  0.29535789131E+03  0.12509095586E+03 0.  0.
         23    2    1    2    0    0  0.98882042969E+02 -0.68703591841E+02  0.31726646618E+03  0.35111456939E+03  0.90142045274E+02 0.  0.
          5    1    3    3  502    0 -0.23678659218E+02  0.73289358598E+02  0.50029024869E+02  0.91936851781E+02  0.41800000000E+01 0. -1.
         -5    1    3    3    0  502 -0.75203383751E+02 -0.45857667568E+01  0.18890756665E+03  0.20342103952E+03  0.41800000000E+01 0. -1.
        -11    1    4    4    0    0  0.32538982949E+02 -0.12866642000E+02  0.17625740134E+02  0.39179109267E+02  0.00000000000E+00 0.  1.
         11    1    4    4    0    0  0.66343060020E+02 -0.55836949841E+02  0.29964072604E+03  0.31193546013E+03  0.00000000000E+00 0. -1.
</event>
<event>
 8    1  0.3719512E-009  0.9286536E+02  0.7561462E-02  0.1296057E+00
         -1   -1    0    0    0  501 -0.00000000000E+00  0.00000000000E+00  0.36691477627E+02  0.36691477627E+02  0.00000000000E+00 0.  1.
          1   -1    0    0  501    0  0.00000000000E+00 -0.00000000000E+00 -0.35162659487E+03  0.35162659487E+03  0.00000000000E+00 0. -1.
         25    2    1    2    0    0  0.20438353587E+01  0.12184216688E+02 -0.12684782651E+03  0.17858101217E+03  0.12509266333E+03 0.  0.
         23    2    1    2    0    0 -0.20438353587E+01 -0.12184216688E+02 -0.18808729074E+03  0.20973706033E+03  0.91979199499E+02 0.  0.
          5    1    3    3  502    0  0.57758842715E+02 -0.25409096376E+01 -0.28682903952E+02  0.64673963174E+02  0.41800000000E+01 0. -1.
         -5    1    3    3    0  502 -0.55715007356E+02  0.14725126326E+02 -0.98164922555E+02  0.11390704899E+03  0.41800000000E+01 0. -1.
        -11    1    4    4    0    0 -0.28141169074E+02 -0.27813148637E+02 -0.32497173767E+02  0.51201200541E+02  0.00000000000E+00 0.  1.
         11    1    4    4    0    0  0.26097333715E+02  0.15628931949E+02 -0.15559011697E+03  0.15853585979E+03  0.00000000000E+00 0. -1.
</event>
<event>
 8    1  0.3719512E-009  0.8103481E+02  0.7561462E-02  0.1326140E+00
         -1   -1    0    0    0  501 -0.00000000000E+00  0.00000000000E+00  0.23821207889E+02  0.23821207889E+02  0.00000000000E+00 0.  1.
          1   -1    0    0  501    0  0.00000000000E+00 -0.00000000000E+00 -0.51345460721E+03  0.51345460721E+03  0.00000000000E+00 0. -1.
         25    2    1    2    0    0  0.73976945850E+01  0.90336227123E+01 -0.24690656321E+03  0.27703073619E+03  0.12508735194E+03 0.  0.
         23    2    1    2    0    0 -0.73976945850E+01 -0.90336227123E+01 -0.24272683611E+03  0.26024507890E+03  0.93138885009E+02 0.  0.
          5    1    3    3  502    0 -0.35455646446E+02  0.72834554879E+01 -0.22639044181E+03  0.22930385111E+03  0.41800000000E+01 0.  1.
         -5    1    3    3    0  502  0.42853341031E+02  0.17501672244E+01 -0.20516121394E+02  0.47726885085E+02  0.41800000000E+01 0.  1.
        -11    1    4    4    0    0 -0.39593693927E+02  0.15025052122E+02 -0.61865374187E+02  0.74971576703E+02  0.00000000000E+00 0.  1.
         11    1    4    4    0    0  0.32195999342E+02 -0.24058674834E+02 -0.18086146192E+03  0.18527350220E+03  0.00000000000E+00 0. -1.
</event>
<event>
 8    1  0.3719512E-009  0.1425328E+03  0.7561462E-02  0.1209961E+00
         -2   -1    0    0    0  501 -0.00000000000E+00  0.00000000000E+00  0.54744820924E+02  0.54744820924E+02  0.00000000000E+00 0.  1.
          2   -1    0    0  501    0  0.00000000000E+00 -0.00000000000E+00 -0.71948144754E+03  0.71948144754E+03  0.00000000000E+00 0. -1.
         25    2    1    2    0    0 -0.98207534028E+02  0.70660445948E+01 -0.60699104910E+03  0.62751930517E+03  0.12509075083E+03 0.  0.
         23    2    1    2    0    0  0.98207534028E+02 -0.70660445948E+01 -0.57745577507E+02  0.14670696329E+03  0.92161448715E+02 0.  0.
          5    1    3    3  502    0 -0.12275991226E+03  0.19707496422E+02 -0.40700924720E+03  0.42559650044E+03  0.41800000000E+01 0.  1.
         -5    1    3    3    0  502  0.24552378233E+02 -0.12641451828E+02 -0.19998180190E+03  0.20192280474E+03  0.41800000000E+01 0.  1.
        -11    1    4    4    0    0  0.74155139631E+02  0.36740707151E+02 -0.23181461939E+02  0.85943263106E+02  0.00000000000E+00 0. -1.
         11    1    4    4    0    0  0.24052394397E+02 -0.43806751746E+02 -0.34564115568E+02  0.60763700181E+02  0.00000000000E+00 0.  1.
</event>
<event>
 8    1  0.3719512E-009  0.1031952E+03  0.7561462E-02  0.1273717E+00
         -4   -1    0    0    0  501 -0.00000000000E+00  0.00000000000E+00  0.28896595950E+03  0.28896595950E+03  0.00000000000E+00 0.  1.
          4   -1    0    0  501    0  0.00000000000E+00 -0.00000000000E+00 -0.47737812722E+02  0.47737812722E+02  0.00000000000E+00 0. -1.
         25    2    1    2    0    0  0.39356183005E+02 -0.18208088468E+02  0.16147563144E+03  0.20882119365E+03  0.12510582616E+03 0.  0.
         23    2    1    2    0    0 -0.39356183005E+02  0.18208088468E+02  0.79752515334E+02  0.12788257857E+03  0.90072451803E+02 0.  0.
          5    1    3    3  502    0 -0.66493985474E+01  0.49392572118E+02  0.70340225630E+02  0.86307939514E+02  0.41800000000E+01 0. -1.
         -5    1    3    3    0  502  0.46005581553E+02 -0.67600660586E+02  0.91135405812E+02  0.12251325413E+03  0.41800000000E+01 0. -1.
        -11    1    4    4    0    0  0.92206561583E+01  0.23875276983E+02 -0.85138267389E+01  0.26972849251E+02  0.00000000000E+00 0. -1.
         11    1    4    4    0    0 -0.48576839164E+02 -0.56671885146E+01  0.88266342073E+02  0.10090972932E+03  0.00000000000E+00 0.  1.
</event>
<event>
 8    1  0.3719512E-009  0.9754207E+02  0.7561462E-02  0.1285551E+00
          1   -1    0    0  501    0  0.00000000000E+00  0.00000000000E+00  0.32426829294E+03  0.32426829294E+03  0.00000000000E+00 0. -1.
         -1   -1    0    0    0  501 -0.00000000000E+00 -0.00000000000E+00 -0.38887609363E+02  0.38887609363E+02  0.00000000000E+00 0.  1.
         25    2    1    2    0    0 -0.12948402790E+02  0.27346628756E+02  0.17187397099E+03  0.21471759811E+03  0.12508991085E+03 0.  0.
         23    2    1    2    0    0  0.12948402790E+02 -0.27346628756E+02  0.11350671258E+03  0.14843830418E+03  0.90745011483E+02 0.  0.
          5    1    3    3  502    0  0.40620362807E+02  0.31284705466E+02  0.22913866554E+02  0.56313980068E+02  0.41800000000E+01 0.  1.
         -5    1    3    3    0  502 -0.53568765597E+02 -0.39380767103E+01  0.14896010444E+03  0.15840361805E+03  0.41800000000E+01 0.  1.
        -11    1    4    4    0    0 -0.23391247806E+02  0.19517356897E+02  0.16249697463E+02  0.34527240866E+02  0.00000000000E+00 0.  1.
         11    1    4    4    0    0  0.36339650596E+02 -0.46863985653E+02  0.97257015119E+02  0.11391106332E+03  0.00000000000E+00 0. -1.
</event>
<event>
 8    1  0.3719512E-009  0.1247031E+03  0.7561462E-02  0.1235534E+00
          1   -1    0    0  501    0  0.00000000000E+00  0.00000000000E+00  0.39649944253E+03  0.39649944253E+03  0.00000000000E+00 0. -1.
         -1   -1    0    0    0  501 -0.00000000000E+00 -0.00000000000E+00 -0.52399696416E+02  0.52399696416E+02  0.00000000000E+00 0.  1.
         25    2    1    2    0    0 -0.71236802344E+02  0.56140818279E+02  0.20790385693E+03  0.25903228877E+03  0.12508892604E+03 0.  0.
         23    2    1    2    0    0  0.71236802344E+02 -0.56140818279E+02  0.13619588919E+03  0.18986685018E+03  0.96299673300E+02 0.  0.
          5    1    3    3  502    0 -0.76545690520E+01  0.69142600152E+02  0.43298139861E+02  0.82045675685E+02  0.41800000000E+01 0. -1.
         -5    1    3    3    0  502 -0.63582233292E+02 -0.13001781874E+02  0.16460571706E+03  0.17698661309E+03  0.41800000000E+01 0. -1.
        -11    1    4    4    0    0 -0.11840654849E+01 -0.40595545382E+02  0.98947522123E+02  0.10695799386E+03  0.00000000000E+00 0. -1.
         11    1    4    4    0    0  0.72420867829E+02 -0.15545272897E+02  0.37248367070E+02  0.82908856318E+02  0.00000000000E+00 0.  1.
</event>
<event>
 8    1  0.3719512E-009  0.1531403E+03  0.7561462E-02  0.1196667E+00
         -1   -1    0    0    0  501 -0.00000000000E+00  0.00000000000E+00  0.75850554740E+02  0.75850554740E+02  0.00000000000E+00 0.  1.
          1   -1    0    0  501    0  0.00000000000E+00 -0.00000000000E+00 -0.33222855693E+03  0.33222855693E+03  0.00000000000E+00 0. -1.
         25    2    1    2    0    0  0.11043077518E+03 -0.16734418000E+02 -0.16175282173E+03  0.23299443549E+03  0.12508970692E+03 0.  0.
         23    2    1    2    0    0 -0.11043077518E+03  0.16734418000E+02 -0.94625180466E+02  0.17508467619E+03  0.96050623131E+02 0.  0.
          5    1    3    3  502    0 -0.24821236689E+02  0.12785342240E+02 -0.37414043121E+02  0.46870478871E+02  0.41800000000E+01 0. -1.
         -5    1    3    3    0  502  0.13525201187E+03 -0.29519760239E+02 -0.12433877861E+03  0.18612395661E+03  0.41800000000E+01 0. -1.
        -11    1    4    4    0    0 -0.24401066346E+02 -0.32335680982E+02 -0.37713880323E+01  0.40684538477E+02  0.00000000000E+00 0.  1.
         11    1    4    4    0    0 -0.86029708838E+02  0.49070098982E+02 -0.90853792434E+02  0.13440013771E+03  0.00000000000E+00 0. -1.
</event>
<event>
 8    1  0.3719512E-009  0.1662865E+03  0.7561462E-02  0.1181777E+00
          1   -1    0    0  501    0  0.00000000000E+00  0.00000000000E+00  0.57863939689E+03  0.57863939689E+03  0.00000000000E+00 0. -1.
         -1   -1    0    0    0  501 -0.00000000000E+00 -0.00000000000E+00 -0.70908849921E+02  0.70908849921E+02  0.00000000000E+00 0.  1.
         25    2    1    2    0    0 -0.15992705180E+03  0.18758261205E+02  0.16994817572E+03  0.26544004444E+03  0.12508996963E+03 0.  0.
         23    2    1    2    0    0  0.15992705180E+03 -0.18758261205E+02  0.33778237125E+03  0.38410820237E+03  0.86681292902E+02 0.  0.
          5    1    3    3  502    0 -0.42139512887E+02  0.13327865077E+02  0.13541063971E+03  0.14250222553E+03  0.41800000000E+01 0.  1.
         -5    1    3    3    0  502 -0.11778753891E+03  0.54303961275E+01  0.34537536003E+02  0.12293781891E+03  0.41800000000E+01 0.  1.
        -11    1    4    4    0    0  0.91645565044E+02  0.16853004318E+02  0.25278471622E+03  0.26941240895E+03  0.00000000000E+00 0. -1.
         11    1    4    4    0    0  0.68281486753E+02 -0.35611265522E+02  0.84997655035E+02  0.11469579341E+03  0.00000000000E+00 0.  1.
</event>
<event>
 8    1  0.3719512E-009  0.1098028E+03  0.7561462E-02  0.1260936E+00
         -1   -1    0    0    0  501 -0.00000000000E+00  0.00000000000E+00  0.30368922572E+02  0.30368922572E+02  0.00000000000E+00 0.  1.
          1   -1    0    0  501    0  0.00000000000E+00 -0.00000000000E+00 -0.48837905607E+03  0.48837905607E+03  0.00000000000E+00 0. -1.
         25    2    1    2    0    0 -0.68327206414E+01 -0.59947880772E+02 -0.27720372196E+03  0.31004962471E+03  0.12509369222E+03 0.  0.
         23    2    1    2    0    0  0.68327206414E+01  0.59947880772E+02 -0.18080641154E+03  0.20869835393E+03  0.84991823137E+02 0.  0.
          5    1    3    3  502    0  0.51836312274E+02 -0.39332812932E+02 -0.20261828797E+03  0.21285139526E+03  0.41800000000E+01 0. -1.
         -5    1    3    3    0  502 -0.58669032916E+02 -0.20615067841E+02 -0.74585433992E+02  0.97198229455E+02  0.41800000000E+01 0. -1.
        -11    1    4    4    0    0 -0.29703210952E+02  0.12587070948E+02 -0.22127150983E+02  0.39119380191E+02  0.00000000000E+00 0.  1.
         11    1    4    4    0    0  0.36535931593E+02  0.47360809824E+02 -0.15867926056E+03  0.16957897374E+03  0.00000000000E+00 0. -1.
</event>
<event>
 8    1  0.3719512E-009  0.1516560E+03  0.7561462E-02  0.1198453E+00
         -1   -1    0    0    0  501 -0.00000000000E+00  0.00000000000E+00  0.42036483461E+03  0.42036483461E+03  0.00000000000E+00 0.  1.
          1   -1    0    0  501    0  0.00000000000E+00 -0.00000000000E+00 -0.64583440523E+02  0.64583440523E+02  0.00000000000E+00 0. -1.
         25    2    1    2    0    0  0.78877577162E+02 -0.87887721119E+02  0.24603328834E+03  0.30020995454E+03  0.12509082353E+03 0.  0.
         23    2    1    2    0    0 -0.78877577162E+02  0.87887721119E+02  0.10974810575E+03  0.18473832059E+03  0.90209072040E+02 0.  0.
          5    1    3    3  502    0  0.23528231250E+02 -0.97962014077E+02  0.93246258254E+02  0.13734071118E+03  0.41800000000E+01 0.  1.
         -5    1    3    3    0  502  0.55349345912E+02  0.10074292958E+02  0.15278703008E+03  0.16286924336E+03  0.41800000000E+01 0.  1.
        -11    1    4    4    0    0  0.10138683463E+02  0.47044349718E+02  0.52821281556E+02  0.71456640895E+02  0.00000000000E+00 0.  1.
         11    1    4    4    0    0 -0.89016260625E+02  0.40843371401E+02  0.56926824192E+02  0.11328167970E+03  0.00000000000E+00 0. -1.
</event>
<event>
 8    1  0.3719512E-009  0.1070323E+03  0.7561462E-02  0.1266166E+00
          1   -1    0    0  501    0  0.00000000000E+00  0.00000000000E+00  0.47140521461E+02  0.47140521461E+02  0.00000000000E+00 0. -1.
         -1   -1    0    0    0  501 -0.00000000000E+00 -0.00000000000E+00 -0.34166678503E+03  0.34166678503E+03  0.00000000000E+00 0.  1.
         25    2    1    2    0    0 -0.46004820898E+02 -0.76370368303E+01 -0.96534881925E+02  0.16474836485E+03  0.12509305502E+03 0.  0.
         23    2    1    2    0    0  0.46004820898E+02  0.76370368303E+01 -0.19799138164E+03  0.22405894165E+03  0.93952404165E+02 0.  0.
          5    1    3    3  502    0  0.24189139709E+02 -0.45022092112E+02 -0.53976196068E+02  0.74451362647E+02  0.41800000000E+01 0.  1.
         -5    1    3    3    0  502 -0.70193960608E+02  0.37385055282E+02 -0.42558685858E+02  0.90297002199E+02  0.41800000000E+01 0.  1.
        -11    1    4    4    0    0 -0.16410582660E+02 -0.87752702398E+01 -0.32356590422E+01  0.18888675985E+02  0.00000000000E+00 0. -1.
         11    1    4    4    0    0  0.62415403559E+02  0.16412307070E+02 -0.19475572260E+03  0.20517026566E+03  0.00000000000E+00 0.  1.
</event>
<event>
 8    1  0.3719512E-009  0.8282354E+02  0.7561462E-02  0.1321224E+00
          2   -1    0    0  501    0  0.00000000000E+00  0.00000000000E+00  0.57767127167E+03  0.57767127167E+03  0.00000000000E+00 0. -1.
         -2   -1    0    0    0  501 -0.00000000000E+00 -0.00000000000E+00 -0.28645177900E+02  0.28645177900E+02  0.00000000000E+00 0.  1.
         25    2    1    2    0    0  0.30332636200E+02  0.43802078681E+02  0.40964665029E+03  0.43162042955E+03  0.12508847348E+03 0.  0.
         23    2    1    2    0    0 -0.30332636200E+02 -0.43802078681E+02  0.13937944348E+03  0.17469602001E+03  0.90848110766E+02 0.  0.
          5    1    3    3  502    0 -0.29609454511E+01 -0.29113692515E+02  0.26116157124E+03  0.26282924682E+03  0.41800000000E+01 0.  1.
         -5    1    3    3    0  502  0.33293581651E+02  0.72915771196E+02  0.14848507905E+03  0.16879118273E+03  0.41800000000E+01 0.  1.
        -11    1    4    4    0    0 -0.24679939358E+02 -0.21241858133E+02 -0.82766572424E+00  0.32573009904E+02  0.00000000000E+00 0.  1.
         11    1    4    4    0    0 -0.56526968425E+01 -0.22560220548E+02  0.14020710920E+03  0.14212301011E+03  0.00000000000E+00 0. -1.
</event>
<event>
 8    1  0.3719512E-009  0.1673079E+03  0.7561462E-02  0.1180685E+00
         -2   -1    0    0    0  501 -0.00000000000E+00  0.00000000000E+00  0.27023078652E+02  0.27023078652E+02  0.00000000000E+00 0.  1.
          2   -1    0    0  501    0  0.00000000000E+00 -0.00000000000E+00 -0.12128750089E+04  0.12128750089E+04  0.00000000000E+00 0. -1.
         25    2    1    2    0    0  0.78619589332E+02 -0.11759195989E+03 -0.72514393542E+03  0.74932679326E+03  0.12509199480E+03 0.  0.
         23    2    1    2    0    0 -0.78619589332E+02  0.11759195989E+03 -0.46070799484E+03  0.49057129431E+03  0.91648401130E+02 0.  0.
          5    1    3    3  502    0  0.43872265631E+02  0.18874450136E+02 -0.18652186809E+03  0.19258478714E+03  0.41800000000E+01 0. -1.
         -5    1    3    3    0  502  0.34747323702E+02 -0.13646641003E+03 -0.53862206733E+03  0.55674200612E+03  0.41800000000E+01 0. -1.
        -11    1    4    4    0    0 -0.72215429802E+01  0.38780112924E+02 -0.38295022861E+02  0.54977782943E+02  0.00000000000E+00 0.  1.
         11    1    4    4    0    0 -0.71398046352E+02  0.78811846967E+02 -0.42241297198E+03  0.43559351137E+03  0.00000000000E+00 0. -1.
</event>
<event>
 8    1  0.3719512E-009  0.2546606E+03  0.7561462E-02  0.1110394E+00
         -1   -1    0    0    0  501 -0.00000000000E+00  0.00000000000E+00  0.20052922380E+03  0.20052922380E+03  0.00000000000E+00 0.  1.
          1   -1    0    0  501    0  0.00000000000E+00 -0.00000000000E+00 -0.37327664273E+03  0.37327664273E+03  0.00000000000E+00 0. -1.
         25    2    1    2    0    0  0.22059374543E+03  0.10950131314E+03 -0.44497417997E+02  0.27978453245E+03  0.12508887357E+03 0.  0.
         23    2    1    2    0    0 -0.22059374543E+03 -0.10950131314E+03 -0.12825000094E+03  0.29402133407E+03  0.96686834927E+02 0.  0.
          5    1    3    3  502    0  0.20168489339E+03  0.61193203163E+02 -0.69605468504E+02  0.22199954500E+03  0.41800000000E+01 0. -1.
         -5    1    3    3    0  502  0.18908852035E+02  0.48308109973E+02  0.25108050507E+02  0.57784987451E+02  0.41800000000E+01 0. -1.
        -11    1    4    4    0    0 -0.70758485831E+02 -0.40260446586E+02  0.54680160567E+01  0.81593909552E+02  0.00000000000E+00 0.  1.
         11    1    4    4    0    0 -0.14983525960E+03 -0.69240866549E+02 -0.13371801699E+03  0.21242742452E+03  0.00000000000E+00 0. -1.
</event>
<event>
 8    1  0.3719512E-009  0.1173277E+03  0.7561462E-02  0.1247572E+00
          3   -1    0    0  501    0  0.00000000000E+00  0.00000000000E+00  0.85155938985E+02  0.85155938985E+02  0.00000000000E+00 0. -1.
         -3   -1    0    0    0  501 -0.00000000000E+00 -0.00000000000E+00 -0.23621140631E+03  0.23621140631E+03  0.00000000000E+00 0.  1.
         25    2    1    2    0    0  0.24209286336E+02  0.84287631473E+02 -0.50958557592E+02  0.16104313076E+03  0.12509045131E+03 0.  0.
         23    2    1    2    0    0 -0.24209286336E+02 -0.84287631473E+02 -0.10009690973E+03  0.16032421453E+03  0.89408993189E+02 0.  0.
          5    1    3    3  502    0  0.44824968773E+02  0.10436323396E+03 -0.62557215041E+02  0.12973758122E+03  0.41800000000E+01 0. -1.
         -5    1    3    3    0  502 -0.20615682437E+02 -0.20075602484E+02  0.11598657449E+02  0.31305549541E+02  0.41800000000E+01 0. -1.
        -11    1    4    4    0    0 -0.26946094726E+02 -0.44398948844E+02 -0.10775208165E+03  0.11961550810E+03  0.00000000000E+00 0.  1.
         11    1    4    4    0    0  0.27368083901E+01 -0.39888682628E+02  0.76551719160E+01  0.40708706428E+02  0.00000000000E+00 0. -1.
</event>
<event>
 8    1  0.3719512E-009  0.9693566E+02  0.7561462E-02  0.1286875E+00
          2   -1    0    0  501    0  0.00000000000E+00  0.00000000000E+00  0.32170197432E+02  0.32170197432E+02  0.00000000000E+00 0. -1.
         -2   -1    0    0    0  501 -0.00000000000E+00 -0.00000000000E+00 -0.48175845185E+03  0.48175845185E+03  0.00000000000E+00 0.  1.
         25    2    1    2    0    0  0.34136658870E+02 -0.11856293319E+02 -0.17228629435E+03  0.21595370473E+03  0.12509017626E+03 0.  0.
         23    2    1    2    0    0 -0.34136658870E+02  0.11856293319E+02 -0.27730196007E+03  0.29797494454E+03  0.10289221229E+03 0.  0.
          5    1    3    3  502    0  0.64326137602E+02  0.90053806366E+01 -0.16624100100E+03  0.17852868586E+03  0.41800000000E+01 0. -1.
         -5    1    3    3    0  502 -0.30189478731E+02 -0.20861673956E+02 -0.60452933450E+01  0.37425018877E+02  0.41800000000E+01 0. -1.
        -11    1    4    4    0    0 -0.46326471673E+02 -0.25272340072E+02 -0.23299640799E+03  0.23889780092E+03  0.00000000000E+00 0.  1.
         11    1    4    4    0    0  0.12189812803E+02  0.37128633391E+02 -0.44305552079E+02  0.59077143623E+02  0.00000000000E+00 0. -1.
</event>
<event>
 8    1  0.3719512E-009  0.1626113E+03  0.7561462E-02  0.1185780E+00
         -1   -1    0    0    0  501 -0.00000000000E+00  0.00000000000E+00  0.18786324796E+03  0.18786324796E+03  0.00000000000E+00 0.  1.
          1   -1    0    0  501    0  0.00000000000E+00 -0.00000000000E+00 -0.15680231610E+03  0.15680231610E+03  0.00000000000E+00 0. -1.
         25    2    1    2    0    0 -0.49309801020E+02  0.10943462587E+03  0.70985450021E+02  0.18733386693E+03  0.12509056627E+03 0.  0.
         23    2    1    2    0    0  0.49309801020E+02 -0.10943462587E+03 -0.39924518163E+02  0.15733169713E+03  0.93551600490E+02 0.  0.
          5    1    3    3  502    0 -0.90778028944E+02  0.86821055171E+02  0.46882698418E+02  0.13414173836E+03  0.41800000000E+01 0.  1.
         -5    1    3    3    0  502  0.41468227923E+02  0.22613570698E+02  0.24102751603E+02  0.53192128569E+02  0.41800000000E+01 0.  1.
        -11    1    4    4    0    0 -0.20890564112E+02 -0.66798277491E+02 -0.16180862432E+02  0.71834851247E+02  0.00000000000E+00 0. -1.
         11    1    4    4    0    0  0.70200365133E+02 -0.42636348379E+02 -0.23743655731E+02  0.85496845879E+02  0.00000000000E+00 0.  1.
</event>
<event>
 8    1  0.3719512E-009  0.1972660E+03  0.7561462E-02  0.1152066E+00
         -1   -1    0    0    0  501 -0.00000000000E+00  0.00000000000E+00  0.32029666492E+02  0.32029666492E+02  0.00000000000E+00 0.  1.
          1   -1    0    0  501    0  0.00000000000E+00 -0.00000000000E+00 -0.20071688669E+04  0.20071688669E+04  0.00000000000E+00 0. -1.
         25    2    1    2    0    0 -0.66666576623E+02 -0.17665642054E+03 -0.15359651208E+04  0.15525741510E+04  0.12508284758E+03 0.  0.
         23    2    1    2    0    0  0.66666576623E+02  0.17665642054E+03 -0.43917407966E+03  0.48662438242E+03  0.90980734015E+02 0.  0.
          5    1    3    3  502    0 -0.57552114807E+02 -0.16949019304E+03 -0.96458322238E+03  0.98105934415E+03  0.41800000000E+01 0.  1.
         -5    1    3    3    0  502 -0.91144618164E+01 -0.71662275019E+01 -0.57138189838E+03  0.57151480683E+03  0.41800000000E+01 0.  1.
        -11    1    4    4    0    0  0.83434726053E+02  0.14298056434E+03 -0.39687285296E+03  0.43001494940E+03  0.00000000000E+00 0. -1.
         11    1    4    4    0    0 -0.16768149430E+02  0.33675856205E+02 -0.42301226696E+02  0.56609433016E+02  0.00000000000E+00 0.  1.
</event>
<event>
 8    1  0.3719512E-009  0.9858196E+02  0.7561462E-02  0.1283306E+00
          1   -1    0    0  501    0  0.00000000000E+00  0.00000000000E+00  0.37213379143E+03  0.37213379143E+03  0.00000000000E+00 0. -1.
         -1   -1    0    0    0  501 -0.00000000000E+00 -0.00000000000E+00 -0.43359176143E+02  0.43359176143E+02  0.00000000000E+00 0.  1.
         25    2    1    2    0    0  0.45866054619E+01  0.44266884405E+02  0.99832743763E+02  0.16611155970E+03  0.12508349025E+03 0.  0.
         23    2    1    2    0    0 -0.45866054619E+01 -0.44266884405E+02  0.22894187153E+03  0.24938140788E+03  0.88295594752E+02 0.  0.
          5    1    3    3  502    0  0.46115182123E+02 -0.21755445796E+02  0.21512869186E+02  0.55499417876E+02  0.41800000000E+01 0. -1.
         -5    1    3    3    0  502 -0.41528576661E+02  0.66022330201E+02  0.78319874577E+02  0.11061214182E+03  0.41800000000E+01 0. -1.
        -11    1    4    4    0    0  0.22110718927E+02 -0.95139018214E+01  0.99474153142E+01  0.26045139485E+02  0.00000000000E+00 0.  1.
         11    1    4    4    0    0 -0.26697324389E+02 -0.34752982584E+02  0.21899445621E+03  0.22333626839E+03  0.00000000000E+00 0. -1.
</event>
<event>
 8    1  0.3719512E-009  0.1249149E+03  0.7561462E-02  0.1235202E+00
          1   -1    0    0  501    0  0.00000000000E+00  0.00000000000E+00  0.15732659757E+04  0.15732659757E+04  0.00000000000E+00 0. -1.
         -1   -1    0    0    0  501 -0.00000000000E+00 -0.00000000000E+00 -0.14392622957E+02  0.14392622957E+02  0.00000000000E+00 0.  1.
         25    2    1    2    0    0  0.91674709709E+02  0.45503936994E+02  0.91925301820E+03  0.93335440139E+03  0.12509782752E+03 0.  0.
         23    2    1    2    0    0 -0.91674709709E+02 -0.45503936994E+02  0.63962033459E+03  0.65430419731E+03  0.92330653169E+02 0.  0.
          5    1    3    3  502    0  0.14004084942E+02 -0.91452152811E+01  0.60003283894E+03  0.60028045909E+03  0.41800000000E+01 0.  1.
         -5    1    3    3    0  502  0.77670624766E+02  0.54649152275E+02  0.31922017926E+03  0.33307394231E+03  0.41800000000E+01 0.  1.
        -11    1    4    4    0    0 -0.11021655113E+03 -0.32595959111E+02  0.54990508299E+03  0.56178802497E+03  0.00000000000E+00 0. -1.
         11    1    4    4    0    0  0.18541841419E+02 -0.12907977883E+02  0.89715251597E+02  0.92516172344E+02  0.00000000000E+00 0.  1.
</event>
<event>
 8    1  0.3719512E-009  0.5562426E+02  0.7561462E-02  0.1417170E+00
         -1   -1    0    0    0  501 -0.00000000000E+00  0.00000000000E+00  0.48812526637E+02  0.48812526637E+02  0.00000000000E+00 0.  1.
          1   -1    0    0  501    0  0.00000000000E+00 -0.00000000000E+00 -0.27081421228E+03  0.27081421228E+03  0.00000000000E+00 0. -1.
         25    2    1    2    0    0 -0.31581056111E+02  0.74859971279E+00 -0.15803750782E+03  0.20400890508E+03  0.12508339605E+03 0.  0.
         23    2    1    2    0    0  0.31581056111E+02 -0.74859971279E+00 -0.63964177822E+02  0.11561783384E+03  0.90984306065E+02 0.  0.
          5    1    3    3  502    0 -0.52939255012E+02 -0.52585358877E+01 -0.10040994635E+02  0.54300192396E+02  0.41800000000E+01 0. -1.
         -5    1    3    3    0  502  0.21358198901E+02  0.60071356005E+01 -0.14799651319E+03  0.14970871269E+03  0.41800000000E+01 0. -1.
        -11    1    4    4    0    0  0.17256358905E+02 -0.82617431254E+01  0.21416944035E+02  0.28718005048E+02  0.00000000000E+00 0.  1.
         11    1    4    4    0    0  0.14324697207E+02  0.75131434126E+01 -0.85381121858E+02  0.86899828790E+02  0.00000000000E+00 0. -1.
</event>
<event>
 8    1  0.3719512E-009  0.9075141E+02  0.7561462E-02  0.1301042E+00
          2   -1    0    0  501    0  0.00000000000E+00  0.00000000000E+00  0.42012231683E+03  0.42012231683E+03  0.00000000000E+00 0. -1.
         -2   -1    0    0    0  501 -0.00000000000E+00 -0.00000000000E+00 -0.31544690677E+02  0.31544690677E+02  0.00000000000E+00 0.  1.
         25    2    1    2    0    0  0.12248516336E+02 -0.23097158997E+02  0.16382971621E+03  0.20777800687E+03  0.12509204340E+03 0.  0.
         23    2    1    2    0    0 -0.12248516336E+02  0.23097158997E+02  0.22474790995E+03  0.24388900064E+03  0.91031405016E+02 0.  0.
          5    1    3    3  502    0  0.50402836752E+02 -0.22120087785E+02  0.15992610726E+03  0.16918503604E+03  0.41800000000E+01 0.  1.
         -5    1    3    3    0  502 -0.38154320416E+02 -0.97707121211E+00  0.39036089420E+01  0.38592970828E+02  0.41800000000E+01 0.  1.
        -11    1    4    4    0    0 -0.46854244716E+02  0.25266254684E+02  0.17732055001E+03  0.18513854631E+03  0.00000000000E+00 0. -1.
         11    1    4    4    0    0  0.34605728380E+02 -0.21690956866E+01  0.47427359932E+02  0.58750454322E+02  0.00000000000E+00 0.  1.
</event>
<event>
 8    1  0.3719512E-009  0.1033717E+03  0.7561462E-02  0.1273361E+00
          1   -1    0    0  501    0  0.00000000000E+00  0.00000000000E+00  0.17959726229E+03  0.17959726229E+03  0.00000000000E+00 0. -1.
         -1   -1    0    0    0  501 -0.00000000000E+00 -0.00000000000E+00 -0.72993738144E+02  0.72993738144E+02  0.00000000000E+00 0.  1.
         25    2    1    2    0    0  0.66349054788E+01  0.12511902762E+02  0.10048085380E+03  0.16106967320E+03  0.12508584238E+03 0.  0.
         23    2    1    2    0    0 -0.66349054788E+01 -0.12511902762E+02  0.61226703500E+01  0.91521327238E+02  0.90211399312E+02 0.  0.
          5    1    3    3  502    0 -0.28508100963E+02  0.58590150609E+02  0.37132513242E+02  0.75112006421E+02  0.41800000000E+01 0. -1.
         -5    1    3    3    0  502  0.35143006442E+02 -0.46078247847E+02  0.63348340559E+02  0.85957666779E+02  0.41800000000E+01 0. -1.
        -11    1    4    4    0    0  0.32071107449E+02  0.15452735267E+02  0.21215105207E+02  0.41441810400E+02  0.00000000000E+00 0. -1.
         11    1    4    4    0    0 -0.38706012928E+02 -0.27964638029E+02 -0.15092434857E+02  0.50079516839E+02  0.00000000000E+00 0.  1.
</event>
<event>
 8    1  0.3719512E-009  0.1140268E+03  0.7561462E-02  0.1253289E+00
         -1   -1    0    0    0  501 -0.00000000000E+00  0.00000000000E+00  0.49911814281E+03  0.49911814281E+03  0.00000000000E+00 0.  1.
          1   -1    0    0  501    0  0.00000000000E+00 -0.00000000000E+00 -0.30436283338E+02  0.30436283338E+02  0.00000000000E+00 0. -1.
         25    2    1    2    0    0  0.23779826133E+01 -0.44445475315E+02  0.32525091091E+03  0.35130718543E+03  0.12509008119E+03 0.  0.
         23    2    1    2    0    0 -0.23779826133E+01  0.44445475315E+02  0.14343094856E+03  0.17824724071E+03  0.96013471656E+02 0.  0.
          5    1    3    3  502    0 -0.60467858917E+02 -0.30843916189E+02  0.15466656756E+03  0.16895836365E+03  0.41800000000E+01 0.  1.
         -5    1    3    3    0  502  0.62845841530E+02 -0.13601559126E+02  0.17058434335E+03  0.18234882178E+03  0.41800000000E+01 0.  1.
        -11    1    4    4    0    0  0.40717004909E+00 -0.25552143884E+02  0.98045079315E+01  0.27371631670E+02  0.00000000000E+00 0. -1.
         11    1    4    4    0    0 -0.27851526624E+01  0.69997619199E+02  0.13362644063E+03  0.15087560904E+03  0.00000000000E+00 0.  1.
</event>
<event>
 8    1  0.3719512E-009  0.1482380E+03  0.7561462E-02  0.1202655E+00
         -2   -1    0    0    0  501 -0.00000000000E+00  0.00000000000E+00  0.47821896331E+02  0.47821896331E+02  0.00000000000E+00 0. -1.
          2   -1    0    0  501    0  0.00000000000E+00 -0.00000000000E+00 -0.77696245444E+03  0.77696245444E+03  0.00000000000E+00 0.  1.
         25    2    1    2    0    0  0.71896061891E+02  0.92383103172E+02 -0.15277115082E+03  0.22954075456E+03  0.12508497917E+03 0.  0.
         23    2    1    2    0    0 -0.71896061891E+02 -0.92383103172E+02 -0.57636940729E+03  0.59524359621E+03  0.91703673330E+02 0.  0.
          5    1    3    3  502    0  0.36840083111E+02 -0.18698208747E+02 -0.85284317699E+02  0.94856217400E+02  0.41800000000E+01 0.  1.
         -5    1    3    3    0  502  0.35055978780E+02  0.11108131192E+03 -0.67486833122E+02  0.13468453716E+03  0.41800000000E+01 0.  1.
        -11    1    4    4    0    0 -0.12159255594E+02 -0.75283007728E+02 -0.42205528989E+03  0.42888931728E+03  0.00000000000E+00 0.  1.
         11    1    4    4    0    0 -0.59736806297E+02 -0.17100095444E+02 -0.15431411740E+03  0.16635427893E+03  0.00000000000E+00 0. -1.
</event>
<event>
 8    1  0.3719512E-009  0.1992538E+03  0.7561462E-02  0.1150370E+00
          2   -1    0    0  501    0  0.00000000000E+00  0.00000000000E+00  0.18671503563E+03  0.18671503563E+03  0.00000000000E+00 0.  1.
         -2   -1    0    0    0  501 -0.00000000000E+00 -0.00000000000E+00 -0.23036621553E+03  0.23036621553E+03  0.00000000000E+00 0. -1.
         25    2    1    2    0    0 -0.13629521987E+03  0.10465966771E+03  0.18393689153E+02  0.21334492363E+03  0.12509074958E+03 0.  0.
         23    2    1    2    0    0  0.13629521987E+03 -0.10465966771E+03 -0.62044869057E+02  0.20373632753E+03  0.90160370309E+02 0.  0.
          5    1    3    3  502    0 -0.28684384338E+02  0.99332930033E+02  0.20563032218E+02  0.10549945776E+03  0.41800000000E+01 0.  1.
         -5    1    3    3    0  502 -0.10761083553E+03  0.53267376778E+01 -0.21693430655E+01  0.10784546587E+03  0.41800000000E+01 0.  1.
        -11    1    4    4    0    0  0.83724093826E+01 -0.45506918928E+02 -0.39843301084E+02  0.61061162374E+02  0.00000000000E+00 0. -1.
         11    1    4    4    0    0  0.12792281049E+03 -0.59152748783E+02 -0.22201567973E+02  0.14267516516E+03  0.00000000000E+00 0.  1.
</event>
<event>
 8    1  0.3719512E-009  0.1258767E+03  0.7561462E-02  0.1233705E+00
          2   -1    0    0  501    0  0.00000000000E+00  0.00000000000E+00  0.13156709422E+04  0.13156709422E+04  0.00000000000E+00 0. -1.
         -2   -1    0    0    0  501 -0.00000000000E+00 -0.00000000000E+00 -0.19522166487E+02  0.19522166487E+02  0.00000000000E+00 0.  1.
         25    2    1    2    0    0 -0.98845260745E+02  0.22898092756E+02  0.93982349338E+03  0.95352512924E+03  0.12508902897E+03 0.  0.
         23    2    1    2    0    0  0.98845260745E+02 -0.22898092756E+02  0.35632528232E+03  0.38166797943E+03  0.91695318731E+02 0.  0.
          5    1    3    3  502    0 -0.96333079804E+02  0.55563401029E+02  0.48945439808E+03  0.50194664458E+03  0.41800000000E+01 0. -1.
         -5    1    3    3    0  502 -0.25121809406E+01 -0.32665308272E+02  0.45036909529E+03  0.45157848467E+03  0.41800000000E+01 0. -1.
        -11    1    4    4    0    0  0.50937575840E+02  0.63140904346E+01  0.55266255616E+02  0.75424554227E+02  0.00000000000E+00 0.  1.
         11    1    4    4    0    0  0.47907684905E+02 -0.29212183191E+02  0.30105902670E+03  0.30624342520E+03  0.00000000000E+00 0. -1.
</event>
<event>
 8    1  0.3719512E-009  0.1250789E+03  0.7561462E-02  0.1234946E+00
          2   -1    0    0  501    0  0.00000000000E+00  0.00000000000E+00  0.44469467600E+03  0.44469467600E+03  0.00000000000E+00 0.  1.
         -2   -1    0    0    0  501 -0.00000000000E+00 -0.00000000000E+00 -0.43024636299E+02  0.43024636299E+02  0.00000000000E+00 0. -1.
         25    2    1    2    0    0  0.59148941340E+02 -0.35838884842E+02  0.13021735671E+03  0.19335677792E+03  0.12508901091E+03 0.  0.
         23    2    1    2    0    0 -0.59148941340E+02  0.35838884842E+02  0.27145268300E+03  0.29436253439E+03  0.90441802366E+02 0.  0.
          5    1    3    3  502    0  0.77741084997E+02 -0.69202001614E+02  0.88986091705E+02  0.13699850452E+03  0.41800000000E+01 0.  1.
         -5    1    3    3    0  502 -0.18592143657E+02  0.33363116772E+02  0.41231265003E+02  0.56358273397E+02  0.41800000000E+01 0.  1.
        -11    1    4    4    0    0 -0.79864147570E+02  0.33917965666E+02  0.17072761361E+03  0.19151143180E+03  0.00000000000E+00 0.  1.
         11    1    4    4    0    0  0.20715206229E+02  0.19209191759E+01  0.10072506939E+03  0.10285110258E+03  0.00000000000E+00 0. -1.
</event>
<event>
 8    1  0.3719512E-009  0.7620815E+02  0.7561462E-02  0.1340170E+00
          1   -1    0    0  501    0  0.00000000000E+00  0.00000000000E+00  0.45517199519E+03  0.45517199519E+03  0.00000000000E+00 0.  1.
         -1   -1    0    0    0  501 -0.00000000000E+00 -0.00000000000E+00 -0.28372004106E+02  0.28372004106E+02  0.00000000000E+00 0. -1.
         25    2    1    2    0    0 -0.35651529630E+02 -0.16960209676E+02  0.23404687621E+03  0.26829859116E+03  0.12509002148E+03 0.  0.
         23    2    1    2    0    0  0.35651529630E+02  0.16960209676E+02  0.19275311487E+03  0.21524540814E+03  0.87281969243E+02 0.  0.
          5    1    3    3  502    0 -0.42738117108E+02 -0.38983264569E+02  0.23755158030E+03  0.24452907245E+03  0.41800000000E+01 0. -1.
         -5    1    3    3    0  502  0.70865874777E+01  0.22023054893E+02 -0.35047040857E+01  0.23769518708E+02  0.41800000000E+01 0. -1.
        -11    1    4    4    0    0  0.25128495318E+02 -0.20229334067E+02  0.16381933590E+03  0.16696539177E+03  0.00000000000E+00 0.  1.
         11    1    4    4    0    0  0.10523034313E+02  0.37189543744E+02  0.28933778968E+02  0.48280016367E+02  0.00000000000E+00 0. -1.
</event>
<event>
 8    1  0.3719512E-009  0.9065064E+02  0.7561462E-02  0.1301284E+00
         -2   -1    0    0    0  501 -0.00000000000E+00  0.00000000000E+00  0.12789659500E+03  0.12789659500E+03  0.00000000000E+00 0.  1.
          2   -1    0    0  501    0  0.00000000000E+00 -0.00000000000E+00 -0.12278328750E+03  0.12278328750E+03  0.00000000000E+00 0. -1.
         25    2    1    2    0    0  0.37483954457E+02 -0.49552603214E+02 -0.23761041231E+01  0.13968992722E+03  0.12508845898E+03 0.  0.
         23    2    1    2    0    0 -0.37483954457E+02  0.49552603214E+02  0.74894116152E+01  0.11098995528E+03  0.91663359961E+02 0.  0.
          5    1    3    3  502    0  0.48771636204E+02 -0.21152166717E+02 -0.56313724701E+02  0.77555107147E+02  0.41800000000E+01 0.  1.
         -5    1    3    3    0  502 -0.11287681747E+02 -0.28400436497E+02  0.53937620578E+02  0.62134820077E+02  0.41800000000E+01 0.  1.
        -11    1    4    4    0    0  0.13758573737E+01 -0.18614255440E+02 -0.20460716955E+02  0.27695205856E+02  0.00000000000E+00 0. -1.
         11    1    4    4    0    0 -0.38859811831E+02  0.68166858654E+02  0.27950128570E+02  0.83294749422E+02  0.00000000000E+00 0.  1.
</event>
<event>
 8    1  0.3719512E-009  0.9033867E+02  0.7561462E-02  0.1302034E+00
         -1   -1    0    0    0  501 -0.00000000000E+00  0.00000000000E+00  0.31874774490E+03  0.31874774490E+03  0.00000000000E+00 0.  1.
          1   -1    0    0  501    0  0.00000000000E+00 -0.00000000000E+00 -0.40637926379E+02  0.40637926379E+02  0.00000000000E+00 0. -1.
         25    2    1    2    0    0 -0.30457434395E+02  0.21034160900E+02  0.15242159328E+03  0.20062275453E+03  0.12508819410E+03 0.  0.
         23    2    1    2    0    0  0.30457434395E+02 -0.21034160900E+02  0.12568822524E+03  0.15876291675E+03  0.89655131121E+02 0.  0.
          5    1    3    3  502    0 -0.33664893055E+02  0.61033428211E+02  0.14308116842E+03  0.15921085874E+03  0.41800000000E+01 0.  1.
         -5    1    3    3    0  502  0.32074586597E+01 -0.39999267311E+02  0.93404248598E+01  0.41411895791E+02  0.41800000000E+01 0.  1.
        -11    1    4    4    0    0 -0.11968982864E+02  0.11837783604E+02 -0.49355182363E+01  0.17542776625E+02  0.00000000000E+00 0. -1.
         11    1    4    4    0    0  0.42426417259E+02 -0.32871944504E+02  0.13062374348E+03  0.14122014013E+03  0.00000000000E+00 0.  1.
</event>
<event>
 8    1  0.3719512E-009  0.1794959E+03  0.7561462E-02  0.1168292E+00
          2   -1    0    0  501    0  0.00000000000E+00  0.00000000000E+00  0.18720270624E+03  0.18720270624E+03  0.00000000000E+00 0. -1.
         -2   -1    0    0    0  501 -0.00000000000E+00 -0.00000000000E+00 -0.21003570720E+03  0.21003570720E+03  0.00000000000E+00 0.  1.
         25    2    1    2    0    0  0.30919750302E+02  0.15746685083E+03  0.29040336986E+02  0.20552529224E+03  0.12508183125E+03 0.  0.
         23    2    1    2    0    0 -0.30919750302E+02 -0.15746685083E+03 -0.51873337942E+02  0.19171312119E+03  0.91165989154E+02 0.  0.
          5    1    3    3  502    0  0.67574660447E+02  0.88631756926E+02  0.53481681815E+02  0.12369189852E+03  0.41800000000E+01 0. -1.
         -5    1    3    3    0  502 -0.36654910145E+02  0.68835093905E+02 -0.24441344829E+02  0.81833393719E+02  0.41800000000E+01 0. -1.
        -11    1    4    4    0    0 -0.46345848905E+02 -0.12740705444E+03 -0.70839968332E+02  0.15296665109E+03  0.00000000000E+00 0.  1.
         11    1    4    4    0    0  0.15426098603E+02 -0.30059796394E+02  0.18966630390E+02  0.38746470107E+02  0.00000000000E+00 0. -1.
</event>
<event>
 8    1  0.3719512E-009  0.1536279E+03  0.7561462E-02  0.1196085E+00
          1   -1    0    0  501    0  0.00000000000E+00  0.00000000000E+00  0.75062749646E+02  0.75062749646E+02  0.00000000000E+00 0. -1.
         -1   -1    0    0    0  501 -0.00000000000E+00 -0.00000000000E+00 -0.48861295650E+03  0.48861295650E+03  0.00000000000E+00 0.  1.
         25    2    1    2    0    0 -0.12450392167E+03 -0.30352688961E+02 -0.83130160881E+02  0.19743559473E+03  0.12509067984E+03 0.  0.
         23    2    1    2    0    0  0.12450392167E+03  0.30352688961E+02 -0.33042004597E+03  0.36624011141E+03  0.92368285622E+02 0.  0.
          5    1    3    3  502    0 -0.13344821067E+03 -0.59606789633E+02 -0.79268001762E+02  0.16631982084E+03  0.41800000000E+01 0. -1.
         -5    1    3    3    0  502  0.89442890033E+01  0.29254100672E+02 -0.38621591187E+01  0.31115773893E+02  0.41800000000E+01 0. -1.
        -11    1    4    4    0    0  0.73655483952E+02  0.63271642083E+01 -0.77348702517E+02  0.10699525739E+03  0.00000000000E+00 0. -1.
         11    1    4    4    0    0  0.50848437714E+02  0.24025524753E+02 -0.25307134346E+03  0.25924485402E+03  0.00000000000E+00 0.  1.
</event>
<event>
 8    1  0.3719512E-009  0.6483702E+02  0.7561462E-02  0.1378586E+00
         -1   -1    0    0    0  501 -0.00000000000E+00  0.00000000000E+00  0.25066027818E+03  0.25066027818E+03  0.00000000000E+00 0.  1.
          1   -1    0    0  501    0  0.00000000000E+00 -0.00000000000E+00 -0.55076566112E+02  0.55076566112E+02  0.00000000000E+00 0. -1.
         25    2    1    2    0    0  0.18612264206E+02  0.38246334139E+02  0.89146008224E+02  0.15938679581E+03  0.12509173211E+03 0.  0.
         23    2    1    2    0    0 -0.18612264206E+02 -0.38246334139E+02  0.10643770385E+03  0.14635004848E+03  0.90995348432E+02 0.  0.
          5    1    3    3  502    0  0.98822679144E+01  0.15116605139E+02 -0.31289702171E+02  0.36368789257E+02  0.41800000000E+01 0. -1.
         -5    1    3    3    0  502  0.87299962921E+01  0.23129729000E+02  0.12043571040E+03  0.12301800656E+03  0.41800000000E+01 0. -1.
        -11    1    4    4    0    0 -0.27813691021E+02 -0.57970882342E+02  0.10670866369E+03  0.12458315903E+03  0.00000000000E+00 0.  1.
         11    1    4    4    0    0  0.92014268150E+01  0.19724548203E+02 -0.27095983949E+00  0.21766889453E+02  0.00000000000E+00 0. -1.
</event>
<event>
 8    1  0.3719512E-009  0.1205445E+03  0.7561462E-02  0.1242202E+00
         -1   -1    0    0    0  501 -0.00000000000E+00  0.00000000000E+00  0.32643779767E+02  0.32643779767E+02  0.00000000000E+00 0.  1.
          1   -1    0    0  501    0  0.00000000000E+00 -0.00000000000E+00 -0.53434081026E+03  0.53434081026E+03  0.00000000000E+00 0. -1.
         25    2    1    2    0    0  0.66819712242E+02  0.32763924898E+02 -0.27441447392E+03  0.31062762609E+03  0.12509144605E+03 0.  0.
         23    2    1    2    0    0 -0.66819712242E+02 -0.32763924898E+02 -0.22728255657E+03  0.25635696393E+03  0.92321090318E+02 0.  0.
          5    1    3    3  502    0 -0.13852386511E+02 -0.22909638171E+02 -0.10485586194E+02  0.29054432554E+02  0.41800000000E+01 0.  1.
         -5    1    3    3    0  502  0.80672098753E+02  0.55673563070E+02 -0.26392888773E+03  0.28157319354E+03  0.41800000000E+01 0.  1.
        -11    1    4    4    0    0  0.21628619279E+02 -0.18958405973E+00 -0.67105467168E+02  0.70505154690E+02  0.00000000000E+00 0. -1.
         11    1    4    4    0    0 -0.88448331521E+02 -0.32574340839E+02 -0.16017708940E+03  0.18585180924E+03  0.00000000000E+00 0.  1.
</event>
<event>
 8    1  0.3719512E-009  0.3850981E+03  0.7561462E-02  0.1049065E+00
         -1   -1    0    0    0  501 -0.00000000000E+00  0.00000000000E+00  0.21269262545E+03  0.21269262545E+03  0.00000000000E+00 0.  1.
          1   -1    0    0  501    0  0.00000000000E+00 -0.00000000000E+00 -0.77908479362E+03  0.77908479362E+03  0.00000000000E+00 0. -1.
         25    2    1    2    0    0 -0.25575626069E+03 -0.28436775172E+03 -0.39247422276E+03  0.56210081360E+03  0.12508007844E+03 0.  0.
         23    2    1    2    0    0  0.25575626069E+03  0.28436775172E+03 -0.17391794541E+03  0.42967660546E+03  0.89990279740E+02 0.  0.
          5    1    3    3  502    0 -0.91170983083E+02 -0.14441209935E+03 -0.98319243280E+02  0.19710694709E+03  0.41800000000E+01 0.  1.
         -5    1    3    3    0  502 -0.16458527761E+03 -0.13995565237E+03 -0.29415497948E+03  0.36499386651E+03  0.41800000000E+01 0.  1.
        -11    1    4    4    0    0  0.23904494481E+03  0.25528242857E+03 -0.18328620131E+03  0.39484862361E+03  0.00000000000E+00 0.  1.
         11    1    4    4    0    0  0.16711315877E+02  0.29085323151E+02  0.93682559055E+01  0.34827981851E+02  0.00000000000E+00 0. -1.
</event>
<event>
 8    1  0.3719512E-009  0.1134702E+03  0.7561462E-02  0.1254275E+00
          1   -1    0    0  501    0  0.00000000000E+00  0.00000000000E+00  0.50876494603E+03  0.50876494603E+03  0.00000000000E+00 0. -1.
         -1   -1    0    0    0  501 -0.00000000000E+00 -0.00000000000E+00 -0.31008513298E+02  0.31008513298E+02  0.00000000000E+00 0.  1.
         25    2    1    2    0    0 -0.68513982636E+01  0.60319415725E+02  0.30399626161E+03  0.33428705605E+03  0.12509490476E+03 0.  0.
         23    2    1    2    0    0  0.68513982636E+01 -0.60319415725E+02  0.17376017112E+03  0.20548640328E+03  0.91360228180E+02 0.  0.
          5    1    3    3  502    0 -0.55765471645E+02  0.48028045487E+02  0.24839811049E+03  0.25910533510E+03  0.41800000000E+01 0.  1.
         -5    1    3    3    0  502  0.48914073381E+02  0.12291370238E+02  0.55598151117E+02  0.75181720948E+02  0.41800000000E+01 0.  1.
        -11    1    4    4    0    0  0.42979063875E+02 -0.17022540875E+02  0.11549175428E+03  0.12439980762E+03  0.00000000000E+00 0. -1.
         11    1    4    4    0    0 -0.36127665612E+02 -0.43296874850E+02  0.58268416842E+02  0.81086595659E+02  0.00000000000E+00 0.  1.
</event>
<event>
 8    1  0.3719512E-009  0.9903183E+02  0.7561462E-02  0.1282345E+00
          1   -1    0    0  501    0  0.00000000000E+00  0.00000000000E+00  0.18265564189E+03  0.18265564189E+03  0.00000000000E+00 0. -1.
         -1   -1    0    0    0  501 -0.00000000000E+00 -0.00000000000E+00 -0.10384408314E+03  0.10384408314E+03  0.00000000000E+00 0.  1.
         25    2    1    2    0    0  0.51669594629E+02 -0.55351474107E+02  0.35502921179E+01  0.14626993373E+03  0.12509498888E+03 0.  0.
         23    2    1    2    0    0 -0.51669594629E+02  0.55351474107E+02  0.75261266625E+02  0.14022979130E+03  0.90920863499E+02 0.  0.
          5    1    3    3  502    0  0.56818224331E+02 -0.44359663210E+02  0.56564863687E+02  0.91723206116E+02  0.41800000000E+01 0. -1.
         -5    1    3    3    0  502 -0.51486297013E+01 -0.10991810898E+02 -0.53014571569E+02  0.54546727613E+02  0.41800000000E+01 0. -1.
        -11    1    4    4    0    0 -0.66659197540E+02  0.12760680768E+02  0.64897581298E+02  0.93904098147E+02  0.00000000000E+00 0. -1.
         11    1    4    4    0    0  0.14989602911E+02  0.42590793339E+02  0.10363685327E+02  0.46325693155E+02  0.00000000000E+00 0.  1.
</event>
<event>
 8    1  0.3719512E-009  0.1096268E+03  0.7561462E-02  0.1261262E+00
          2   -1    0    0  501    0  0.00000000000E+00  0.00000000000E+00  0.47056735157E+03  0.47056735157E+03  0.00000000000E+00 0. -1.
         -2   -1    0    0    0  501 -0.00000000000E+00 -0.00000000000E+00 -0.35096102030E+02  0.35096102030E+02  0.00000000000E+00 0.  1.
         25    2    1    2    0    0  0.15314022753E+02 -0.36724890392E+02  0.35000453914E+03  0.37381232530E+03  0.12509692345E+03 0.  0.
         23    2    1    2    0    0 -0.15314022753E+02  0.36724890392E+02  0.85466710394E+02  0.13185112830E+03  0.92178764264E+02 0.  0.
          5    1    3    3  502    0 -0.33922530322E+01  0.39975590905E+02  0.20228113636E+03  0.20626363173E+03  0.41800000000E+01 0.  1.
         -5    1    3    3    0  502  0.18706275785E+02 -0.76700481297E+02  0.14772340279E+03  0.16754869357E+03  0.41800000000E+01 0.  1.
        -11    1    4    4    0    0 -0.50820634164E+02  0.30339059943E+01  0.50404252235E+02  0.71641678412E+02  0.00000000000E+00 0. -1.
         11    1    4    4    0    0  0.35506611411E+02  0.33690984397E+02  0.35062458159E+02  0.60209449887E+02  0.00000000000E+00 0.  1.
</event>
<event>
 8    1  0.3719512E-009  0.2033773E+03  0.7561462E-02  0.1146920E+00
         -2   -1    0    0    0  501 -0.00000000000E+00  0.00000000000E+00  0.98639258230E+02  0.98639258230E+02  0.00000000000E+00 0. -1.
          2   -1    0    0  501    0  0.00000000000E+00 -0.00000000000E+00 -0.42888858979E+03  0.42888858979E+03  0.00000000000E+00 0.  1.
         25    2    1    2    0    0 -0.15144422029E+03  0.79097154254E+02 -0.18534157073E+03  0.28140835136E+03  0.12508977059E+03 0.  0.
         23    2    1    2    0    0  0.15144422029E+03 -0.79097154254E+02 -0.14490776083E+03  0.24611949666E+03  0.10190601462E+03 0.  0.
          5    1    3    3  502    0 -0.91930857324E+02  0.10773204991E+03 -0.15019212945E+03  0.20647669421E+03  0.41800000000E+01 0.  1.
         -5    1    3    3    0  502 -0.59513362965E+02 -0.28634895652E+02 -0.35149441276E+02  0.74931657144E+02  0.41800000000E+01 0.  1.
        -11    1    4    4    0    0  0.69011826649E+02 -0.92468816761E+02 -0.86676888695E+02  0.14431215238E+03  0.00000000000E+00 0. -1.
         11    1    4    4    0    0  0.82432393640E+02  0.13371662507E+02 -0.58230872136E+02  0.10180734428E+03  0.00000000000E+00 0.  1.
</event>
<event>
 8    1  0.3719512E-009  0.9098977E+02  0.7561462E-02  0.1300472E+00
         -2   -1    0    0    0  501 -0.00000000000E+00  0.00000000000E+00  0.48086421152E+02  0.48086421152E+02  0.00000000000E+00 0. -1.
          2   -1    0    0  501    0  0.00000000000E+00 -0.00000000000E+00 -0.32451991311E+03  0.32451991311E+03  0.00000000000E+00 0.  1.
         25    2    1    2    0    0  0.43602124334E+02 -0.24249634086E+02 -0.20452317077E+03  0.24487781790E+03  0.12508488446E+03 0.  0.
         23    2    1    2    0    0 -0.43602124334E+02  0.24249634086E+02 -0.71910321189E+02  0.12772851635E+03  0.93028434347E+02 0.  0.
          5    1    3    3  502    0  0.12074798205E+02 -0.60607203086E+02 -0.40780933885E+02  0.74159225900E+02  0.41800000000E+01 0. -1.
         -5    1    3    3    0  502  0.31527326129E+02  0.36357569001E+02 -0.16374223688E+03  0.17071859200E+03  0.41800000000E+01 0. -1.
        -11    1    4    4    0    0 -0.32444638792E+01  0.30695426130E+02 -0.80281537637E+02  0.86010819183E+02  0.00000000000E+00 0.  1.
         11    1    4    4    0    0 -0.40357660455E+02 -0.64457920445E+01  0.83712164488E+01  0.41717697172E+02  0.00000000000E+00 0. -1.
</event>
<event>
 8    1  0.3719512E-009  0.9569416E+02  0.7561462E-02  0.1289620E+00
         -2   -1    0    0    0  501 -0.00000000000E+00  0.00000000000E+00  0.18508618234E+03  0.18508618234E+03  0.00000000000E+00 0.  1.
          2   -1    0    0  501    0  0.00000000000E+00 -0.00000000000E+00 -0.83195010890E+02  0.83195010890E+02  0.00000000000E+00 0. -1.
         25    2    1    2    0    0 -0.59919901840E+02 -0.23311190124E+01  0.40473780848E+02  0.14450390439E+03  0.12508965863E+03 0.  0.
         23    2    1    2    0    0  0.59919901840E+02  0.23311190124E+01  0.61417390601E+02  0.12377728884E+03  0.89178991983E+02 0.  0.
          5    1    3    3  502    0 -0.64923916262E+02  0.22015006831E+02 -0.25979524977E+02  0.73431488795E+02  0.41800000000E+01 0.  1.
         -5    1    3    3    0  502  0.50040144227E+01 -0.24346125844E+02  0.66453305826E+02  0.71072415599E+02  0.41800000000E+01 0.  1.
        -11    1    4    4    0    0 -0.18343458595E+02  0.55735014831E+01 -0.63552136671E+01  0.20197404110E+02  0.00000000000E+00 0. -1.
         11    1    4    4    0    0  0.78263360435E+02 -0.32423824707E+01  0.67772604268E+02  0.10357988473E+03  0.00000000000E+00 0.  1.
</event>
<event>
 8    1  0.3719512E-009  0.1014570E+03  0.7561462E-02  0.1277262E+00
          1   -1    0    0  501    0  0.00000000000E+00  0.00000000000E+00  0.38247936331E+02  0.38247936331E+02  0.00000000000E+00 0. -1.
         -1   -1    0    0    0  501 -0.00000000000E+00 -0.00000000000E+00 -0.43260406654E+03  0.43260406654E+03  0.00000000000E+00 0.  1.
         25    2    1    2    0    0  0.14859998946E+02 -0.57193992207E+02 -0.29619533845E+03  0.32691155981E+03  0.12509003598E+03 0.  0.
         23    2    1    2    0    0 -0.14859998946E+02  0.57193992207E+02 -0.98160791754E+02  0.14394044306E+03  0.87128283568E+02 0.  0.
          5    1    3    3  502    0 -0.47098395865E+02 -0.32512000052E+02 -0.21084061567E+03  0.21850978618E+03  0.41800000000E+01 0. -1.
         -5    1    3    3    0  502  0.61958394810E+02 -0.24681992155E+02 -0.85354722781E+02  0.10840177363E+03  0.41800000000E+01 0. -1.
        -11    1    4    4    0    0  0.95515278514E+01  0.53102810648E+02 -0.13336814122E+02  0.55578870031E+02  0.00000000000E+00 0. -1.
         11    1    4    4    0    0 -0.24411526797E+02  0.40911815598E+01 -0.84823977631E+02  0.88361573030E+02  0.00000000000E+00 0.  1.
</event>
<event>
 8    1  0.3719512E-009  0.7464844E+02  0.7561462E-02  0.1344963E+00
         -1   -1    0    0    0  501 -0.00000000000E+00  0.00000000000E+00  0.64655324896E+02  0.64655324896E+02  0.00000000000E+00 0.  1.
          1   -1    0    0  501    0  0.00000000000E+00 -0.00000000000E+00 -0.22002447806E+03  0.22002447806E+03  0.00000000000E+00 0. -1.
         25    2    1    2    0    0  0.31146845737E+02  0.28309818993E+01 -0.12846848831E+03  0.18201731721E+03  0.12509200940E+03 0.  0.
         23    2    1    2    0    0 -0.31146845737E+02 -0.28309818993E+01 -0.26900664847E+02  0.10266248575E+03  0.94009572667E+02 0.  0.
          5    1    3    3  502    0 -0.18557349192E+02  0.13202155587E+02 -0.12900652431E+03  0.13106802752E+03  0.41800000000E+01 0.  1.
         -5    1    3    3    0  502  0.49704194929E+02 -0.10371173688E+02  0.53803599998E+00  0.50949289690E+02  0.41800000000E+01 0.  1.
        -11    1    4    4    0    0  0.20626465772E+02 -0.10009777714E+02  0.21496469873E+02  0.31428410032E+02  0.00000000000E+00 0.  1.
         11    1    4    4    0    0 -0.51773311510E+02  0.71787958152E+01 -0.48397134720E+02  0.71234075716E+02  0.00000000000E+00 0. -1.
</event>
<event>
 8    1  0.3719512E-009  0.8081424E+02  0.7561462E-02  0.1326756E+00
          2   -1    0    0  501    0  0.00000000000E+00  0.00000000000E+00  0.26817701288E+04  0.26817701288E+04  0.00000000000E+00 0. -1.
         -2   -1    0    0    0  501 -0.00000000000E+00 -0.00000000000E+00 -0.19173890475E+02  0.19173890475E+02  0.00000000000E+00 0.  1.
         25    2    1    2    0    0  0.47268318186E+02 -0.27240110677E+02  0.25176346153E+04  0.25213307977E+04  0.12509443698E+03 0.  0.
         23    2    1    2    0    0 -0.47268318186E+02  0.27240110677E+02  0.14496162308E+03  0.17961322155E+03  0.90943497044E+02 0.  0.
          5    1    3    3  502    0 -0.77537720119E+00 -0.39972396870E+01  0.21309550766E+04  0.21309630663E+04  0.41800000000E+01 0.  1.
         -5    1    3    3    0  502  0.48043695387E+02 -0.23242870990E+02  0.38667953866E+03  0.39036773143E+03  0.41800000000E+01 0.  1.
        -11    1    4    4    0    0 -0.62805888799E+02 -0.84134877210E+01  0.11177059129E+03  0.12848358464E+03  0.00000000000E+00 0. -1.
         11    1    4    4    0    0  0.15537570613E+02  0.35653598398E+02  0.33191031788E+02  0.51129636909E+02  0.00000000000E+00 0.  1.
</event>
<event>
 8    1  0.3719512E-009  0.2199039E+03  0.7561462E-02  0.1133955E+00
          2   -1    0    0  501    0  0.00000000000E+00  0.00000000000E+00  0.26913637970E+03  0.26913637970E+03  0.00000000000E+00 0.  1.
         -2   -1    0    0    0  501 -0.00000000000E+00 -0.00000000000E+00 -0.22847963671E+03  0.22847963671E+03  0.00000000000E+00 0. -1.
         25    2    1    2    0    0 -0.21142896517E+03 -0.34408459805E+02  0.81584884044E+02  0.26113500673E+03  0.12509695846E+03 0.  0.
         23    2    1    2    0    0  0.21142896517E+03  0.34408459805E+02 -0.40928141056E+02  0.23648100968E+03  0.91444003564E+02 0.  0.
          5    1    3    3  502    0 -0.72228114350E+02 -0.54041547982E+01  0.93544365274E+02  0.11838127414E+03  0.41800000000E+01 0.  1.
         -5    1    3    3    0  502 -0.13920085082E+03 -0.29004305007E+02 -0.11959481230E+02  0.14275373260E+03  0.41800000000E+01 0.  1.
        -11    1    4    4    0    0  0.43582625330E+02 -0.20828040173E+02  0.15920573928E+02  0.50859779416E+02  0.00000000000E+00 0.  1.
         11    1    4    4    0    0  0.16784633984E+03  0.55236499978E+02 -0.56848714984E+02  0.18562123026E+03  0.00000000000E+00 0. -1.
</event>
<event>
 8    1  0.3719512E-009  0.8658516E+02  0.7561462E-02  0.1311338E+00
         -1   -1    0    0    0  501 -0.00000000000E+00  0.00000000000E+00  0.86860916295E+02  0.86860916295E+02  0.00000000000E+00 0.  1.
          1   -1    0    0  501    0  0.00000000000E+00 -0.00000000000E+00 -0.16570465968E+03  0.16570465968E+03  0.00000000000E+00 0. -1.
         25    2    1    2    0    0  0.43585690664E+02  0.19247925534E+02 -0.25348233040E+02  0.13623854721E+03  0.12509282057E+03 0.  0.
         23    2    1    2    0    0 -0.43585690664E+02 -0.19247925534E+02 -0.53495510342E+02  0.11632702877E+03  0.91651584420E+02 0.  0.
          5    1    3    3  502    0  0.83561068355E+02  0.12406185540E+02  0.60232667246E+01  0.84794561891E+02  0.41800000000E+01 0.  1.
         -5    1    3    3    0  502 -0.39975377691E+02  0.68417399940E+01 -0.31371499765E+02  0.51443985316E+02  0.41800000000E+01 0.  1.
        -11    1    4    4    0    0 -0.22537442520E+02 -0.12161451726E+02 -0.78683427196E+02  0.82746111321E+02  0.00000000000E+00 0. -1.
         11    1    4    4    0    0 -0.21048248145E+02 -0.70864738081E+01  0.25187916854E+02  0.33580917445E+02  0.00000000000E+00 0.  1.
</event>
<event>
 8    1  0.3719512E-009  0.1095052E+03  0.7561462E-02  0.1261489E+00
         -2   -1    0    0    0  501 -0.00000000000E+00  0.00000000000E+00  0.24024117079E+02  0.24024117079E+02  0.00000000000E+00 0.  1.
          2   -1    0    0  501    0  0.00000000000E+00 -0.00000000000E+00 -0.71912091024E+03  0.71912091024E+03  0.00000000000E+00 0. -1.
         25    2    1    2    0    0 -0.66876232359E+02 -0.25834255536E+02 -0.47502167128E+03  0.49641727225E+03  0.12507869838E+03 0.  0.
         23    2    1    2    0    0  0.66876232359E+02  0.25834255536E+02 -0.22007512188E+03  0.24672775507E+03  0.85449907174E+02 0.  0.
          5    1    3    3  502    0 -0.98631524310E+01 -0.51623958645E+02 -0.37266244736E+03  0.37637360023E+03  0.41800000000E+01 0.  1.
         -5    1    3    3    0  502 -0.57013079928E+02  0.25789703109E+02 -0.10235922392E+03  0.12004367202E+03  0.41800000000E+01 0.  1.
        -11    1    4    4    0    0  0.81247202241E+02  0.94755022759E+01 -0.12642438810E+03  0.15057894581E+03  0.00000000000E+00 0.  1.
         11    1    4    4    0    0 -0.14370969882E+02  0.16358753260E+02 -0.93650733782E+02  0.96148809257E+02  0.00000000000E+00 0. -1.
</event>
<event>
 8    1  0.3719512E-009  0.1431945E+03  0.7561462E-02  0.1209094E+00
         -1   -1    0    0    0  501 -0.00000000000E+00  0.00000000000E+00  0.22280600686E+03  0.22280600686E+03  0.00000000000E+00 0.  1.
          1   -1    0    0  501    0  0.00000000000E+00 -0.00000000000E+00 -0.21292140599E+03  0.21292140599E+03  0.00000000000E+00 0. -1.
         25    2    1    2    0    0 -0.92322687765E+02  0.52542323888E+02 -0.14971211835E+03  0.22213896129E+03  0.12509126775E+03 0.  0.
         23    2    1    2    0    0  0.92322687765E+02 -0.52542323888E+02  0.15959671922E+03  0.21358845156E+03  0.94152744923E+02 0.  0.
          5    1    3    3  502    0 -0.90355442527E+00  0.63017473407E+02 -0.97750147852E+02  0.11638119337E+03  0.41800000000E+01 0.  1.
         -5    1    3    3    0  502 -0.91419133340E+02 -0.10475149519E+02 -0.51961970498E+02  0.10575776792E+03  0.41800000000E+01 0.  1.
        -11    1    4    4    0    0  0.10200356802E+03 -0.29597499720E+02  0.88478277419E+02  0.13823583274E+03  0.00000000000E+00 0. -1.
         11    1    4    4    0    0 -0.96808802504E+01 -0.22944824168E+02  0.71118441803E+02  0.75352618820E+02  0.00000000000E+00 0.  1.
</event>
<event>
 8    1  0.3719512E-009  0.7197597E+02  0.7561462E-02  0.1353500E+00
         -1   -1    0    0    0  501 -0.00000000000E+00  0.00000000000E+00  0.11718919024E+03  0.11718919024E+03  0.00000000000E+00 0.  1.
          1   -1    0    0  501    0  0.00000000000E+00 -0.00000000000E+00 -0.12679598363E+03  0.12679598363E+03  0.00000000000E+00 0. -1.
         25    2    1    2    0    0  0.34574261502E+02 -0.15896742103E+02  0.33461737679E+02  0.13497000375E+03  0.12509647499E+03 0.  0.
         23    2    1    2    0    0 -0.34574261502E+02  0.15896742103E+02 -0.43068531073E+02  0.10901517013E+03  0.92635430484E+02 0.  0.
          5    1    3    3  502    0  0.52712973937E+02 -0.21086913881E+02  0.72042677182E+02  0.91820124667E+02  0.41800000000E+01 0. -1.
         -5    1    3    3    0  502 -0.18138712435E+02  0.51901717787E+01 -0.38580939503E+02  0.43149879082E+02  0.41800000000E+01 0. -1.
        -11    1    4    4    0    0 -0.38135027165E+02  0.32876835255E+02  0.11591758175E+02  0.51667547366E+02  0.00000000000E+00 0.  1.
         11    1    4    4    0    0  0.35607656622E+01 -0.16980093153E+02 -0.54660289247E+02  0.57347622760E+02  0.00000000000E+00 0. -1.
</event>
<event>
 8    1  0.3719512E-009  0.6750839E+02  0.7561462E-02  0.1368777E+00
          2   -1    0    0  501    0  0.00000000000E+00  0.00000000000E+00  0.10668430182E+03  0.10668430182E+03  0.00000000000E+00 0. -1.
         -2   -1    0    0    0  501 -0.00000000000E+00 -0.00000000000E+00 -0.17570291676E+03  0.17570291676E+03  0.00000000000E+00 0.  1.
         25    2    1    2    0    0 -0.23811621540E+01  0.54610006237E+02 -0.10143800247E+03  0.17007359505E+03  0.12508971451E+03 0.  0.
         23    2    1    2    0    0  0.23811621540E+01 -0.54610006237E+02  0.32419387533E+02  0.11231362352E+03  0.92603513033E+02 0.  0.
          5    1    3    3  502    0 -0.11270109417E+02  0.64649945216E+02 -0.12580157518E+03  0.14195118703E+03  0.41800000000E+01 0.  1.
         -5    1    3    3    0  502  0.88889472631E+01 -0.10039938979E+02  0.24363572705E+02  0.28122408025E+02  0.41800000000E+01 0.  1.
        -11    1    4    4    0    0  0.41433714096E+01 -0.14940721970E+02 -0.32616283554E+02  0.36113912174E+02  0.00000000000E+00 0.  1.
         11    1    4    4    0    0 -0.17622092556E+01 -0.39669284267E+02  0.65035671087E+02  0.76199711347E+02  0.00000000000E+00 0. -1.
</event>
<event>
 8    1  0.3719512E-009  0.1872821E+03  0.7561462E-02  0.1160936E+00
          2   -1    0    0  501    0  0.00000000000E+00  0.00000000000E+00  0.53965407308E+03  0.53965407308E+03  0.00000000000E+00 0.  1.
         -2   -1    0    0    0  501 -0.00000000000E+00 -0.00000000000E+00 -0.67288691956E+02  0.67288691956E+02  0.00000000000E+00 0. -1.
         25    2    1    2    0    0  0.56506004806E+02  0.14334621766E+03  0.26379614897E+03  0.33011158166E+03  0.12507670222E+03 0.  0.
         23    2    1    2    0    0 -0.56506004806E+02 -0.14334621766E+03  0.20856923215E+03  0.27683118338E+03  0.96919104380E+02 0.  0.
          5    1    3    3  502    0  0.96442843418E+02  0.10319849531E+03  0.17893062875E+03  0.22800174075E+03  0.41800000000E+01 0. -1.
         -5    1    3    3    0  502 -0.39936838612E+02  0.40147722347E+02  0.84865520224E+02  0.10210984091E+03  0.41800000000E+01 0. -1.
        -11    1    4    4    0    0  0.12231314498E+02 -0.86251465567E+02  0.69100834377E+02  0.11119283106E+03  0.00000000000E+00 0. -1.
         11    1    4    4    0    0 -0.68737319304E+02 -0.57094752088E+02  0.13946839778E+03  0.16563835232E+03  0.00000000000E+00 0.  1.
</event>
<event>
 8    1  0.3719512E-009  0.2049163E+03  0.7561462E-02  0.1145656E+00
         -2   -1    0    0    0  501 -0.00000000000E+00  0.00000000000E+00  0.49635819627E+02  0.49635819627E+02  0.00000000000E+00 0.  1.
          2   -1    0    0  501    0  0.00000000000E+00 -0.00000000000E+00 -0.95161623012E+03  0.95161623012E+03  0.00000000000E+00 0. -1.
         25    2    1    2    0    0  0.10739272793E+03  0.14277622700E+03 -0.59776817116E+03  0.63631171807E+03  0.12509023582E+03 0.  0.
         23    2    1    2    0    0 -0.10739272793E+03 -0.14277622700E+03 -0.30421223934E+03  0.36494033168E+03  0.93370820462E+02 0.  0.
          5    1    3    3  502    0  0.70548231186E+02  0.16098355781E+03 -0.50602010563E+03  0.53569261569E+03  0.41800000000E+01 0.  1.
         -5    1    3    3    0  502  0.36844496741E+02 -0.18207330803E+02 -0.91748065529E+02  0.10061910238E+03  0.41800000000E+01 0.  1.
        -11    1    4    4    0    0 -0.76929721267E+02 -0.42458544507E+02 -0.19321935161E+03  0.21226075438E+03  0.00000000000E+00 0.  1.
         11    1    4    4    0    0 -0.30463006660E+02 -0.10031768250E+03 -0.11099288773E+03  0.15267957730E+03  0.00000000000E+00 0. -1.
</event>
<event>
 8    1  0.3719512E-009  0.1608160E+03  0.7561462E-02  0.1187779E+00
         -1   -1    0    0    0  501 -0.00000000000E+00  0.00000000000E+00  0.48980681366E+02  0.48980681366E+02  0.00000000000E+00 0.  1.
          1   -1    0    0  501    0  0.00000000000E+00 -0.00000000000E+00 -0.54107241387E+03  0.54107241387E+03  0.00000000000E+00 0. -1.
         25    2    1    2    0    0 -0.11600686099E+03  0.30069794710E+02 -0.25340434165E+03  0.30695705769E+03  0.12508833098E+03 0.  0.
         23    2    1    2    0    0  0.11600686099E+03 -0.30069794710E+02 -0.23868739085E+03  0.28309603754E+03  0.93861129171E+02 0.  0.
          5    1    3    3  502    0 -0.15528597947E+02  0.64463796688E+02 -0.86222736914E+02  0.10885105052E+03  0.41800000000E+01 0. -1.
         -5    1    3    3    0  502 -0.10047826304E+03 -0.34394001979E+02 -0.16718160474E+03  0.19810600718E+03  0.41800000000E+01 0. -1.
        -11    1    4    4    0    0  0.14683176952E+02 -0.44226979404E+02 -0.10395656888E+03  0.11392361303E+03  0.00000000000E+00 0. -1.
         11    1    4    4    0    0  0.10132368404E+03  0.14157184694E+02 -0.13473082196E+03  0.16917242450E+03  0.00000000000E+00 0.  1.
</event>
<event>
 8    1  0.3719512E-009  0.1183504E+03  0.7561462E-02  0.1245843E+00
         -2   -1    0    0    0  501 -0.00000000000E+00  0.00000000000E+00  0.37588546986E+02  0.37588546986E+02  0.00000000000E+00 0.  1.
          2   -1    0    0  501    0  0.00000000000E+00 -0.00000000000E+00 -0.67902762037E+03  0.67902762037E+03  0.00000000000E+00 0. -1.
         25    2    1    2    0    0  0.84753528368E+02  0.53215218010E+02 -0.21043310432E+03  0.26447092516E+03  0.12509100232E+03 0.  0.
         23    2    1    2    0    0 -0.84753528368E+02 -0.53215218010E+02 -0.43100596906E+03  0.45214524220E+03  0.93027709182E+02 0.  0.
          5    1    3    3  502    0  0.33368078027E+02 -0.12884039495E+02 -0.16547518714E+03  0.16934856677E+03  0.41800000000E+01 0. -1.
         -5    1    3    3    0  502  0.51385450340E+02  0.66099257506E+02 -0.44957917176E+02  0.95122358394E+02  0.41800000000E+01 0. -1.
        -11    1    4    4    0    0 -0.19554593998E+02 -0.47552762162E+02 -0.80054223350E+02  0.95143712413E+02  0.00000000000E+00 0.  1.
         11    1    4    4    0    0 -0.65198934370E+02 -0.56624558479E+01 -0.35095174571E+03  0.35700152979E+03  0.00000000000E+00 0. -1.
</event>
<event>
 8    1  0.3719512E-009  0.1247506E+03  0.7561462E-02  0.1235460E+00
          1   -1    0    0  501    0  0.00000000000E+00  0.00000000000E+00  0.54949729985E+03  0.54949729985E+03  0.00000000000E+00 0. -1.
         -1   -1    0    0    0  501 -0.00000000000E+00 -0.00000000000E+00 -0.30379923415E+02  0.30379923415E+02  0.00000000000E+00 0.  1.
         25    2    1    2    0    0  0.31157923484E+02 -0.56504091443E+02  0.23837051461E+03  0.27682619830E+03  0.12509481717E+03 0.  0.
         23    2    1    2    0    0 -0.31157923484E+02  0.56504091443E+02  0.28074686182E+03  0.30305102496E+03  0.94114795668E+02 0.  0.
          5    1    3    3  502    0  0.20064490270E+02 -0.96632699973E+02  0.16190130439E+03  0.18965749982E+03  0.41800000000E+01 0.  1.
         -5    1    3    3    0  502  0.11093433215E+02  0.40128608531E+02  0.76469210225E+02  0.87168698485E+02  0.41800000000E+01 0.  1.
        -11    1    4    4    0    0 -0.52868590961E+02  0.51471968972E+01  0.91922787125E+02  0.10616675722E+03  0.00000000000E+00 0.  1.
         11    1    4    4    0    0  0.21710667476E+02  0.51356894545E+02  0.18882407470E+03  0.19688426774E+03  0.00000000000E+00 0. -1.
</event>
<event>
 8    1  0.3719512E-009  0.9976306E+02  0.7561462E-02  0.1280795E+00
          1   -1    0    0  501    0  0.00000000000E+00  0.00000000000E+00  0.16351948170E+03  0.16351948170E+03  0.00000000000E+00 0. -1.
         -1   -1    0    0    0  501 -0.00000000000E+00 -0.00000000000E+00 -0.96207848136E+02  0.96207848136E+02  0.00000000000E+00 0.  1.
         25    2    1    2    0    0 -0.37456308159E+02  0.38817669521E+02  0.35200398023E+01  0.13626941217E+03  0.12508867065E+03 0.  0.
         23    2    1    2    0    0  0.37456308159E+02 -0.38817669521E+02  0.63791593759E+02  0.12345791766E+03  0.90899414251E+02 0.  0.
          5    1    3    3  502    0 -0.52229002681E+01  0.57882616453E+02 -0.45862511383E+02  0.74151994748E+02  0.41800000000E+01 0. -1.
         -5    1    3    3    0  502 -0.32233407891E+02 -0.19064946932E+02  0.49382551185E+02  0.62117417423E+02  0.41800000000E+01 0. -1.
        -11    1    4    4    0    0  0.29883697579E+02 -0.67548763601E+02  0.33764549404E+02  0.81215242667E+02  0.00000000000E+00 0.  1.
         11    1    4    4    0    0  0.75726105794E+01  0.28731094080E+02  0.30027044355E+02  0.42242674995E+02  0.00000000000E+00 0. -1.
</event>
<event>
 8    1  0.3719512E-009  0.1191328E+03  0.7561462E-02  0.1244535E+00
          2   -1    0    0  501    0  0.00000000000E+00  0.00000000000E+00  0.19484508912E+04  0.19484508912E+04  0.00000000000E+00 0.  1.
         -2   -1    0    0    0  501 -0.00000000000E+00 -0.00000000000E+00 -0.29831175347E+02  0.29831175347E+02  0.00000000000E+00 0. -1.
         25    2    1    2    0    0  0.40062140695E+02 -0.60454769851E+02  0.18199828175E+04  0.18257174384E+04  0.12508778820E+03 0.  0.
         23    2    1    2    0    0 -0.40062140695E+02  0.60454769851E+02  0.98636898356E+02  0.15256462810E+03  0.91032816692E+02 0.  0.
          5    1    3    3  502    0 -0.18802834146E+02 -0.73862680516E+02  0.71127736874E+03  0.71536159376E+03  0.41800000000E+01 0. -1.
         -5    1    3    3    0  502  0.58864974841E+02  0.13407910666E+02  0.11087054488E+04  0.11103558447E+04  0.41800000000E+01 0. -1.
        -11    1    4    4    0    0 -0.42953267721E+02  0.21162246482E+01  0.80731799980E+02  0.91471772381E+02  0.00000000000E+00 0.  1.
         11    1    4    4    0    0  0.28911270259E+01  0.58338545202E+02  0.17905098376E+02  0.61092855717E+02  0.00000000000E+00 0. -1.
</event>
<event>
 8    1  0.3719512E-009  0.2521748E+03  0.7561462E-02  0.1111938E+00
          1   -1    0    0  501    0  0.00000000000E+00  0.00000000000E+00  0.80169971338E+03  0.80169971338E+03  0.00000000000E+00 0. -1.
         -1   -1    0    0    0  501 -0.00000000000E+00 -0.00000000000E+00 -0.89703999263E+02  0.89703999263E+02  0.00000000000E+00 0.  1.
         25    2    1    2    0    0 -0.16984513804E+03  0.16134132641E+03  0.48274268777E+03  0.55096884700E+03  0.12509105982E+03 0.  0.
         23    2    1    2    0    0  0.16984513804E+03 -0.16134132641E+03  0.22925302634E+03  0.34043486564E+03  0.91981265117E+02 0.  0.
          5    1    3    3  502    0 -0.15598409670E+03  0.17492324639E+03  0.38120272551E+03  0.44750661547E+03  0.41800000000E+01 0. -1.
         -5    1    3    3    0  502 -0.13861041333E+02 -0.13581919985E+02  0.10153996226E+03  0.10346223153E+03  0.41800000000E+01 0. -1.
        -11    1    4    4    0    0 -0.59504954777E+01 -0.30170373738E+02  0.16657628009E+02  0.34973367278E+02  0.00000000000E+00 0.  1.
         11    1    4    4    0    0  0.17579563352E+03 -0.13117095267E+03  0.21259539834E+03  0.30546149836E+03  0.00000000000E+00 0. -1.
</event>
<event>
 8    1  0.3719512E-009  0.1368114E+03  0.7561462E-02  0.1217685E+00
         -2   -1    0    0    0  501 -0.00000000000E+00  0.00000000000E+00  0.10071095032E+03  0.10071095032E+03  0.00000000000E+00 0.  1.
          2   -1    0    0  501    0  0.00000000000E+00 -0.00000000000E+00 -0.22021848142E+03  0.22021848142E+03  0.00000000000E+00 0. -1.
         25    2    1    2    0    0  0.72421459195E+02 -0.69228330380E+02 -0.47415073654E+02  0.16713663847E+03  0.12509611197E+03 0.  0.
         23    2    1    2    0    0 -0.72421459195E+02  0.69228330380E+02 -0.72092457443E+02  0.15379279327E+03  0.91746778486E+02 0.  0.
          5    1    3    3  502    0  0.58075837008E+02  0.20842866627E+02 -0.43761709051E+02  0.75761385365E+02  0.41800000000E+01 0. -1.
         -5    1    3    3    0  502  0.14345622188E+02 -0.90071197007E+02 -0.36533646027E+01  0.91375253101E+02  0.41800000000E+01 0. -1.
        -11    1    4    4    0    0 -0.60152991313E+02  0.11226997047E+02 -0.72023283012E+02  0.94508100830E+02  0.00000000000E+00 0. -1.
         11    1    4    4    0    0 -0.12268467882E+02  0.58001333334E+02 -0.69174430795E-01  0.59284692441E+02  0.00000000000E+00 0.  1.
</event>
<event>
 8    1  0.3719512E-009  0.1366713E+03  0.7561462E-02  0.1217879E+00
          2   -1    0    0  501    0  0.00000000000E+00  0.00000000000E+00  0.69113862351E+03  0.69113862351E+03  0.00000000000E+00 0. -1.
         -2   -1    0    0    0  501 -0.00000000000E+00 -0.00000000000E+00 -0.29613334134E+02  0.29613334134E+02  0.00000000000E+00 0.  1.
         25    2    1    2    0    0  0.27960347656E+02 -0.86271768042E+02  0.37061169082E+03  0.40152894954E+03  0.12509145831E+03 0.  0.
         23    2    1    2    0    0 -0.27960347656E+02  0.86271768042E+02  0.29091359855E+03  0.31922300810E+03  0.95121018057E+02 0.  0.
          5    1    3    3  502    0 -0.12866459390E+02  0.28462530815E+02  0.97504038242E+02  0.10247034357E+03  0.41800000000E+01 0. -1.
         -5    1    3    3    0  502  0.40826807046E+02 -0.11473429886E+03  0.27310765258E+03  0.29905860597E+03  0.41800000000E+01 0. -1.
        -11    1    4    4    0    0  0.21075367742E+02  0.38835895929E+00  0.11934399633E+03  0.12119121836E+03  0.00000000000E+00 0. -1.
         11    1    4    4    0    0 -0.49035715398E+02  0.85883409083E+02  0.17156960222E+03  0.19803178974E+03  0.00000000000E+00 0.  1.
</event>
<event>
 8    1  0.3719512E-009  0.1418515E+03  0.7561462E-02  0.1210859E+00
          2   -1    0    0  501    0  0.00000000000E+00  0.00000000000E+00  0.64612089334E+03  0.64612089334E+03  0.00000000000E+00 0. -1.
         -2   -1    0    0    0  501 -0.00000000000E+00 -0.00000000000E+00 -0.37873964599E+02  0.37873964599E+02  0.00000000000E+00 0.  1.
         25    2    1    2    0    0  0.76555151340E+02  0.76244560527E+02  0.25687020988E+03  0.30545618542E+03  0.12508897744E+03 0.  0.
         23    2    1    2    0    0 -0.76555151340E+02 -0.76244560527E+02  0.35137671885E+03  0.37853867252E+03  0.90288447961E+02 0.  0.
          5    1    3    3  502    0  0.17639274627E+02  0.99995672334E+02  0.15909854825E+03  0.18878585474E+03  0.41800000000E+01 0. -1.
         -5    1    3    3    0  502  0.58915876713E+02 -0.23751111807E+02  0.97771661639E+02  0.11667033068E+03  0.41800000000E+01 0. -1.
        -11    1    4    4    0    0 -0.73890581465E+01 -0.39326798207E+02  0.36884800570E+02  0.54421353811E+02  0.00000000000E+00 0. -1.
         11    1    4    4    0    0 -0.69166093194E+02 -0.36917762320E+02  0.31449191828E+03  0.32411731871E+03  0.00000000000E+00 0.  1.
</event>
<event>
 8    1  0.3719512E-009  0.3080395E+03  0.7561462E-02  0.1081289E+00
          2   -1    0    0  501    0  0.00000000000E+00  0.00000000000E+00  0.86988674602E+03  0.86988674602E+03  0.00000000000E+00 0.  1.
         -2   -1    0    0    0  501 -0.00000000000E+00 -0.00000000000E+00 -0.11011444733E+03  0.11011444733E+03  0.00000000000E+00 0. -1.
         25    2    1    2    0    0 -0.19243307492E+03 -0.21548222863E+03  0.35287214274E+03  0.47289157057E+03  0.12507841225E+03 0.  0.
         23    2    1    2    0    0  0.19243307492E+03  0.21548222863E+03  0.40690015594E+03  0.50710962279E+03  0.90162927159E+02 0.  0.
          5    1    3    3  502    0 -0.63376996628E+02 -0.82359599366E-01  0.77418159992E+02  0.10013837617E+03  0.41800000000E+01 0. -1.
         -5    1    3    3    0  502 -0.12905607829E+03 -0.21539986903E+03  0.27545398275E+03  0.37275319440E+03  0.41800000000E+01 0. -1.
        -11    1    4    4    0    0  0.15363529226E+03  0.10977293566E+03  0.27645393447E+03  0.33478452521E+03  0.00000000000E+00 0.  1.
         11    1    4    4    0    0  0.38797782663E+02  0.10570929297E+03  0.13044622147E+03  0.17232509758E+03  0.00000000000E+00 0. -1.
</event>
<event>
 8    1  0.3719512E-009  0.9385283E+02  0.7561462E-02  0.1293781E+00
         -3   -1    0    0    0  501 -0.00000000000E+00  0.00000000000E+00  0.14940895057E+03  0.14940895057E+03  0.00000000000E+00 0.  1.
          3   -1    0    0  501    0  0.00000000000E+00 -0.00000000000E+00 -0.84441958255E+02  0.84441958255E+02  0.00000000000E+00 0. -1.
         25    2    1    2    0    0  0.19464212146E+02 -0.21515505491E+02  0.55931930932E+02  0.14006604504E+03  0.12509333933E+03 0.  0.
         23    2    1    2    0    0 -0.19464212146E+02  0.21515505491E+02  0.90350613840E+01  0.93784863788E+02  0.88725395522E+02 0.  0.
          5    1    3    3  502    0 -0.22929593876E+02  0.23410861945E+02 -0.22628487544E+02  0.40041922791E+02  0.41800000000E+01 0.  1.
         -5    1    3    3    0  502  0.42393806022E+02 -0.44926367436E+02  0.78560418476E+02  0.10002412225E+03  0.41800000000E+01 0.  1.
        -11    1    4    4    0    0  0.45894969144E+01  0.52965973058E+02  0.10377330223E+02  0.54167765013E+02  0.00000000000E+00 0.  1.
         11    1    4    4    0    0 -0.24053709060E+02 -0.31450467567E+02 -0.13422688392E+01  0.39617098775E+02  0.00000000000E+00 0. -1.
</event>
<event>
 8    1  0.3719512E-009  0.1307755E+03  0.7561462E-02  0.1226310E+00
         -1   -1    0    0    0  501 -0.00000000000E+00  0.00000000000E+00  0.74070795720E+02  0.74070795720E+02  0.00000000000E+00 0.  1.
          1   -1    0    0  501    0  0.00000000000E+00 -0.00000000000E+00 -0.30831933652E+03  0.30831933652E+03  0.00000000000E+00 0. -1.
         25    2    1    2    0    0 -0.64894387766E+02  0.79586834577E+02 -0.15176973367E+03  0.22187133554E+03  0.12508993433E+03 0.  0.
         23    2    1    2    0    0  0.64894387766E+02 -0.79586834577E+02 -0.82478807121E+02  0.16051879670E+03  0.91750665766E+02 0.  0.
          5    1    3    3  502    0  0.32244177061E+01 -0.27730084206E+02 -0.55840227813E+02  0.62569624274E+02  0.41800000000E+01 0. -1.
         -5    1    3    3    0  502 -0.68118805472E+02  0.10731691878E+03 -0.95929505861E+02  0.15930171126E+03  0.41800000000E+01 0. -1.
        -11    1    4    4    0    0  0.22885536539E+02 -0.10255645616E+02 -0.75032252299E+02  0.79112356397E+02  0.00000000000E+00 0. -1.
         11    1    4    4    0    0  0.42008851227E+02 -0.69331188960E+02 -0.74465548225E+01  0.81406440303E+02  0.00000000000E+00 0.  1.
</event>
<event>
 8    1  0.3719512E-009  0.9975587E+02  0.7561462E-02  0.1280810E+00
         -3   -1    0    0    0  501 -0.00000000000E+00  0.00000000000E+00  0.69708919289E+02  0.69708919289E+02  0.00000000000E+00 0.  1.
          3   -1    0    0  501    0  0.00000000000E+00 -0.00000000000E+00 -0.29886178622E+03  0.29886178622E+03  0.00000000000E+00 0. -1.
         25    2    1    2    0    0 -0.75621168386E+02 -0.30804536094E+02 -0.18745427603E+03  0.23969590825E+03  0.12509013661E+03 0.  0.
         23    2    1    2    0    0  0.75621168386E+02  0.30804536094E+02 -0.41698590908E+02  0.12887479727E+03  0.90567435287E+02 0.  0.
          5    1    3    3  502    0 -0.92302592967E+02 -0.14006723168E+02 -0.62444086151E+02  0.11239525460E+03  0.41800000000E+01 0.  1.
         -5    1    3    3    0  502  0.16681424582E+02 -0.16797812926E+02 -0.12501018988E+03  0.12730065364E+03  0.41800000000E+01 0.  1.
        -11    1    4    4    0    0  0.83154642140E+01  0.61396355910E+01  0.27415800962E+02  0.29299628200E+02  0.00000000000E+00 0.  1.
         11    1    4    4    0    0  0.67305704172E+02  0.24664900503E+02 -0.69114391869E+02  0.99575169065E+02  0.00000000000E+00 0. -1.
</event>
<event>
 8    1  0.3719512E-009  0.8879789E+02  0.7561462E-02  0.1305789E+00
         -4   -1    0    0    0  501 -0.00000000000E+00  0.00000000000E+00  0.55449088533E+03  0.55449088533E+03  0.00000000000E+00 0.  1.
          4   -1    0    0  501    0  0.00000000000E+00 -0.00000000000E+00 -0.30371343934E+02  0.30371343934E+02  0.00000000000E+00 0. -1.
         25    2    1    2    0    0 -0.30891163128E+02  0.25894296292E+02  0.15850999564E+03  0.20590460527E+03  0.12508600727E+03 0.  0.
         23    2    1    2    0    0  0.30891163128E+02 -0.25894296292E+02  0.36560954576E+03  0.37895762400E+03  0.91179834913E+02 0.  0.
          5    1    3    3  502    0 -0.19567543250E+02  0.52206278220E+02  0.12811975214E+02  0.57358550742E+02  0.41800000000E+01 0. -1.
         -5    1    3    3    0  502 -0.11323619879E+02 -0.26311981927E+02  0.14569802042E+03  0.14854605452E+03  0.41800000000E+01 0. -1.
        -11    1    4    4    0    0 -0.21060229683E+02 -0.34162748331E+02  0.92546832454E+02  0.10087389576E+03  0.00000000000E+00 0.  1.
         11    1    4    4    0    0  0.51951392812E+02  0.82684520383E+01  0.27306271331E+03  0.27808372824E+03  0.00000000000E+00 0. -1.
</event>
<event>
 8    1  0.3719512E-009  0.1056945E+03  0.7561462E-02  0.1268757E+00
          1   -1    0    0  501    0  0.00000000000E+00  0.00000000000E+00  0.57753488232E+02  0.57753488232E+02  0.00000000000E+00 0. -1.
         -1   -1    0    0    0  501 -0.00000000000E+00 -0.00000000000E+00 -0.27445503740E+03  0.27445503740E+03  0.00000000000E+00 0.  1.
         25    2    1    2    0    0 -0.47334389237E+02  0.28554487105E+02 -0.16123162085E+03  0.21142330535E+03  0.12509306674E+03 0.  0.
         23    2    1    2    0    0  0.47334389237E+02 -0.28554487105E+02 -0.55469928318E+02  0.12078522028E+03  0.91957889017E+02 0.  0.
          5    1    3    3  502    0  0.12122355013E+02 -0.39760823065E+02 -0.77341306227E+02  0.87903495896E+02  0.41800000000E+01 0. -1.
         -5    1    3    3    0  502 -0.59456744249E+02  0.68315310170E+02 -0.83890314624E+02  0.12351980946E+03  0.41800000000E+01 0. -1.
        -11    1    4    4    0    0  0.56732233926E+02 -0.92526193931E+01  0.39387782816E+01  0.57616588811E+02  0.00000000000E+00 0. -1.
         11    1    4    4    0    0 -0.93978446893E+01 -0.19301867712E+02 -0.59408706599E+02  0.63168631470E+02  0.00000000000E+00 0.  1.
</event>
<event>
 8    1  0.3719512E-009  0.8788768E+02  0.7561462E-02  0.1308049E+00
          1   -1    0    0  501    0  0.00000000000E+00  0.00000000000E+00  0.44964115938E+02  0.44964115938E+02  0.00000000000E+00 0. -1.
         -1   -1    0    0    0  501 -0.00000000000E+00 -0.00000000000E+00 -0.26941011005E+03  0.26941011005E+03  0.00000000000E+00 0.  1.
         25    2    1    2    0    0 -0.72383807373E+01  0.15013393643E+02 -0.11427164334E+03  0.17024514662E+03  0.12509038865E+03 0.  0.
         23    2    1    2    0    0  0.72383807373E+01 -0.15013393643E+02 -0.11017435077E+03  0.14412907937E+03  0.91416671383E+02 0.  0.
          5    1    3    3  502    0  0.29496940768E+02  0.36045820143E+02  0.16222884078E+01  0.46791824971E+02  0.41800000000E+01 0.  1.
         -5    1    3    3    0  502 -0.36735321505E+02 -0.21032426501E+02 -0.11589393175E+03  0.12345332165E+03  0.41800000000E+01 0.  1.
        -11    1    4    4    0    0 -0.37919896471E+02 -0.16356965645E+02 -0.26592443354E+02  0.49118498726E+02  0.00000000000E+00 0. -1.
         11    1    4    4    0    0  0.45158277209E+02  0.13435720025E+01 -0.83581907419E+02  0.95010580642E+02  0.00000000000E+00 0.  1.
</event>
<event>
 8    1  0.3719512E-009  0.1195215E+03  0.7561462E-02  0.1243889E+00
          2   -1    0    0  501    0  0.00000000000E+00  0.00000000000E+00  0.12112659669E+04  0.12112659669E+04  0.00000000000E+00 0. -1.
         -2   -1    0    0    0  501 -0.00000000000E+00 -0.00000000000E+00 -0.16620610680E+02  0.16620610680E+02  0.00000000000E+00 0.  1.
         25    2    1    2    0    0  0.57392639736E+02  0.51605370208E+02  0.87940898261E+03  0.89160781319E+03  0.12508918626E+03 0.  0.
         23    2    1    2    0    0 -0.57392639736E+02 -0.51605370208E+02  0.31523637360E+03  0.33627876438E+03  0.88047752958E+02 0.  0.
          5    1    3    3  502    0  0.80889662871E+02  0.64270229365E+02  0.81811545089E+03  0.82462364951E+03  0.41800000000E+01 0.  1.
         -5    1    3    3    0  502 -0.23497023135E+02 -0.12664859157E+02  0.61293531711E+02  0.66984163676E+02  0.41800000000E+01 0.  1.
        -11    1    4    4    0    0  0.14529592755E+02 -0.30318063798E+02  0.16463564973E+03  0.16803330391E+03  0.00000000000E+00 0. -1.
         11    1    4    4    0    0 -0.71922232490E+02 -0.21287306410E+02  0.15060072387E+03  0.16824546047E+03  0.00000000000E+00 0.  1.
</event>
<event>
 8    1  0.3719512E-009  0.1057078E+03  0.7561462E-02  0.1268731E+00
          2   -1    0    0  501    0  0.00000000000E+00  0.00000000000E+00  0.73539730415E+03  0.73539730415E+03  0.00000000000E+00 0. -1.
         -2   -1    0    0    0  501 -0.00000000000E+00 -0.00000000000E+00 -0.19449804335E+02  0.19449804335E+02  0.00000000000E+00 0.  1.
         25    2    1    2    0    0 -0.36647345463E+02  0.23156720417E+00  0.51164518133E+03  0.52798733080E+03  0.12508696314E+03 0.  0.
         23    2    1    2    0    0  0.36647345463E+02 -0.23156720417E+00  0.20430231848E+03  0.22685977769E+03  0.91557849705E+02 0.  0.
          5    1    3    3  502    0 -0.78178235482E+02 -0.15314789955E+02  0.39818101448E+03  0.40609355078E+03  0.41800000000E+01 0. -1.
         -5    1    3    3    0  502  0.41530890019E+02  0.15546357159E+02  0.11346416686E+03  0.12189378002E+03  0.41800000000E+01 0. -1.
        -11    1    4    4    0    0  0.50396093415E+01  0.37523801765E+02  0.14458728395E+03  0.14946208898E+03  0.00000000000E+00 0. -1.
         11    1    4    4    0    0  0.31607736121E+02 -0.37755368969E+02  0.59715034531E+02  0.77397688710E+02  0.00000000000E+00 0.  1.
</event>
<event>
 8    1  0.3719512E-009  0.1315550E+03  0.7561462E-02  0.1225166E+00
         -1   -1    0    0    0  501 -0.00000000000E+00  0.00000000000E+00  0.33105650162E+02  0.33105650162E+02  0.00000000000E+00 0.  1.
          1   -1    0    0  501    0  0.00000000000E+00 -0.00000000000E+00 -0.66559475914E+03  0.66559475914E+03  0.00000000000E+00 0. -1.
         25    2    1    2    0    0  0.75590985177E+01 -0.10119766216E+03 -0.32507547266E+03  0.36279290398E+03  0.12508605620E+03 0.  0.
         23    2    1    2    0    0 -0.75590985177E+01  0.10119766216E+03 -0.30741363632E+03  0.33590750533E+03  0.89624781953E+02 0.  0.
          5    1    3    3  502    0 -0.95767066388E+01 -0.12791633384E+03 -0.24562147792E+03  0.27713116857E+03  0.41800000000E+01 0.  1.
         -5    1    3    3    0  502  0.17135805157E+02  0.26718671678E+02 -0.79453994733E+02  0.85661735411E+02  0.41800000000E+01 0.  1.
        -11    1    4    4    0    0  0.41821676397E+01  0.10575659785E+02  0.34556848806E+01  0.11885994449E+02  0.00000000000E+00 0.  1.
         11    1    4    4    0    0 -0.11741266157E+02  0.90622002378E+02 -0.31086932120E+03  0.32402151088E+03  0.00000000000E+00 0. -1.
</event>
<event>
 8    1  0.3719512E-009  0.9445446E+02  0.7561462E-02  0.1292410E+00
          1   -1    0    0  501    0  0.00000000000E+00  0.00000000000E+00  0.11365408778E+03  0.11365408778E+03  0.00000000000E+00 0. -1.
         -1   -1    0    0    0  501 -0.00000000000E+00 -0.00000000000E+00 -0.13237981219E+03  0.13237981219E+03  0.00000000000E+00 0.  1.
         25    2    1    2    0    0  0.62279805183E+02 -0.14829662930E+02 -0.81027826479E+01  0.14075540408E+03  0.12509090956E+03 0.  0.
         23    2    1    2    0    0 -0.62279805183E+02  0.14829662930E+02 -0.10622941760E+02  0.10527849590E+03  0.82897658412E+02 0.  0.
          5    1    3    3  502    0  0.10515796192E+02 -0.41592663013E+02 -0.52099220310E+02  0.67619026486E+02  0.41800000000E+01 0.  1.
         -5    1    3    3    0  502  0.51764008991E+02  0.26763000083E+02  0.43996437662E+02  0.73136377591E+02  0.41800000000E+01 0.  1.
        -11    1    4    4    0    0 -0.51748149772E+02 -0.16511124431E+02 -0.34630556014E+02  0.64418659134E+02  0.00000000000E+00 0.  1.
         11    1    4    4    0    0 -0.10531655411E+02  0.31340787360E+02  0.24007614253E+02  0.40859836762E+02  0.00000000000E+00 0. -1.
</event>
<event>
 8    1  0.3719512E-009  0.1532523E+03  0.7561462E-02  0.1196533E+00
         -2   -1    0    0    0  501 -0.00000000000E+00  0.00000000000E+00  0.16419745203E+03  0.16419745203E+03  0.00000000000E+00 0.  1.
          2   -1    0    0  501    0  0.00000000000E+00 -0.00000000000E+00 -0.30770580457E+03  0.30770580457E+03  0.00000000000E+00 0. -1.
         25    2    1    2    0    0 -0.60544444242E+00 -0.12142099126E+03  0.87848091816E+02  0.19521316225E+03  0.12508983890E+03 0.  0.
         23    2    1    2    0    0  0.60544444242E+00  0.12142099126E+03 -0.23135644436E+03  0.27669009435E+03  0.91039443567E+02 0.  0.
          5    1    3    3  502    0  0.31250240775E+02 -0.12942412853E+03  0.91931251830E+02  0.16185181512E+03  0.41800000000E+01 0. -1.
         -5    1    3    3    0  502 -0.31855685218E+02  0.80031372621E+01 -0.40831600143E+01  0.33361347132E+02  0.41800000000E+01 0. -1.
        -11    1    4    4    0    0 -0.34384051182E+02  0.50384547242E+02 -0.50258486015E+02  0.79036580094E+02  0.00000000000E+00 0.  1.
         11    1    4    4    0    0  0.34989495624E+02  0.71036444023E+02 -0.18109795834E+03  0.19765351426E+03  0.00000000000E+00 0. -1.
</event>
<event>
 8    1  0.3719512E-009  0.1763584E+03  0.7561462E-02  0.1171375E+00
          1   -1    0    0  501    0  0.00000000000E+00  0.00000000000E+00  0.75322054899E+03  0.75322054899E+03  0.00000000000E+00 0. -1.
         -1   -1    0    0    0  501 -0.00000000000E+00 -0.00000000000E+00 -0.44730061907E+02  0.44730061907E+02  0.00000000000E+00 0.  1.
         25    2    1    2    0    0 -0.43103885480E+02  0.14124631320E+03  0.37645724432E+03  0.42329063454E+03  0.12508572481E+03 0.  0.
         23    2    1    2    0    0  0.43103885480E+02 -0.14124631320E+03  0.33203324277E+03  0.37465997636E+03  0.91189679516E+02 0.  0.
          5    1    3    3  502    0 -0.50756138900E+02  0.16009987451E+03  0.35817154349E+03  0.39561658511E+03  0.41800000000E+01 0. -1.
         -5    1    3    3    0  502  0.76522534198E+01 -0.18853561311E+02  0.18285700835E+02  0.27674049424E+02  0.41800000000E+01 0. -1.
        -11    1    4    4    0    0 -0.19522593875E+02 -0.45733311781E+02  0.16485869256E+03  0.17219481987E+03  0.00000000000E+00 0. -1.
         11    1    4    4    0    0  0.62626479355E+02 -0.95513001420E+02  0.16717455021E+03  0.20246515649E+03  0.00000000000E+00 0.  1.
</event>
<event>
 8    1  0.3719512E-009  0.2075729E+03  0.7561462E-02  0.1143502E+00
         -4   -1    0    0    0  501 -0.00000000000E+00  0.00000000000E+00  0.80544460157E+03  0.80544460157E+03  0.00000000000E+00 0.  1.
          4   -1    0    0  501    0  0.00000000000E+00 -0.00000000000E+00 -0.10689548727E+03  0.10689548727E+03  0.00000000000E+00 0. -1.
         25    2    1    2    0    0 -0.21904334311E+02  0.19537676601E+03  0.65004090721E+03  0.69054551165E+03  0.12509213429E+03 0.  0.
         23    2    1    2    0    0  0.21904334311E+02 -0.19537676601E+03  0.48508207096E+02  0.22179457719E+03  0.90487058504E+02 0.  0.
          5    1    3    3  502    0 -0.32612464584E+02  0.29480724083E+02  0.29741277548E+03  0.30067343973E+03  0.41800000000E+01 0. -1.
         -5    1    3    3    0  502  0.10708130273E+02  0.16589604192E+03  0.35262813173E+03  0.38987207192E+03  0.41800000000E+01 0. -1.
        -11    1    4    4    0    0 -0.14807272037E+01 -0.17065589380E+03  0.10802589460E+02  0.17100386715E+03  0.00000000000E+00 0. -1.
         11    1    4    4    0    0  0.23385061514E+02 -0.24720872209E+02  0.37705617636E+02  0.50790710038E+02  0.00000000000E+00 0.  1.
</event>
<event>
 8    1  0.3719512E-009  0.6325935E+02  0.7561462E-02  0.1384641E+00
          2   -1    0    0  501    0  0.00000000000E+00  0.00000000000E+00  0.39718380085E+03  0.39718380085E+03  0.00000000000E+00 0.  1.
         -2   -1    0    0    0  501 -0.00000000000E+00 -0.00000000000E+00 -0.33520720935E+02  0.33520720935E+02  0.00000000000E+00 0. -1.
         25    2    1    2    0    0 -0.88603098776E+01  0.32851763977E+02  0.22555228464E+03  0.26015223361E+03  0.12509039956E+03 0.  0.
         23    2    1    2    0    0  0.88603098776E+01 -0.32851763977E+02  0.13811079527E+03  0.17055228817E+03  0.94104982551E+02 0.  0.
          5    1    3    3  502    0 -0.22597974601E+02  0.33625249475E+02  0.23780029028E+03  0.24126287803E+03  0.41800000000E+01 0.  1.
         -5    1    3    3    0  502  0.13737664723E+02 -0.77348549830E+00 -0.12248005647E+02  0.18889355579E+02  0.41800000000E+01 0.  1.
        -11    1    4    4    0    0  0.27544767666E+02 -0.42295949362E+02  0.14067887199E+03  0.14945971558E+03  0.00000000000E+00 0.  1.
         11    1    4    4    0    0 -0.18684457789E+02  0.94441853855E+01 -0.25680767103E+01  0.21092572590E+02  0.00000000000E+00 0. -1.
</event>
<event>
 8    1  0.3719512E-009  0.1391764E+03  0.7561462E-02  0.1214441E+00
         -2   -1    0    0    0  501 -0.00000000000E+00  0.00000000000E+00  0.19134844903E+03  0.19134844903E+03  0.00000000000E+00 0.  1.
          2   -1    0    0  501    0  0.00000000000E+00 -0.00000000000E+00 -0.19124830185E+03  0.19124830185E+03  0.00000000000E+00 0. -1.
         25    2    1    2    0    0 -0.89576532445E+02 -0.11883355484E+02 -0.12762290732E+03  0.20024987483E+03  0.12508891476E+03 0.  0.
         23    2    1    2    0    0  0.89576532445E+02  0.11883355484E+02  0.12772305451E+03  0.18234687605E+03  0.93659143969E+02 0.  0.
          5    1    3    3  502    0 -0.11531363792E+03  0.13750860037E+02 -0.10850933051E+03  0.15899078102E+03  0.41800000000E+01 0.  1.
         -5    1    3    3    0  502  0.25737105475E+02 -0.25634215521E+02 -0.19113576813E+02  0.41259093812E+02  0.41800000000E+01 0.  1.
        -11    1    4    4    0    0 -0.53009079204E+01  0.28735049021E+02  0.11574005498E+02  0.31428653651E+02  0.00000000000E+00 0. -1.
         11    1    4    4    0    0  0.94877440366E+02 -0.16851693538E+02  0.11614904901E+03  0.15091822240E+03  0.00000000000E+00 0.  1.
</event>
<event>
 8    1  0.3719512E-009  0.1276343E+03  0.7561462E-02  0.1231009E+00
         -2   -1    0    0    0  501 -0.00000000000E+00  0.00000000000E+00  0.16370182494E+03  0.16370182494E+03  0.00000000000E+00 0.  1.
          2   -1    0    0  501    0  0.00000000000E+00 -0.00000000000E+00 -0.17488682786E+03  0.17488682786E+03  0.00000000000E+00 0. -1.
         25    2    1    2    0    0 -0.97620497897E+02  0.76091112812E+02 -0.44609752041E+02  0.18154585280E+03  0.12509695293E+03 0.  0.
         23    2    1    2    0    0  0.97620497897E+02 -0.76091112812E+02  0.33424749125E+02  0.15704280000E+03  0.90695138341E+02 0.  0.
          5    1    3    3  502    0 -0.18380959816E+02  0.69566564258E+01 -0.70381915577E+02  0.73193860348E+02  0.41800000000E+01 0. -1.
         -5    1    3    3    0  502 -0.79239538081E+02  0.69134456386E+02  0.25772163536E+02  0.10835199245E+03  0.41800000000E+01 0. -1.
        -11    1    4    4    0    0  0.26071726607E+02 -0.44815445280E+02  0.55446649777E+02  0.75911066620E+02  0.00000000000E+00 0.  1.
         11    1    4    4    0    0  0.71548771290E+02 -0.31275667532E+02 -0.22021900651E+02  0.81131733379E+02  0.00000000000E+00 0. -1.
</event>
<event>
 8    1  0.3719512E-009  0.8480260E+02  0.7561462E-02  0.1315950E+00
         -3   -1    0    0    0  501 -0.00000000000E+00  0.00000000000E+00  0.61906279884E+02  0.61906279884E+02  0.00000000000E+00 0.  1.
          3   -1    0    0  501    0  0.00000000000E+00 -0.00000000000E+00 -0.20411766676E+03  0.20411766676E+03  0.00000000000E+00 0. -1.
         25    2    1    2    0    0  0.25843704038E+02  0.11369692702E+02 -0.86948145386E+02  0.15493487037E+03  0.12509063562E+03 0.  0.
         23    2    1    2    0    0 -0.25843704038E+02 -0.11369692702E+02 -0.55263241487E+02  0.11108907627E+03  0.92138971434E+02 0.  0.
          5    1    3    3  502    0 -0.32539896905E+02 -0.14322552958E+02 -0.83579206726E+02  0.90922695795E+02  0.41800000000E+01 0.  1.
         -5    1    3    3    0  502  0.58383600942E+02  0.25692245660E+02 -0.33689386605E+01  0.64012174574E+02  0.41800000000E+01 0.  1.
        -11    1    4    4    0    0  0.20578821394E+02  0.40388790011E+01  0.14780915220E+02  0.25656887736E+02  0.00000000000E+00 0.  1.
         11    1    4    4    0    0 -0.46422525431E+02 -0.15408571703E+02 -0.70044156707E+02  0.85432188536E+02  0.00000000000E+00 0. -1.
</event>
<event>
 8    1  0.3719512E-009  0.1471975E+03  0.7561462E-02  0.1203960E+00
          2   -1    0    0  501    0  0.00000000000E+00  0.00000000000E+00  0.79410692043E+03  0.79410692043E+03  0.00000000000E+00 0.  1.
         -2   -1    0    0    0  501 -0.00000000000E+00 -0.00000000000E+00 -0.43289136280E+02  0.43289136280E+02  0.00000000000E+00 0. -1.
         25    2    1    2    0    0  0.40355665321E+02 -0.10824772996E+03  0.61166961656E+03  0.63492638023E+03  0.12508252366E+03 0.  0.
         23    2    1    2    0    0 -0.40355665321E+02  0.10824772996E+03  0.13914816759E+03  0.20246967648E+03  0.91025307385E+02 0.  0.
          5    1    3    3  502    0  0.30182861151E+02 -0.12487833161E+03  0.35627151290E+03  0.37875119289E+03  0.41800000000E+01 0.  1.
         -5    1    3    3    0  502  0.10172804169E+02  0.16630601646E+02  0.25539810366E+03  0.25617518734E+03  0.41800000000E+01 0.  1.
        -11    1    4    4    0    0 -0.14650162149E+02 -0.14435501628E+02  0.11484564031E+02  0.23556446448E+02  0.00000000000E+00 0. -1.
         11    1    4    4    0    0 -0.25705503172E+02  0.12268323159E+03  0.12766360356E+03  0.17891323003E+03  0.00000000000E+00 0.  1.
</event>
<event>
 8    1  0.3719512E-009  0.1596055E+03  0.7561462E-02  0.1189143E+00
          2   -1    0    0  501    0  0.00000000000E+00  0.00000000000E+00  0.78670653490E+03  0.78670653490E+03  0.00000000000E+00 0. -1.
         -2   -1    0    0    0  501 -0.00000000000E+00 -0.00000000000E+00 -0.46466987268E+02  0.46466987268E+02  0.00000000000E+00 0.  1.
         25    2    1    2    0    0  0.10948885106E+03  0.78734293825E+02  0.56570938124E+03  0.59486542472E+03  0.12510344512E+03 0.  0.
         23    2    1    2    0    0 -0.10948885106E+03 -0.78734293825E+02  0.17453016639E+03  0.23830809744E+03  0.90238976029E+02 0.  0.
          5    1    3    3  502    0 -0.19948471292E+02  0.44135848114E+02  0.12128066873E+03  0.13066134702E+03  0.41800000000E+01 0.  1.
         -5    1    3    3    0  502  0.12943732235E+03  0.34598445712E+02  0.44442871250E+03  0.46420407771E+03  0.41800000000E+01 0.  1.
        -11    1    4    4    0    0 -0.83089760427E+02 -0.47708233493E+02  0.51641309724E+02  0.10884304618E+03  0.00000000000E+00 0.  1.
         11    1    4    4    0    0 -0.26399090632E+02 -0.31026060332E+02  0.12288885667E+03  0.12946505126E+03  0.00000000000E+00 0. -1.
</event>
<event>
 8    1  0.3719512E-009  0.9929454E+02  0.7561462E-02  0.1281786E+00
         -1   -1    0    0    0  501 -0.00000000000E+00  0.00000000000E+00  0.76242141903E+03  0.76242141903E+03  0.00000000000E+00 0.  1.
          1   -1    0    0  501    0  0.00000000000E+00 -0.00000000000E+00 -0.24230152754E+02  0.24230152754E+02  0.00000000000E+00 0. -1.
         25    2    1    2    0    0 -0.42323067356E+02 -0.69741970255E+02  0.40916194278E+03  0.43556344847E+03  0.12508732060E+03 0.  0.
         23    2    1    2    0    0  0.42323067356E+02  0.69741970255E+02  0.32902932350E+03  0.35108812332E+03  0.91364052936E+02 0.  0.
          5    1    3    3  502    0 -0.29260621753E+01 -0.71090976217E+02  0.94244529864E+02  0.11816087571E+03  0.41800000000E+01 0.  1.
         -5    1    3    3    0  502 -0.39397005180E+02  0.13490059617E+01  0.31491741292E+03  0.31740257276E+03  0.41800000000E+01 0.  1.
        -11    1    4    4    0    0  0.47590193513E+02  0.59824205895E+02  0.33097742258E+03  0.33969076582E+03  0.00000000000E+00 0.  1.
         11    1    4    4    0    0 -0.52671261576E+01  0.99177643597E+01 -0.19480990799E+01  0.11397357495E+02  0.00000000000E+00 0. -1.
</event>
<event>
 8    1  0.3719512E-009  0.6270422E+02  0.7561462E-02  0.1386821E+00
         -3   -1    0    0    0  501 -0.00000000000E+00  0.00000000000E+00  0.38474778403E+02  0.38474778403E+02  0.00000000000E+00 0.  1.
          3   -1    0    0  501    0  0.00000000000E+00 -0.00000000000E+00 -0.38402755514E+03  0.38402755514E+03  0.00000000000E+00 0. -1.
         25    2    1    2    0    0 -0.41257131687E+01  0.59996595720E+02 -0.19994269026E+03  0.24339510065E+03  0.12508989817E+03 0.  0.
         23    2    1    2    0    0  0.41257131687E+01 -0.59996595720E+02 -0.14561008648E+03  0.17910723289E+03  0.85208512390E+02 0.  0.
          5    1    3    3  502    0 -0.89801607096E+01  0.45450272914E+02 -0.38684680241E+01  0.46677703877E+02  0.41800000000E+01 0.  1.
         -5    1    3    3    0  502  0.48544475409E+01  0.14546322806E+02 -0.19607422224E+03  0.19671739677E+03  0.41800000000E+01 0.  1.
        -11    1    4    4    0    0 -0.60967728612E+01 -0.40753738086E+02 -0.15111531035E+03  0.15663293022E+03  0.00000000000E+00 0. -1.
         11    1    4    4    0    0  0.10222486030E+02 -0.19242857634E+02  0.55052238764E+01  0.22474302669E+02  0.00000000000E+00 0.  1.
</event>
<event>
 8    1  0.3719512E-009  0.5193127E+02  0.7561462E-02  0.1435195E+00
         -1   -1    0    0    0  501 -0.00000000000E+00  0.00000000000E+00  0.39668052317E+03  0.39668052317E+03  0.00000000000E+00 0.  1.
          1   -1    0    0  501    0  0.00000000000E+00 -0.00000000000E+00 -0.72901190772E+02  0.72901190772E+02  0.00000000000E+00 0. -1.
         25    2    1    2    0    0 -0.87536370237E+01 -0.22974420722E+02  0.35013451939E+03  0.37261953961E+03  0.12508672777E+03 0.  0.
         23    2    1    2    0    0  0.87536370237E+01  0.22974420722E+02 -0.26355186998E+02  0.96962174325E+02  0.90014538823E+02 0.  0.
          5    1    3    3  502    0 -0.20373551739E+02 -0.21027601712E+02  0.85227116126E+01  0.30779061998E+02  0.41800000000E+01 0.  1.
         -5    1    3    3    0  502  0.11619914716E+02 -0.19468190096E+01  0.34161180778E+03  0.34184047762E+03  0.41800000000E+01 0.  1.
        -11    1    4    4    0    0  0.22803714224E+02 -0.10780312224E+02 -0.48178794437E+02  0.54382173066E+02  0.00000000000E+00 0. -1.
         11    1    4    4    0    0 -0.14050077200E+02  0.33754732945E+02  0.21823607439E+02  0.42580001259E+02  0.00000000000E+00 0.  1.
</event>
<event>
 8    1  0.3719512E-009  0.1006628E+03  0.7561462E-02  0.1278908E+00
         -3   -1    0    0    0  501 -0.00000000000E+00  0.00000000000E+00  0.74808229445E+02  0.74808229445E+02  0.00000000000E+00 0.  1.
          3   -1    0    0  501    0  0.00000000000E+00 -0.00000000000E+00 -0.18924564176E+03  0.18924564176E+03  0.00000000000E+00 0. -1.
         25    2    1    2    0    0 -0.47543422832E+02 -0.13221898468E+02 -0.76798408150E+02  0.15485911203E+03  0.12509257944E+03 0.  0.
         23    2    1    2    0    0  0.47543422832E+02  0.13221898468E+02 -0.37639004167E+02  0.10919475917E+03  0.89842112298E+02 0.  0.
          5    1    3    3  502    0 -0.85001197228E+02 -0.13457149338E+02 -0.23012394492E+02  0.89181506484E+02  0.41800000000E+01 0. -1.
         -5    1    3    3    0  502  0.37457774396E+02  0.23525086975E+00 -0.53786013658E+02  0.65677605551E+02  0.41800000000E+01 0. -1.
        -11    1    4    4    0    0  0.61798606335E+02  0.81065323214E+01 -0.57103874158E+02  0.84531864141E+02  0.00000000000E+00 0. -1.
         11    1    4    4    0    0 -0.14255183503E+02  0.51153661468E+01  0.19464869991E+02  0.24662895031E+02  0.00000000000E+00 0.  1.
</event>
<event>
 8    1  0.3719512E-009  0.1022102E+03  0.7561462E-02  0.1275716E+00
          2   -1    0    0  501    0  0.00000000000E+00  0.00000000000E+00  0.86004091524E+03  0.86004091524E+03  0.00000000000E+00 0. -1.
         -2   -1    0    0    0  501 -0.00000000000E+00 -0.00000000000E+00 -0.16585547483E+02  0.16585547483E+02  0.00000000000E+00 0.  1.
         25    2    1    2    0    0 -0.38234978819E+02  0.33011859070E+02  0.47162712927E+03  0.49054179914E+03  0.12508961265E+03 0.  0.
         23    2    1    2    0    0  0.38234978819E+02 -0.33011859070E+02  0.37182823849E+03  0.38608466359E+03  0.90848401609E+02 0.  0.
          5    1    3    3  502    0 -0.64000450444E+02  0.39154453210E+02  0.14971485805E+03  0.16751459633E+03  0.41800000000E+01 0. -1.
         -5    1    3    3    0  502  0.25765471625E+02 -0.61425941402E+01  0.32191227122E+03  0.32302720281E+03  0.41800000000E+01 0. -1.
        -11    1    4    4    0    0  0.81989032433E+01  0.30832673000E+02  0.14796879871E+03  0.15136922121E+03  0.00000000000E+00 0. -1.
         11    1    4    4    0    0  0.30036075575E+02 -0.63844532070E+02  0.22385943978E+03  0.23471544238E+03  0.00000000000E+00 0.  1.
</event>
<event>
 8    1  0.3719512E-009  0.8929736E+02  0.7561462E-02  0.1304562E+00
          1   -1    0    0  501    0  0.00000000000E+00  0.00000000000E+00  0.14164210672E+03  0.14164210672E+03  0.00000000000E+00 0. -1.
         -1   -1    0    0    0  501 -0.00000000000E+00 -0.00000000000E+00 -0.96440095119E+02  0.96440095119E+02  0.00000000000E+00 0.  1.
         25    2    1    2    0    0  0.16846934328E+02 -0.40689546517E+02  0.37851708783E+02  0.13791279858E+03  0.12509088601E+03 0.  0.
         23    2    1    2    0    0 -0.16846934328E+02  0.40689546517E+02  0.73503028194E+01  0.10016940326E+03  0.89668411415E+02 0.  0.
          5    1    3    3  502    0 -0.64687394640E+01  0.16331079827E+02 -0.36826333222E+02  0.41014631257E+02  0.41800000000E+01 0.  1.
         -5    1    3    3    0  502  0.23315673792E+02 -0.57020626344E+02  0.74678042005E+02  0.96898167324E+02  0.41800000000E+01 0.  1.
        -11    1    4    4    0    0 -0.48668083260E+02  0.20137816721E+01 -0.38052288276E+01  0.48858135569E+02  0.00000000000E+00 0.  1.
         11    1    4    4    0    0  0.31821148931E+02  0.38675764845E+02  0.11155531647E+02  0.51311267690E+02  0.00000000000E+00 0. -1.
</event>
<event>
 8    1  0.3719512E-009  0.2614323E+03  0.7561462E-02  0.1106286E+00
          3   -1    0    0  501    0  0.00000000000E+00  0.00000000000E+00  0.79967557278E+03  0.79967557278E+03  0.00000000000E+00 0. -1.
         -3   -1    0    0    0  501 -0.00000000000E+00 -0.00000000000E+00 -0.10653316569E+03  0.10653316569E+03  0.00000000000E+00 0.  1.
         25    2    1    2    0    0 -0.10358023837E+03 -0.23428818481E+03  0.21817205584E+03  0.35897922392E+03  0.12508884018E+03 0.  0.
         23    2    1    2    0    0  0.10358023837E+03  0.23428818481E+03  0.47497035125E+03  0.54722951455E+03  0.90793654585E+02 0.  0.
          5    1    3    3  502    0 -0.71341435852E+02 -0.92062931330E+02  0.16846824016E+03  0.20485166374E+03  0.41800000000E+01 0.  1.
         -5    1    3    3    0  502 -0.32238802516E+02 -0.14222525347E+03  0.49703815682E+02  0.15412756018E+03  0.41800000000E+01 0.  1.
        -11    1    4    4    0    0  0.38996832123E+02  0.40776468981E+02  0.17961965304E+03  0.18827292183E+03  0.00000000000E+00 0.  1.
         11    1    4    4    0    0  0.64583406245E+02  0.19351171582E+03  0.29535069821E+03  0.35895659272E+03  0.00000000000E+00 0. -1.
</event>
<event>
 8    1  0.3719512E-009  0.1521178E+03  0.7561462E-02  0.1197895E+00
         -2   -1    0    0    0  501 -0.00000000000E+00  0.00000000000E+00  0.29479185922E+02  0.29479185922E+02  0.00000000000E+00 0.  1.
          2   -1    0    0  501    0  0.00000000000E+00 -0.00000000000E+00 -0.86491114467E+03  0.86491114467E+03  0.00000000000E+00 0. -1.
         25    2    1    2    0    0  0.99555150600E+02  0.58448497477E+02 -0.47403398482E+03  0.50366843640E+03  0.12508485198E+03 0.  0.
         23    2    1    2    0    0 -0.99555150600E+02 -0.58448497477E+02 -0.36139797393E+03  0.39072189419E+03  0.93421882733E+02 0.  0.
          5    1    3    3  502    0  0.17956761837E+02 -0.38310854971E+02 -0.14498182042E+03  0.15108728457E+03  0.41800000000E+01 0.  1.
         -5    1    3    3    0  502  0.81598388763E+02  0.96759352448E+02 -0.32905216440E+03  0.35258115184E+03  0.41800000000E+01 0.  1.
        -11    1    4    4    0    0 -0.46491282636E+02  0.10904289007E+02 -0.58651160359E+02  0.75632674760E+02  0.00000000000E+00 0.  1.
         11    1    4    4    0    0 -0.53063867965E+02 -0.69352786483E+02 -0.30274681357E+03  0.31508921943E+03  0.00000000000E+00 0. -1.
</event>
<event>
 8    1  0.3719512E-009  0.1240313E+03  0.7561462E-02  0.1236591E+00
          2   -1    0    0  501    0  0.00000000000E+00  0.00000000000E+00  0.87306757133E+02  0.87306757133E+02  0.00000000000E+00 0.  1.
         -2   -1    0    0    0  501 -0.00000000000E+00 -0.00000000000E+00 -0.18133345570E+03  0.18133345570E+03  0.00000000000E+00 0. -1.
         25    2    1    2    0    0  0.40938164505E+02  0.49584954094E+02 -0.59150086730E+02  0.15257984219E+03  0.12508906626E+03 0.  0.
         23    2    1    2    0    0 -0.40938164505E+02 -0.49584954094E+02 -0.34876611839E+02  0.11606037064E+03  0.90105663501E+02 0.  0.
          5    1    3    3  502    0 -0.20590636145E+02  0.71994171923E+02 -0.33241210525E+02  0.82034051252E+02  0.41800000000E+01 0. -1.
         -5    1    3    3    0  502  0.61528800649E+02 -0.22409217829E+02 -0.25908876205E+02  0.70545790939E+02  0.41800000000E+01 0. -1.
        -11    1    4    4    0    0 -0.57229383842E+02 -0.63886594399E+02 -0.38614026561E+02  0.94062438657E+02  0.00000000000E+00 0. -1.
         11    1    4    4    0    0  0.16291219337E+02  0.14301640304E+02  0.37374147220E+01  0.21997931987E+02  0.00000000000E+00 0.  1.
</event>
<event>
 8    1  0.3719512E-009  0.1338530E+03  0.7561462E-02  0.1221848E+00
         -2   -1    0    0    0  501 -0.00000000000E+00  0.00000000000E+00  0.23208024830E+02  0.23208024830E+02  0.00000000000E+00 0.  1.
          2   -1    0    0  501    0  0.00000000000E+00 -0.00000000000E+00 -0.12219534208E+04  0.12219534208E+04  0.00000000000E+00 0. -1.
         25    2    1    2    0    0 -0.10047211929E+03  0.17869129238E+00 -0.93184995883E+03  0.94556142027E+03  0.12508946817E+03 0.  0.
         23    2    1    2    0    0  0.10047211929E+03 -0.17869129238E+00 -0.26689543714E+03  0.29960002536E+03  0.91827676348E+02 0.  0.
          5    1    3    3  502    0  0.50148068471E+01 -0.28297650865E+02 -0.57667228780E+02  0.64566918831E+02  0.41800000000E+01 0.  1.
         -5    1    3    3    0  502 -0.10548692614E+03  0.28476342158E+02 -0.87418273005E+03  0.88099450144E+03  0.41800000000E+01 0.  1.
        -11    1    4    4    0    0  0.42505666655E+02 -0.40500059276E+02 -0.16891257485E+03  0.17882517844E+03  0.00000000000E+00 0.  1.
         11    1    4    4    0    0  0.57966452635E+02  0.40321367984E+02 -0.97982862286E+02  0.12077484692E+03  0.00000000000E+00 0. -1.
</event>
<event>
 8    1  0.3719512E-009  0.1724682E+03  0.7561462E-02  0.1175298E+00
          2   -1    0    0  501    0  0.00000000000E+00  0.00000000000E+00  0.81271354449E+02  0.81271354449E+02  0.00000000000E+00 0. -1.
         -2   -1    0    0    0  501 -0.00000000000E+00 -0.00000000000E+00 -0.46849132779E+03  0.46849132779E+03  0.00000000000E+00 0.  1.
         25    2    1    2    0    0  0.95395948383E+02  0.11531683651E+03 -0.11071802298E+03  0.22428433585E+03  0.12508646188E+03 0.  0.
         23    2    1    2    0    0 -0.95395948383E+02 -0.11531683651E+03 -0.27650195036E+03  0.32547834639E+03  0.84169267927E+02 0.  0.
          5    1    3    3  502    0 -0.20207332493E+02  0.21222964025E+02  0.11223921847E+02  0.31657531649E+02  0.41800000000E+01 0. -1.
         -5    1    3    3    0  502  0.11560328088E+03  0.94093872490E+02 -0.12194194483E+03  0.19262680421E+03  0.41800000000E+01 0. -1.
        -11    1    4    4    0    0 -0.92503117567E+02 -0.58756828471E+02 -0.14070795570E+03  0.17834775146E+03  0.00000000000E+00 0. -1.
         11    1    4    4    0    0 -0.28928308156E+01 -0.56560008043E+02 -0.13579399466E+03  0.14713059493E+03  0.00000000000E+00 0.  1.
</event>
<event>
 8    1  0.3719512E-009  0.1535498E+03  0.7561462E-02  0.1196178E+00
         -2   -1    0    0    0  501 -0.00000000000E+00  0.00000000000E+00  0.14007584410E+03  0.14007584410E+03  0.00000000000E+00 0. -1.
          2   -1    0    0  501    0  0.00000000000E+00 -0.00000000000E+00 -0.20766272792E+03  0.20766272792E+03  0.00000000000E+00 0.  1.
         25    2    1    2    0    0  0.13409463616E+03 -0.70276559901E+01 -0.40150549642E+02  0.18786071809E+03  0.12509525719E+03 0.  0.
         23    2    1    2    0    0 -0.13409463616E+03  0.70276559901E+01 -0.27436334180E+02  0.15987785393E+03  0.82325065139E+02 0.  0.
          5    1    3    3  502    0  0.14629408243E+03 -0.27198925378E+02 -0.56114748974E+02  0.15908512673E+03  0.41800000000E+01 0.  1.
         -5    1    3    3    0  502 -0.12199446271E+02  0.20171269388E+02  0.15964199332E+02  0.28775591364E+02  0.41800000000E+01 0.  1.
        -11    1    4    4    0    0 -0.59524814828E+02  0.19658138092E+01 -0.54161790875E+02  0.80501972616E+02  0.00000000000E+00 0.  1.
         11    1    4    4    0    0 -0.74569821328E+02  0.50618421809E+01  0.26725456695E+02  0.79375881316E+02  0.00000000000E+00 0. -1.
</event>
<event>
 8    1  0.3719512E-009  0.9632821E+02  0.7561462E-02  0.1288212E+00
          2   -1    0    0  501    0  0.00000000000E+00  0.00000000000E+00  0.90088234951E+02  0.90088234951E+02  0.00000000000E+00 0. -1.
         -2   -1    0    0    0  501 -0.00000000000E+00 -0.00000000000E+00 -0.15766395432E+03  0.15766395432E+03  0.00000000000E+00 0.  1.
         25    2    1    2    0    0  0.41207004863E+02 -0.20644969797E+02 -0.33168117148E+02  0.13737851909E+03  0.12509397062E+03 0.  0.
         23    2    1    2    0    0 -0.41207004863E+02  0.20644969797E+02 -0.34407602224E+02  0.11037367018E+03  0.94203141940E+02 0.  0.
          5    1    3    3  502    0  0.61610692130E+02  0.24832496976E+02 -0.51446760207E+02  0.84123550963E+02  0.41800000000E+01 0.  1.
         -5    1    3    3    0  502 -0.20403687267E+02 -0.45477466773E+02  0.18278643059E+02  0.53254968127E+02  0.41800000000E+01 0.  1.
        -11    1    4    4    0    0 -0.37662040194E+02  0.40851468697E+02 -0.57175550411E+02  0.79726503317E+02  0.00000000000E+00 0.  1.
         11    1    4    4    0    0 -0.35449646694E+01 -0.20206498901E+02  0.22767948188E+02  0.30647166867E+02  0.00000000000E+00 0. -1.
</event>
<event>
 8    1  0.3719512E-009  0.1681162E+03  0.7561462E-02  0.1179827E+00
          3   -1    0    0  501    0  0.00000000000E+00  0.00000000000E+00  0.37856155730E+03  0.37856155730E+03  0.00000000000E+00 0. -1.
         -3   -1    0    0    0  501 -0.00000000000E+00 -0.00000000000E+00 -0.10265100021E+03  0.10265100021E+03  0.00000000000E+00 0.  1.
         25    2    1    2    0    0  0.12042551910E+03  0.47277546492E+02  0.20751606173E+02  0.18114574038E+03  0.12508268484E+03 0.  0.
         23    2    1    2    0    0 -0.12042551910E+03 -0.47277546492E+02  0.25515895091E+03  0.30006681713E+03  0.90534703062E+02 0.  0.
          5    1    3    3  502    0  0.12970625250E+03 -0.27213348173E+00  0.25610025962E+02  0.13227672442E+03  0.41800000000E+01 0.  1.
         -5    1    3    3    0  502 -0.92807334023E+01  0.47549679974E+02 -0.48584197895E+01  0.48869015960E+02  0.41800000000E+01 0.  1.
        -11    1    4    4    0    0 -0.55105088664E+02 -0.69625946130E+02  0.13899324356E+03  0.16493472930E+03  0.00000000000E+00 0. -1.
         11    1    4    4    0    0 -0.65320430434E+02  0.22348399638E+02  0.11616570735E+03  0.13513208783E+03  0.00000000000E+00 0.  1.
</event>
<event>
 8    1  0.3719512E-009  0.2441913E+03  0.7561462E-02  0.1117032E+00
         -1   -1    0    0    0  501 -0.00000000000E+00  0.00000000000E+00  0.93627455178E+02  0.93627455178E+02  0.00000000000E+00 0.  1.
          1   -1    0    0  501    0  0.00000000000E+00 -0.00000000000E+00 -0.84411125904E+03  0.84411125904E+03  0.00000000000E+00 0. -1.
         25    2    1    2    0    0 -0.15685155791E+02  0.23884708034E+03 -0.54866710840E+03  0.61153675924E+03  0.12509060783E+03 0.  0.
         23    2    1    2    0    0  0.15685155791E+02 -0.23884708034E+03 -0.20181669546E+03  0.32620195497E+03  0.91563010869E+02 0.  0.
          5    1    3    3  502    0 -0.13498407247E+02  0.77385873968E+02 -0.66418446981E+02  0.10295466472E+03  0.41800000000E+01 0. -1.
         -5    1    3    3    0  502 -0.21867485440E+01  0.16146120638E+03 -0.48224866142E+03  0.50858209452E+03  0.41800000000E+01 0. -1.
        -11    1    4    4    0    0  0.34997313033E+02 -0.21335198161E+03 -0.14289116777E+03  0.25915587164E+03  0.00000000000E+00 0.  1.
         11    1    4    4    0    0 -0.19312157242E+02 -0.25495098731E+02 -0.58925527693E+02  0.67046083334E+02  0.00000000000E+00 0. -1.
</event>
<event>
 8    1  0.3719512E-009  0.1318428E+03  0.7561462E-02  0.1224747E+00
          1   -1    0    0  501    0  0.00000000000E+00  0.00000000000E+00  0.13321884371E+04  0.13321884371E+04  0.00000000000E+00 0. -1.
         -1   -1    0    0    0  501 -0.00000000000E+00 -0.00000000000E+00 -0.17463661055E+02  0.17463661055E+02  0.00000000000E+00 0.  1.
         25    2    1    2    0    0  0.41300687555E+02 -0.74162471920E+02  0.99675986747E+03  0.10081585232E+04  0.12509018971E+03 0.  0.
         23    2    1    2    0    0 -0.41300687555E+02  0.74162471920E+02  0.31796490858E+03  0.34149357491E+03  0.91161173667E+02 0.  0.
          5    1    3    3  502    0  0.62133069535E+02  0.61016390266E+00  0.64030488771E+03  0.64332628755E+03  0.41800000000E+01 0. -1.
         -5    1    3    3    0  502 -0.20832381979E+02 -0.74772635822E+02  0.35645497977E+03  0.36483223570E+03  0.41800000000E+01 0. -1.
        -11    1    4    4    0    0 -0.68279438186E+02  0.36721486525E+02  0.21843956018E+03  0.23178953968E+03  0.00000000000E+00 0.  1.
         11    1    4    4    0    0  0.26978750631E+02  0.37440985395E+02  0.99525348393E+02  0.10970403523E+03  0.00000000000E+00 0. -1.
</event>
<event>
 8    1  0.3719512E-009  0.1209023E+03  0.7561462E-02  0.1241616E+00
         -3   -1    0    0    0  501 -0.00000000000E+00  0.00000000000E+00  0.38184157348E+02  0.38184157348E+02  0.00000000000E+00 0.  1.
          3   -1    0    0  501    0  0.00000000000E+00 -0.00000000000E+00 -0.77030243350E+03  0.77030243350E+03  0.00000000000E+00 0. -1.
         25    2    1    2    0    0 -0.76103632792E+02  0.59437528142E+02 -0.60185900625E+03  0.62225699802E+03  0.12507967665E+03 0.  0.
         23    2    1    2    0    0  0.76103632792E+02 -0.59437528142E+02 -0.13025926990E+03  0.18622959283E+03  0.91593674301E+02 0.  0.
          5    1    3    3  502    0 -0.10153138269E+03  0.62042913872E+02 -0.36365792315E+03  0.38265193362E+03  0.41800000000E+01 0.  1.
         -5    1    3    3    0  502  0.25427749895E+02 -0.26053857306E+01 -0.23820108309E+03  0.23960506440E+03  0.41800000000E+01 0.  1.
        -11    1    4    4    0    0  0.37295638539E+02 -0.33790830710E+02 -0.13033365065E+03  0.13971272449E+03  0.00000000000E+00 0. -1.
         11    1    4    4    0    0  0.38807994253E+02 -0.25646697432E+02  0.74380740832E-01  0.46516868334E+02  0.00000000000E+00 0.  1.
</event>
<event>
 8    1  0.3719512E-009  0.1839095E+03  0.7561462E-02  0.1164072E+00
          1   -1    0    0  501    0  0.00000000000E+00  0.00000000000E+00  0.54439833987E+03  0.54439833987E+03  0.00000000000E+00 0. -1.
         -1   -1    0    0    0  501 -0.00000000000E+00 -0.00000000000E+00 -0.75912450906E+02  0.75912450906E+02  0.00000000000E+00 0.  1.
         25    2    1    2    0    0 -0.16529633180E+03 -0.45991750163E+02  0.22919822447E+03  0.31243846850E+03  0.12509137504E+03 0.  0.
         23    2    1    2    0    0  0.16529633180E+03  0.45991750163E+02  0.23928766449E+03  0.30787232227E+03  0.89936989340E+02 0.  0.
          5    1    3    3  502    0  0.34601222504E+01  0.10707560176E+02  0.77747120869E+02  0.78668363999E+02  0.41800000000E+01 0. -1.
         -5    1    3    3    0  502 -0.16875645405E+03 -0.56699310339E+02  0.15145110360E+03  0.23377010450E+03  0.41800000000E+01 0. -1.
        -11    1    4    4    0    0  0.74353990698E+02  0.44762764892E+02  0.17849244051E+03  0.19847360624E+03  0.00000000000E+00 0. -1.
         11    1    4    4    0    0  0.90942341105E+02  0.12289852717E+01  0.60795223979E+02  0.10939871603E+03  0.00000000000E+00 0.  1.
</event>
<event>
 8    1  0.3719512E-009  0.1563729E+03  0.7561462E-02  0.1192854E+00
          2   -1    0    0  501    0  0.00000000000E+00  0.00000000000E+00  0.66620625883E+03  0.66620625883E+03  0.00000000000E+00 0. -1.
         -2   -1    0    0    0  501 -0.00000000000E+00 -0.00000000000E+00 -0.48772063073E+02  0.48772063073E+02  0.00000000000E+00 0.  1.
         25    2    1    2    0    0  0.12646198001E+03 -0.59603621833E+02  0.25806149280E+03  0.31904321296E+03  0.12509042147E+03 0.  0.
         23    2    1    2    0    0 -0.12646198001E+03  0.59603621833E+02  0.35937270296E+03  0.39593510895E+03  0.89836778344E+02 0.  0.
          5    1    3    3  502    0  0.39965996578E+02 -0.54824517756E+02  0.28613464227E+02  0.73751009246E+02  0.41800000000E+01 0.  1.
         -5    1    3    3    0  502  0.86495983429E+02 -0.47791040761E+01  0.22944802857E+03  0.24529220371E+03  0.41800000000E+01 0.  1.
        -11    1    4    4    0    0 -0.13459167161E+03  0.46075335708E+02  0.34943679542E+03  0.37728494354E+03  0.00000000000E+00 0. -1.
         11    1    4    4    0    0  0.81296916079E+01  0.13528286125E+02  0.99359075366E+01  0.18650165406E+02  0.00000000000E+00 0.  1.
</event>
<event>
 8    1  0.3719512E-009  0.1777281E+03  0.7561462E-02  0.1170020E+00
          1   -1    0    0  501    0  0.00000000000E+00  0.00000000000E+00  0.14076045359E+04  0.14076045359E+04  0.00000000000E+00 0. -1.
         -1   -1    0    0    0  501 -0.00000000000E+00 -0.00000000000E+00 -0.22751820976E+02  0.22751820976E+02  0.00000000000E+00 0.  1.
         25    2    1    2    0    0  0.42233565161E+02  0.13472536889E+03  0.76401518599E+03  0.78695703190E+03  0.12509023372E+03 0.  0.
         23    2    1    2    0    0 -0.42233565161E+02 -0.13472536889E+03  0.62083752893E+03  0.64339932498E+03  0.92676075693E+02 0.  0.
          5    1    3    3  502    0  0.80389813161E+02  0.12193402390E+03  0.54553971255E+03  0.56476674708E+03  0.41800000000E+01 0.  1.
         -5    1    3    3    0  502 -0.38156248001E+02  0.12791344998E+02  0.21847547344E+03  0.22219028481E+03  0.41800000000E+01 0.  1.
        -11    1    4    4    0    0 -0.52780363909E+02 -0.24554108517E+02  0.21534523487E+03  0.22307451948E+03  0.00000000000E+00 0.  1.
         11    1    4    4    0    0  0.10546798749E+02 -0.11017126038E+03  0.40549229406E+03  0.42032480550E+03  0.00000000000E+00 0. -1.
</event>
<event>
 8    1  0.3719512E-009  0.9735573E+02  0.7561462E-02  0.1285957E+00
          1   -1    0    0  501    0  0.00000000000E+00  0.00000000000E+00  0.10855484706E+04  0.10855484706E+04  0.00000000000E+00 0. -1.
         -1   -1    0    0    0  501 -0.00000000000E+00 -0.00000000000E+00 -0.35470139518E+02  0.35470139518E+02  0.00000000000E+00 0.  1.
         25    2    1    2    0    0  0.37238882082E+02 -0.14241863588E+02  0.10071743358E+04  0.10156956409E+04  0.12509167474E+03 0.  0.
         23    2    1    2    0    0 -0.37238882082E+02  0.14241863588E+02  0.42903995236E+02  0.10532296924E+03  0.87536335461E+02 0.  0.
          5    1    3    3  502    0  0.39490174211E+02  0.42530300177E+02  0.75158148663E+03  0.75383055373E+03  0.41800000000E+01 0.  1.
         -5    1    3    3    0  502 -0.22512921297E+01 -0.56772163765E+02  0.25559284920E+03  0.26186508713E+03  0.41800000000E+01 0.  1.
        -11    1    4    4    0    0  0.17131896780E+02  0.18255177698E+02 -0.12162934311E+02  0.27833260160E+02  0.00000000000E+00 0.  1.
         11    1    4    4    0    0 -0.54370778862E+02 -0.40133141095E+01  0.55066929547E+02  0.77489709084E+02  0.00000000000E+00 0. -1.
</event>
<event>
 8    1  0.3719512E-009  0.2409580E+03  0.7561462E-02  0.1119156E+00
          2   -1    0    0  501    0  0.00000000000E+00  0.00000000000E+00  0.21778638704E+04  0.21778638704E+04  0.00000000000E+00 0. -1.
         -2   -1    0    0    0  501 -0.00000000000E+00 -0.00000000000E+00 -0.28531778070E+02  0.28531778070E+02  0.00000000000E+00 0.  1.
         25    2    1    2    0    0  0.12349940363E+03 -0.18639603765E+03  0.11681044945E+04  0.11958729622E+04  0.12509374879E+03 0.  0.
         23    2    1    2    0    0 -0.12349940363E+03  0.18639603765E+03  0.98122759787E+03  0.10105226864E+04  0.91394284689E+02 0.  0.
          5    1    3    3  502    0  0.12998691720E+03 -0.19140280952E+03  0.95744532993E+03  0.98501302851E+03  0.41800000000E+01 0. -1.
         -5    1    3    3    0  502 -0.64875135729E+01  0.50067718706E+01  0.21065916458E+03  0.21085993364E+03  0.41800000000E+01 0. -1.
        -11    1    4    4    0    0 -0.12901184693E+02  0.10036525322E+03  0.38919518127E+03  0.40213494469E+03  0.00000000000E+00 0.  1.
         11    1    4    4    0    0 -0.11059821893E+03  0.86030784430E+02  0.59203241660E+03  0.60838774166E+03  0.00000000000E+00 0. -1.
</event>
<event>
 8    1  0.3719512E-009  0.1346686E+03  0.7561462E-02  0.1220688E+00
         -1   -1    0    0    0  501 -0.00000000000E+00  0.00000000000E+00  0.21799104717E+02  0.21799104717E+02  0.00000000000E+00 0.  1.
          1   -1    0    0  501    0  0.00000000000E+00 -0.00000000000E+00 -0.88865128277E+03  0.88865128277E+03  0.00000000000E+00 0. -1.
         25    2    1    2    0    0  0.51607968176E+02  0.67684999438E+02 -0.53431930169E+03  0.55532801270E+03  0.12508974380E+03 0.  0.
         23    2    1    2    0    0 -0.51607968176E+02 -0.67684999438E+02 -0.33253287637E+03  0.35512237479E+03  0.91044745502E+02 0.  0.
          5    1    3    3  502    0  0.57178020926E+02 -0.17388363508E+02 -0.14749103753E+03  0.15919409478E+03  0.41800000000E+01 0.  1.
         -5    1    3    3    0  502 -0.55700527500E+01  0.85073362946E+02 -0.38682826416E+03  0.39613391792E+03  0.41800000000E+01 0.  1.
        -11    1    4    4    0    0  0.25722501220E+02 -0.24374670876E+02 -0.80352286884E+02  0.87819483355E+02  0.00000000000E+00 0.  1.
         11    1    4    4    0    0 -0.77330469397E+02 -0.43310328562E+02 -0.25218058948E+03  0.26730289143E+03  0.00000000000E+00 0. -1.
</event>
<event>
 8    1  0.3719512E-009  0.1004055E+03  0.7561462E-02  0.1279446E+00
         -1   -1    0    0    0  501 -0.00000000000E+00  0.00000000000E+00  0.19637294814E+02  0.19637294814E+02  0.00000000000E+00 0.  1.
          1   -1    0    0  501    0  0.00000000000E+00 -0.00000000000E+00 -0.71644762897E+03  0.71644762897E+03  0.00000000000E+00 0. -1.
         25    2    1    2    0    0  0.45568350444E+02  0.81260313255E+00 -0.44378936211E+03  0.46332921033E+03  0.12509126404E+03 0.  0.
         23    2    1    2    0    0 -0.45568350444E+02 -0.81260313255E+00 -0.25302097204E+03  0.27275571345E+03  0.91098474410E+02 0.  0.
          5    1    3    3  502    0  0.81699055360E+02  0.67383576028E+01 -0.38715631327E+03  0.39576208057E+03  0.41800000000E+01 0. -1.
         -5    1    3    3    0  502 -0.36130704916E+02 -0.59257544703E+01 -0.56633048843E+02  0.67567129768E+02  0.41800000000E+01 0. -1.
        -11    1    4    4    0    0 -0.96047649869E+01 -0.32534137226E+02 -0.19286116429E+03  0.19582173089E+03  0.00000000000E+00 0.  1.
         11    1    4    4    0    0 -0.35963585457E+02  0.31721534094E+02 -0.60159807747E+02  0.76933982559E+02  0.00000000000E+00 0. -1.
</event>
<event>
 8    1  0.3719512E-009  0.9615774E+02  0.7561462E-02  0.1288590E+00
         -1   -1    0    0    0  501 -0.00000000000E+00  0.00000000000E+00  0.54991526547E+03  0.54991526547E+03  0.00000000000E+00 0.  1.
          1   -1    0    0  501    0  0.00000000000E+00 -0.00000000000E+00 -0.22371074805E+02  0.22371074805E+02  0.00000000000E+00 0. -1.
         25    2    1    2    0    0 -0.15592798282E+01 -0.17889273507E+02  0.34508020919E+03  0.36749306450E+03  0.12509334202E+03 0.  0.
         23    2    1    2    0    0  0.15592798282E+01  0.17889273507E+02  0.18246398147E+03  0.20479327578E+03  0.91239924419E+02 0.  0.
          5    1    3    3  502    0 -0.41455522107E+02  0.30147188528E+02  0.79843624691E+02  0.94973101945E+02  0.41800000000E+01 0.  1.
         -5    1    3    3    0  502  0.39896242279E+02 -0.48036462035E+02  0.26523658450E+03  0.27251996256E+03  0.41800000000E+01 0.  1.
        -11    1    4    4    0    0  0.15696680626E+02 -0.27005271131E+02  0.13257664004E+03  0.13620659285E+03  0.00000000000E+00 0.  1.
         11    1    4    4    0    0 -0.14137400798E+02  0.44894544638E+02  0.49887341435E+02  0.68586682928E+02  0.00000000000E+00 0. -1.
</event>
<event>
 8    1  0.3719512E-009  0.1070147E+03  0.7561462E-02  0.1266200E+00
          1   -1    0    0  501    0  0.00000000000E+00  0.00000000000E+00  0.69057314023E+03  0.69057314023E+03  0.00000000000E+00 0. -1.
         -1   -1    0    0    0  501 -0.00000000000E+00 -0.00000000000E+00 -0.20859838453E+02  0.20859838453E+02  0.00000000000E+00 0.  1.
         25    2    1    2    0    0  0.25181194391E+02 -0.30106512195E+02  0.47446792701E+03  0.49224801279E+03  0.12509115757E+03 0.  0.
         23    2    1    2    0    0 -0.25181194391E+02  0.30106512195E+02  0.19524537477E+03  0.21918496590E+03  0.91546699995E+02 0.  0.
          5    1    3    3  502    0 -0.35195542907E+02  0.20127048349E+02  0.27204748037E+03  0.27508385684E+03  0.41800000000E+01 0. -1.
         -5    1    3    3    0  502  0.60376737298E+02 -0.50233560544E+02  0.20242044664E+03  0.21716415595E+03  0.41800000000E+01 0. -1.
        -11    1    4    4    0    0  0.30192377002E+02 -0.26039517573E+01  0.98147670301E+02  0.10271964456E+03  0.00000000000E+00 0. -1.
         11    1    4    4    0    0 -0.55373571393E+02  0.32710463953E+02  0.97097704467E+02  0.11646532134E+03  0.00000000000E+00 0.  1.
</event>
<event>
 8    1  0.3719512E-009  0.1109081E+03  0.7561462E-02  0.1258897E+00
         -1   -1    0    0    0  501 -0.00000000000E+00  0.00000000000E+00  0.11144673930E+03  0.11144673930E+03  0.00000000000E+00 0.  1.
          1   -1    0    0  501    0  0.00000000000E+00 -0.00000000000E+00 -0.12490915986E+03  0.12490915986E+03  0.00000000000E+00 0. -1.
         25    2    1    2    0    0 -0.20476693052E+02  0.36733714398E+02  0.11997316394E+02  0.13251342069E+03  0.12508880977E+03 0.  0.
         23    2    1    2    0    0  0.20476693052E+02 -0.36733714398E+02 -0.25459736957E+02  0.10384247847E+03  0.91468034840E+02 0.  0.
          5    1    3    3  502    0 -0.64581816426E+02  0.52654992712E+02  0.17083651789E+02  0.85162684486E+02  0.41800000000E+01 0.  1.
         -5    1    3    3    0  502  0.44105123373E+02 -0.15921278314E+02 -0.50863353953E+01  0.47350736200E+02  0.41800000000E+01 0.  1.
        -11    1    4    4    0    0  0.51811451012E+02 -0.18272831811E+02  0.66336234054E+01  0.55338303171E+02  0.00000000000E+00 0.  1.
         11    1    4    4    0    0 -0.31334757960E+02 -0.18460882587E+02 -0.32093360363E+02  0.48504175301E+02  0.00000000000E+00 0. -1.
</event>
<event>
 8    1  0.3719512E-009  0.9650131E+02  0.7561462E-02  0.1287830E+00
          2   -1    0    0  501    0  0.00000000000E+00  0.00000000000E+00  0.80626051054E+02  0.80626051054E+02  0.00000000000E+00 0. -1.
         -2   -1    0    0    0  501 -0.00000000000E+00 -0.00000000000E+00 -0.24252488368E+03  0.24252488368E+03  0.00000000000E+00 0.  1.
         25    2    1    2    0    0  0.71006264409E+02 -0.21634421573E+02 -0.14346079596E+03  0.20429272874E+03  0.12507830051E+03 0.  0.
         23    2    1    2    0    0 -0.71006264409E+02  0.21634421573E+02 -0.18438036668E+02  0.11885820599E+03  0.90980075583E+02 0.  0.
          5    1    3    3  502    0  0.80399204760E+02  0.50810763341E+01 -0.15395140208E+03  0.17380551218E+03  0.41800000000E+01 0.  1.
         -5    1    3    3    0  502 -0.93929403506E+01 -0.26715497907E+02  0.10490606122E+02  0.30487216561E+02  0.41800000000E+01 0.  1.
        -11    1    4    4    0    0 -0.15267817528E+02 -0.11275635641E+02  0.31723474424E+02  0.36967892024E+02  0.00000000000E+00 0. -1.
         11    1    4    4    0    0 -0.55738446882E+02  0.32910057214E+02 -0.50161511091E+02  0.81890313967E+02  0.00000000000E+00 0.  1.
</event>
<event>
 8    1  0.3719512E-009  0.1395133E+03  0.7561462E-02  0.1213985E+00
         -2   -1    0    0    0  501 -0.00000000000E+00  0.00000000000E+00  0.29262138617E+03  0.29262138617E+03  0.00000000000E+00 0.  1.
          2   -1    0    0  501    0  0.00000000000E+00 -0.00000000000E+00 -0.81588142307E+02  0.81588142307E+02  0.00000000000E+00 0. -1.
         25    2    1    2    0    0 -0.64977948906E+01  0.11146509492E+03  0.12528156254E+03  0.20930759913E+03  0.12509001726E+03 0.  0.
         23    2    1    2    0    0  0.64977948906E+01 -0.11146509492E+03  0.85751681320E+02  0.16490192934E+03  0.85863884895E+02 0.  0.
          5    1    3    3  502    0  0.54047671249E+01 -0.27164362165E+02  0.27014137785E+02  0.38914651736E+02  0.41800000000E+01 0. -1.
         -5    1    3    3    0  502 -0.11902562015E+02  0.13862945708E+03  0.98267424755E+02  0.17039294739E+03  0.41800000000E+01 0. -1.
        -11    1    4    4    0    0 -0.11564644446E+01 -0.16873491813E+02 -0.17723162835E+02  0.24498217013E+02  0.00000000000E+00 0. -1.
         11    1    4    4    0    0  0.76542593351E+01 -0.94591603103E+02  0.10347484415E+03  0.14040371233E+03  0.00000000000E+00 0.  1.
</event>
<event>
 8    1  0.3719512E-009  0.2299736E+03  0.7561462E-02  0.1126658E+00
          1   -1    0    0  501    0  0.00000000000E+00  0.00000000000E+00  0.35067440394E+03  0.35067440394E+03  0.00000000000E+00 0. -1.
         -1   -1    0    0    0  501 -0.00000000000E+00 -0.00000000000E+00 -0.18233336665E+03  0.18233336665E+03  0.00000000000E+00 0.  1.
         25    2    1    2    0    0 -0.18047311547E+03  0.11929097767E+03  0.16060146428E+03  0.29705617066E+03  0.12509458596E+03 0.  0.
         23    2    1    2    0    0  0.18047311547E+03 -0.11929097767E+03  0.77395730061E+01  0.23595159994E+03  0.93874244407E+02 0.  0.
          5    1    3    3  502    0 -0.18896811341E+03  0.93528237160E+02  0.16684528937E+03  0.26890760870E+03  0.41800000000E+01 0.  1.
         -5    1    3    3    0  502  0.84949979397E+01  0.25762740506E+02 -0.62438250901E+01  0.28148561955E+02  0.41800000000E+01 0.  1.
        -11    1    4    4    0    0  0.12483837037E+03 -0.54512436044E+02  0.44043494560E+02  0.14316442929E+03  0.00000000000E+00 0.  1.
         11    1    4    4    0    0  0.55634745097E+02 -0.64778541623E+02 -0.36303921554E+02  0.92787170649E+02  0.00000000000E+00 0. -1.
</event>
<event>
 8    1  0.3719512E-009  0.2036671E+03  0.7561462E-02  0.1146681E+00
          1   -1    0    0  501    0  0.00000000000E+00  0.00000000000E+00  0.56514527522E+03  0.56514527522E+03  0.00000000000E+00 0. -1.
         -1   -1    0    0    0  501 -0.00000000000E+00 -0.00000000000E+00 -0.17195969111E+03  0.17195969111E+03  0.00000000000E+00 0.  1.
         25    2    1    2    0    0 -0.26793763350E+02  0.17154448426E+03  0.47834700706E+03  0.52403132024E+03  0.12509016585E+03 0.  0.
         23    2    1    2    0    0  0.26793763350E+02 -0.17154448426E+03 -0.85161422954E+02  0.21307364609E+03  0.89456664711E+02 0.  0.
          5    1    3    3  502    0  0.68371695083E+01  0.17774947764E+03  0.37452717274E+03  0.41464406328E+03  0.41800000000E+01 0.  1.
         -5    1    3    3    0  502 -0.33630932859E+02 -0.62049933765E+01  0.10381983432E+03  0.10938725696E+03  0.41800000000E+01 0.  1.
        -11    1    4    4    0    0  0.59530007357E+02 -0.10234820172E+03 -0.45338683368E+02  0.12678553695E+03  0.00000000000E+00 0.  1.
         11    1    4    4    0    0 -0.32736244006E+02 -0.69196282546E+02 -0.39822739585E+02  0.86288109134E+02  0.00000000000E+00 0. -1.
</event>
<event>
 8    1  0.3719512E-009  0.1248928E+03  0.7561462E-02  0.1235237E+00
          1   -1    0    0  501    0  0.00000000000E+00  0.00000000000E+00  0.70701282420E+02  0.70701282420E+02  0.00000000000E+00 0. -1.
         -1   -1    0    0    0  501 -0.00000000000E+00 -0.00000000000E+00 -0.38213461694E+03  0.38213461694E+03  0.00000000000E+00 0.  1.
         25    2    1    2    0    0 -0.67389584905E+02  0.83260325228E+00 -0.30770768712E+03  0.33893300325E+03  0.12509800396E+03 0.  0.
         23    2    1    2    0    0  0.67389584905E+02 -0.83260325228E+00 -0.37256473976E+01  0.11390289611E+03  0.91749331945E+02 0.  0.
          5    1    3    3  502    0 -0.30002770610E+02  0.62107005066E+02 -0.17183790928E+03  0.18521119239E+03  0.41800000000E+01 0.  1.
         -5    1    3    3    0  502 -0.37386814295E+02 -0.61274401814E+02 -0.13586977784E+03  0.15372181085E+03  0.41800000000E+01 0.  1.
        -11    1    4    4    0    0  0.70985532618E+02  0.30488878200E+02 -0.17952026203E+02  0.79314518090E+02  0.00000000000E+00 0.  1.
         11    1    4    4    0    0 -0.35959477136E+01 -0.31321481452E+02  0.14226378805E+02  0.34588378023E+02  0.00000000000E+00 0. -1.
</event>
<event>
 8    1  0.3719512E-009  0.7664111E+02  0.7561462E-02  0.1338863E+00
         -1   -1    0    0    0  501 -0.00000000000E+00  0.00000000000E+00  0.60528457615E+02  0.60528457615E+02  0.00000000000E+00 0.  1.
          1   -1    0    0  501    0  0.00000000000E+00 -0.00000000000E+00 -0.24020716674E+03  0.24020716674E+03  0.00000000000E+00 0. -1.
         25    2    1    2    0    0  0.25449226027E+02 -0.45043000284E+02 -0.12203732350E+03  0.18225561430E+03  0.12508983027E+03 0.  0.
         23    2    1    2    0    0 -0.25449226027E+02  0.45043000284E+02 -0.57641385621E+02  0.11848001005E+03  0.89657394932E+02 0.  0.
          5    1    3    3  502    0  0.39438347545E+02 -0.57982278174E+02 -0.12942810685E+02  0.71430501803E+02  0.41800000000E+01 0.  1.
         -5    1    3    3    0  502 -0.13989121518E+02  0.12939277890E+02 -0.10909451282E+03  0.11082511250E+03  0.41800000000E+01 0.  1.
        -11    1    4    4    0    0  0.68219753103E+01  0.24116899979E+02  0.19847898496E+02  0.31970350114E+02  0.00000000000E+00 0.  1.
         11    1    4    4    0    0 -0.32271201337E+02  0.20926100305E+02 -0.77489284118E+02  0.86509659939E+02  0.00000000000E+00 0. -1.
</event>
<event>
 8    1  0.3719512E-009  0.1377491E+03  0.7561462E-02  0.1216390E+00
          1   -1    0    0  501    0  0.00000000000E+00  0.00000000000E+00  0.78218720427E+03  0.78218720427E+03  0.00000000000E+00 0. -1.
         -1   -1    0    0    0  501 -0.00000000000E+00 -0.00000000000E+00 -0.27400910803E+02  0.27400910803E+02  0.00000000000E+00 0.  1.
         25    2    1    2    0    0 -0.86426133219E+02 -0.32767901649E+02  0.32577164485E+03  0.36098863758E+03  0.12506966056E+03 0.  0.
         23    2    1    2    0    0  0.86426133219E+02  0.32767901649E+02  0.42901464862E+03  0.44859947749E+03  0.92976935829E+02 0.  0.
          5    1    3    3  502    0  0.14431194649E+02 -0.47736870020E+02  0.74119837303E+02  0.89433163983E+02  0.41800000000E+01 0.  1.
         -5    1    3    3    0  502 -0.10085732787E+03  0.14968968371E+02  0.25165180755E+03  0.27155547360E+03  0.41800000000E+01 0.  1.
        -11    1    4    4    0    0  0.90555530479E+02  0.17921904838E+00  0.23538509042E+03  0.25220324544E+03  0.00000000000E+00 0.  1.
         11    1    4    4    0    0 -0.41293972601E+01  0.32588682601E+02  0.19362955820E+03  0.19639623205E+03  0.00000000000E+00 0. -1.
</event>
<event>
 8    1  0.3719512E-009  0.7964006E+02  0.7561462E-02  0.1330076E+00
          1   -1    0    0  501    0  0.00000000000E+00  0.00000000000E+00  0.67203800987E+02  0.67203800987E+02  0.00000000000E+00 0. -1.
         -1   -1    0    0    0  501 -0.00000000000E+00 -0.00000000000E+00 -0.24040076687E+03  0.24040076687E+03  0.00000000000E+00 0.  1.
         25    2    1    2    0    0 -0.40897402417E+02  0.44132769697E+02 -0.11140925455E+03  0.17798864848E+03  0.12509051963E+03 0.  0.
         23    2    1    2    0    0  0.40897402417E+02 -0.44132769697E+02 -0.61787711328E+02  0.12961591938E+03  0.96758805282E+02 0.  0.
          5    1    3    3  502    0  0.73915201901E+00  0.35826273507E+02 -0.12741398012E+03  0.13242304539E+03  0.41800000000E+01 0.  1.
         -5    1    3    3    0  502 -0.41636554436E+02  0.83064961908E+01  0.16004725570E+02  0.45565603089E+02  0.41800000000E+01 0.  1.
        -11    1    4    4    0    0  0.45207997326E+02 -0.10211570268E+02 -0.78803390475E+02  0.91422172037E+02  0.00000000000E+00 0.  1.
         11    1    4    4    0    0 -0.43105949094E+01 -0.33921199429E+02  0.17015679147E+02  0.38193747342E+02  0.00000000000E+00 0. -1.
</event>
<event>
 8    1  0.3719512E-009  0.8524939E+02  0.7561462E-02  0.1314782E+00
          2   -1    0    0  501    0  0.00000000000E+00  0.00000000000E+00  0.10283256691E+03  0.10283256691E+03  0.00000000000E+00 0.  1.
         -2   -1    0    0    0  501 -0.00000000000E+00 -0.00000000000E+00 -0.23101385380E+03  0.23101385380E+03  0.00000000000E+00 0. -1.
         25    2    1    2    0    0 -0.64313651411E+01  0.52735607152E+02 -0.16352546845E+03  0.21262513361E+03  0.12508581810E+03 0.  0.
         23    2    1    2    0    0  0.64313651411E+01 -0.52735607152E+02  0.35344181558E+02  0.12122128710E+03  0.10306785414E+03 0.  0.
          5    1    3    3  502    0 -0.13529409962E+02  0.33744634761E+02 -0.18153504274E+03  0.18518690410E+03  0.41800000000E+01 0. -1.
         -5    1    3    3    0  502  0.70980448211E+01  0.18990972391E+02  0.18009574284E+02  0.27438229508E+02  0.41800000000E+01 0. -1.
        -11    1    4    4    0    0 -0.46810817650E+02 -0.21957345356E+02  0.31368208281E+01  0.51799780975E+02  0.00000000000E+00 0. -1.
         11    1    4    4    0    0  0.53242182791E+02 -0.30778261796E+02  0.32207360730E+02  0.69421506126E+02  0.00000000000E+00 0.  1.
</event>
<event>
 8    1  0.3719512E-009  0.8567423E+02  0.7561462E-02  0.1313679E+00
         -1   -1    0    0    0  501 -0.00000000000E+00  0.00000000000E+00  0.21823760951E+03  0.21823760951E+03  0.00000000000E+00 0.  1.
          1   -1    0    0  501    0  0.00000000000E+00 -0.00000000000E+00 -0.60367566958E+02  0.60367566958E+02  0.00000000000E+00 0. -1.
         25    2    1    2    0    0 -0.23614548760E+01  0.12920747831E+02  0.47200413143E+02  0.13433847278E+03  0.12508566694E+03 0.  0.
         23    2    1    2    0    0  0.23614548760E+01 -0.12920747831E+02  0.11066962941E+03  0.14426670369E+03  0.91611094999E+02 0.  0.
          5    1    3    3  502    0 -0.49871134846E+02  0.40955063620E+02  0.45351330275E+02  0.78985206746E+02  0.41800000000E+01 0.  1.
         -5    1    3    3    0  502  0.47509679970E+02 -0.28034315789E+02  0.18490828673E+01  0.55353266029E+02  0.41800000000E+01 0.  1.
        -11    1    4    4    0    0 -0.79349718145E+01 -0.30210330160E+02  0.11859476310E+03  0.12263908700E+03  0.00000000000E+00 0.  1.
         11    1    4    4    0    0  0.10296426691E+02  0.17289582329E+02 -0.79251336898E+01  0.21627616690E+02  0.00000000000E+00 0. -1.
</event>
<event>
 8    1  0.3719512E-009  0.6091595E+02  0.7561462E-02  0.1394028E+00
          2   -1    0    0  501    0  0.00000000000E+00  0.00000000000E+00  0.20823996719E+03  0.20823996719E+03  0.00000000000E+00 0. -1.
         -2   -1    0    0    0  501 -0.00000000000E+00 -0.00000000000E+00 -0.67730784962E+02  0.67730784962E+02  0.00000000000E+00 0.  1.
         25    2    1    2    0    0  0.17259812841E+02  0.21009223410E+02  0.12415463662E+03  0.17832430078E+03  0.12508354746E+03 0.  0.
         23    2    1    2    0    0 -0.17259812841E+02 -0.21009223410E+02  0.16354545602E+02  0.97646451370E+02  0.92347548401E+02 0.  0.
          5    1    3    3  502    0  0.11887762904E+02  0.15406677619E+02 -0.23278666603E+02  0.30627656472E+02  0.41800000000E+01 0. -1.
         -5    1    3    3    0  502  0.53720499366E+01  0.56025457917E+01  0.14743330322E+03  0.14769664431E+03  0.41800000000E+01 0. -1.
        -11    1    4    4    0    0  0.25870782074E+02  0.20685009119E+02  0.17874065436E+02  0.37638400372E+02  0.00000000000E+00 0. -1.
         11    1    4    4    0    0 -0.43130594915E+02 -0.41694232530E+02 -0.15195198332E+01  0.60008050997E+02  0.00000000000E+00 0.  1.
</event>
<event>
 8    1  0.3719512E-009  0.1156940E+03  0.7561462E-02  0.1250375E+00
         -2   -1    0    0    0  501 -0.00000000000E+00  0.00000000000E+00  0.22721773302E+02  0.22721773302E+02  0.00000000000E+00 0.  1.
          2   -1    0    0  501    0  0.00000000000E+00 -0.00000000000E+00 -0.83916075336E+03  0.83916075336E+03  0.00000000000E+00 0. -1.
         25    2    1    2    0    0 -0.64195781589E+02  0.34228673155E+02 -0.58238490303E+03  0.60009315794E+03  0.12508765922E+03 0.  0.
         23    2    1    2    0    0  0.64195781589E+02 -0.34228673155E+02 -0.23405407703E+03  0.26178936872E+03  0.91976421778E+02 0.  0.
          5    1    3    3  502    0 -0.10185460270E+03  0.24048955646E+02 -0.39544800836E+03  0.40908350257E+03  0.41800000000E+01 0.  1.
         -5    1    3    3    0  502  0.37658821107E+02  0.10179717509E+02 -0.18693689467E+03  0.19100965537E+03  0.41800000000E+01 0.  1.
        -11    1    4    4    0    0  0.16051854758E+02  0.12483385824E+02 -0.22317533822E+01  0.20456727157E+02  0.00000000000E+00 0.  1.
         11    1    4    4    0    0  0.48143926831E+02 -0.46712058979E+02 -0.23182232365E+03  0.24133264157E+03  0.00000000000E+00 0. -1.
</event>
<event>
 8    1  0.3719512E-009  0.1155611E+03  0.7561462E-02  0.1250605E+00
          2   -1    0    0  501    0  0.00000000000E+00  0.00000000000E+00  0.10870772143E+04  0.10870772143E+04  0.00000000000E+00 0. -1.
         -2   -1    0    0    0  501 -0.00000000000E+00 -0.00000000000E+00 -0.16660173981E+02  0.16660173981E+02  0.00000000000E+00 0.  1.
         25    2    1    2    0    0  0.60897794610E+02  0.37768363158E+02  0.75561497228E+03  0.76924354227E+03  0.12508657138E+03 0.  0.
         23    2    1    2    0    0 -0.60897794610E+02 -0.37768363158E+02  0.31480206806E+03  0.33449384604E+03  0.87468853529E+02 0.  0.
          5    1    3    3  502    0  0.37050363680E+01  0.71522877805E+02  0.49949466050E+03  0.50462029053E+03  0.41800000000E+01 0. -1.
         -5    1    3    3    0  502  0.57192758242E+02 -0.33754514648E+02  0.25612031178E+03  0.26462325174E+03  0.41800000000E+01 0. -1.
        -11    1    4    4    0    0 -0.22201380635E+02  0.15443913323E+02  0.23420173456E+02  0.35775973579E+02  0.00000000000E+00 0.  1.
         11    1    4    4    0    0 -0.38696413975E+02 -0.53212276480E+02  0.29138189461E+03  0.29871787246E+03  0.00000000000E+00 0. -1.
</event>
<event>
 8    1  0.3719512E-009  0.1042830E+03  0.7561462E-02  0.1271539E+00
          2   -1    0    0  501    0  0.00000000000E+00  0.00000000000E+00  0.12777348002E+04  0.12777348002E+04  0.00000000000E+00 0. -1.
         -2   -1    0    0    0  501 -0.00000000000E+00 -0.00000000000E+00 -0.16584581122E+02  0.16584581122E+02  0.00000000000E+00 0.  1.
         25    2    1    2    0    0  0.21581415086E+02 -0.36544341241E+02  0.10300798081E+04  0.10385141215E+04  0.12508366481E+03 0.  0.
         23    2    1    2    0    0 -0.21581415086E+02  0.36544341241E+02  0.23107041092E+03  0.25580525974E+03  0.10120054225E+03 0.  0.
          5    1    3    3  502    0 -0.41225340300E+02 -0.13135532839E+02  0.15855634221E+03  0.16440698574E+03  0.41800000000E+01 0. -1.
         -5    1    3    3    0  502  0.62806755386E+02 -0.23408808402E+02  0.87152346590E+03  0.87410713579E+03  0.41800000000E+01 0. -1.
        -11    1    4    4    0    0 -0.86323686812E+01  0.65580871111E+02  0.93016753274E+02  0.11413800784E+03  0.00000000000E+00 0.  1.
         11    1    4    4    0    0 -0.12949046405E+02 -0.29036529870E+02  0.13805365765E+03  0.14166725190E+03  0.00000000000E+00 0. -1.
</event>
<event>
 8    1  0.3719512E-009  0.1569880E+03  0.7561462E-02  0.1192140E+00
          3   -1    0    0  501    0  0.00000000000E+00  0.00000000000E+00  0.30941443336E+02  0.30941443336E+02  0.00000000000E+00 0. -1.
         -3   -1    0    0    0  501 -0.00000000000E+00 -0.00000000000E+00 -0.14514950099E+04  0.14514950099E+04  0.00000000000E+00 0.  1.
         25    2    1    2    0    0 -0.88706445834E+02 -0.11371614099E+03 -0.11261198141E+04  0.11421878444E+04  0.12508813638E+03 0.  0.
         23    2    1    2    0    0  0.88706445834E+02  0.11371614099E+03 -0.29443375246E+03  0.34024860886E+03  0.90981794838E+02 0.  0.
          5    1    3    3  502    0 -0.83151910733E+02 -0.96756647102E+02 -0.50783801507E+03  0.52363442493E+03  0.41800000000E+01 0.  1.
         -5    1    3    3    0  502 -0.55545351008E+01 -0.16959493886E+02 -0.61828179907E+03  0.61855341948E+03  0.41800000000E+01 0.  1.
        -11    1    4    4    0    0  0.24512920832E+02 -0.11661216903E+02 -0.72220459584E+02  0.77153496680E+02  0.00000000000E+00 0.  1.
         11    1    4    4    0    0  0.64193525002E+02  0.12537735789E+03 -0.22221329287E+03  0.26309511218E+03  0.00000000000E+00 0. -1.
</event>
<event>
 8    1  0.3719512E-009  0.8793150E+02  0.7561462E-02  0.1307940E+00
          4   -1    0    0  501    0  0.00000000000E+00  0.00000000000E+00  0.48007764637E+02  0.48007764637E+02  0.00000000000E+00 0. -1.
         -4   -1    0    0    0  501 -0.00000000000E+00 -0.00000000000E+00 -0.29125905634E+03  0.29125905634E+03  0.00000000000E+00 0.  1.
         25    2    1    2    0    0  0.40008202228E+02 -0.64580449993E+01 -0.17511486482E+03  0.21898736207E+03  0.12509151161E+03 0.  0.
         23    2    1    2    0    0 -0.40008202228E+02  0.64580449993E+01 -0.68136426892E+02  0.12027945891E+03  0.90455585652E+02 0.  0.
          5    1    3    3  502    0  0.53797791425E+02 -0.19485542656E+02 -0.18741229770E+03  0.19599676136E+03  0.41800000000E+01 0.  1.
         -5    1    3    3    0  502 -0.13789589197E+02  0.13027497657E+02  0.12297432884E+02  0.22990600709E+02  0.41800000000E+01 0.  1.
        -11    1    4    4    0    0  0.25395386873E+02 -0.15883096314E+02 -0.18832024463E+02  0.35381401446E+02  0.00000000000E+00 0.  1.
         11    1    4    4    0    0 -0.65403589101E+02  0.22341141313E+02 -0.49304402428E+02  0.84898057465E+02  0.00000000000E+00 0. -1.
</event>
<event>
 8    1  0.3719512E-009  0.1248709E+03  0.7561462E-02  0.1235271E+00
          2   -1    0    0  501    0  0.00000000000E+00  0.00000000000E+00  0.17608806996E+04  0.17608806996E+04  0.00000000000E+00 0. -1.
         -2   -1    0    0    0  501 -0.00000000000E+00 -0.00000000000E+00 -0.12939145026E+02  0.12939145026E+02  0.00000000000E+00 0.  1.
         25    2    1    2    0    0  0.71235555692E+02  0.25208498159E+02  0.13663462588E+04  0.13741397250E+04  0.12509161489E+03 0.  0.
         23    2    1    2    0    0 -0.71235555692E+02 -0.25208498159E+02  0.38159529570E+03  0.39968011955E+03  0.91756501080E+02 0.  0.
          5    1    3    3  502    0  0.42820880476E+02  0.72173821250E+02  0.60517527332E+03  0.61098058244E+03  0.41800000000E+01 0.  1.
         -5    1    3    3    0  502  0.28414675216E+02 -0.46965323091E+02  0.76117098551E+03  0.76315914260E+03  0.41800000000E+01 0.  1.
        -11    1    4    4    0    0 -0.16513228932E+02  0.29169995721E+02  0.19345082430E+03  0.19633338178E+03  0.00000000000E+00 0. -1.
         11    1    4    4    0    0 -0.54722326760E+02 -0.54378493881E+02  0.18814447140E+03  0.20334673777E+03  0.00000000000E+00 0.  1.
</event>
<event>
 8    1  0.3719512E-009  0.1444149E+03  0.7561462E-02  0.1207509E+00
         -2   -1    0    0    0  501 -0.00000000000E+00  0.00000000000E+00  0.20672114066E+02  0.20672114066E+02  0.00000000000E+00 0.  1.
          2   -1    0    0  501    0  0.00000000000E+00 -0.00000000000E+00 -0.11663622274E+04  0.11663622274E+04  0.00000000000E+00 0. -1.
         25    2    1    2    0    0  0.24223769881E+02 -0.10619316771E+03 -0.69826994063E+03  0.71769910356E+03  0.12508922162E+03 0.  0.
         23    2    1    2    0    0 -0.24223769881E+02  0.10619316771E+03 -0.44742017266E+03  0.46933523787E+03  0.90702671970E+02 0.  0.
          5    1    3    3  502    0  0.43764686770E+02 -0.25084768529E+01 -0.37603152140E+03  0.37860113279E+03  0.41800000000E+01 0. -1.
         -5    1    3    3    0  502 -0.19540916889E+02 -0.10368469086E+03 -0.32223841923E+03  0.33909797077E+03  0.41800000000E+01 0. -1.
        -11    1    4    4    0    0  0.74307047365E+01 -0.13491047989E+02 -0.84191103677E+02  0.85588350183E+02  0.00000000000E+00 0. -1.
         11    1    4    4    0    0 -0.31654474618E+02  0.11968421570E+03 -0.36322906899E+03  0.38374688768E+03  0.00000000000E+00 0.  1.
</event>
<event>
 8    1  0.3719512E-009  0.1333691E+03  0.7561462E-02  0.1222541E+00
          1   -1    0    0  501    0  0.00000000000E+00  0.00000000000E+00  0.39799705235E+03  0.39799705235E+03  0.00000000000E+00 0. -1.
         -1   -1    0    0    0  501 -0.00000000000E+00 -0.00000000000E+00 -0.16877910561E+03  0.16877910561E+03  0.00000000000E+00 0.  1.
         25    2    1    2    0    0 -0.83773677839E+01  0.12428641612E+03  0.33327567355E+03  0.37713954208E+03  0.12507704065E+03 0.  0.
         23    2    1    2    0    0  0.83773677839E+01 -0.12428641612E+03 -0.10405772681E+03  0.18963661588E+03  0.98064988914E+02 0.  0.
          5    1    3    3  502    0 -0.29674218567E+02  0.97143114777E+02  0.32619885257E+03  0.34167310081E+03  0.41800000000E+01 0.  1.
         -5    1    3    3    0  502  0.21296850783E+02  0.27143301347E+02  0.70768209730E+01  0.35466441270E+02  0.41800000000E+01 0.  1.
        -11    1    4    4    0    0  0.23783479474E+02 -0.73386305229E+02 -0.11186514173E+03  0.13588603175E+03  0.00000000000E+00 0.  1.
         11    1    4    4    0    0 -0.15406111690E+02 -0.50900110894E+02  0.78074149227E+01  0.53750584129E+02  0.00000000000E+00 0. -1.
</event>
<event>
 8    1  0.3719512E-009  0.1034842E+03  0.7561462E-02  0.1273135E+00
         -1   -1    0    0    0  501 -0.00000000000E+00  0.00000000000E+00  0.53241113405E+02  0.53241113405E+02  0.00000000000E+00 0.  1.
          1   -1    0    0  501    0  0.00000000000E+00 -0.00000000000E+00 -0.30384866721E+03  0.30384866721E+03  0.00000000000E+00 0. -1.
         25    2    1    2    0    0 -0.30603979912E+02 -0.55117103568E+02 -0.11362849419E+03  0.18036842812E+03  0.12508731542E+03 0.  0.
         23    2    1    2    0    0  0.30603979912E+02  0.55117103568E+02 -0.13697905961E+03  0.17672135250E+03  0.92155710422E+02 0.  0.
          5    1    3    3  502    0 -0.46765281618E+02 -0.84861145686E+02 -0.10907722064E+03  0.14595793255E+03  0.41800000000E+01 0.  1.
         -5    1    3    3    0  502  0.16161301706E+02  0.29744042118E+02 -0.45512735523E+01  0.34410495569E+02  0.41800000000E+01 0.  1.
        -11    1    4    4    0    0  0.40170923496E+02  0.33756276023E+02 -0.14319408744E+03  0.15250487187E+03  0.00000000000E+00 0. -1.
         11    1    4    4    0    0 -0.95669435841E+01  0.21360827545E+02  0.62150278301E+01  0.24216480625E+02  0.00000000000E+00 0.  1.
</event>
<event>
 8    1  0.3719512E-009  0.1196675E+03  0.7561462E-02  0.1243647E+00
         -1   -1    0    0    0  501 -0.00000000000E+00  0.00000000000E+00  0.22683291792E+03  0.22683291792E+03  0.00000000000E+00 0.  1.
          1   -1    0    0  501    0  0.00000000000E+00 -0.00000000000E+00 -0.63933631657E+02  0.63933631657E+02  0.00000000000E+00 0. -1.
         25    2    1    2    0    0 -0.41066849760E+02 -0.30639088494E+02  0.10126814452E+03  0.16889826779E+03  0.12508456289E+03 0.  0.
         23    2    1    2    0    0  0.41066849760E+02  0.30639088494E+02  0.61631141740E+02  0.12186828179E+03  0.91805449628E+02 0.  0.
          5    1    3    3  502    0 -0.47874515439E+02 -0.75287731675E+02  0.73876671937E+02  0.11591137488E+03  0.41800000000E+01 0.  1.
         -5    1    3    3    0  502  0.68076656789E+01  0.44648643181E+02  0.27391472585E+02  0.52986892910E+02  0.41800000000E+01 0.  1.
        -11    1    4    4    0    0  0.36544639551E+02 -0.27880339942E+02  0.21351527656E+02  0.50682460166E+02  0.00000000000E+00 0. -1.
         11    1    4    4    0    0  0.45222102083E+01  0.58519428436E+02  0.40279614083E+02  0.71185821624E+02  0.00000000000E+00 0.  1.
</event>
<event>
 8    1  0.3719512E-009  0.5193144E+02  0.7561462E-02  0.1435194E+00
          2   -1    0    0  501    0  0.00000000000E+00  0.00000000000E+00  0.54229690516E+02  0.54229690516E+02  0.00000000000E+00 0. -1.
         -2   -1    0    0    0  501 -0.00000000000E+00 -0.00000000000E+00 -0.22024866578E+03  0.22024866578E+03  0.00000000000E+00 0.  1.
         25    2    1    2    0    0 -0.16888306847E+00 -0.19851245600E+00 -0.76629403072E+02  0.14669395066E+03  0.12508789636E+03 0.  0.
         23    2    1    2    0    0  0.16888306847E+00  0.19851245600E+00 -0.89389572194E+02  0.12778440564E+03  0.91314241925E+02 0.  0.
          5    1    3    3  502    0  0.11458468438E+02 -0.71001531051E+01  0.33137874035E+02  0.36018047818E+02  0.41800000000E+01 0.  1.
         -5    1    3    3    0  502 -0.11627351507E+02  0.69016406491E+01 -0.10976727711E+03  0.11067590284E+03  0.41800000000E+01 0.  1.
        -11    1    4    4    0    0 -0.50030463290E+01  0.37553675550E+02 -0.89272840645E+01  0.38923070545E+02  0.00000000000E+00 0. -1.
         11    1    4    4    0    0  0.51719293975E+01 -0.37355163094E+02 -0.80462288130E+02  0.88861335093E+02  0.00000000000E+00 0.  1.
</event>
<event>
 8    1  0.3719512E-009  0.1449581E+03  0.7561462E-02  0.1206809E+00
          1   -1    0    0  501    0  0.00000000000E+00  0.00000000000E+00  0.17039124813E+04  0.17039124813E+04  0.00000000000E+00 0. -1.
         -1   -1    0    0    0  501 -0.00000000000E+00 -0.00000000000E+00 -0.14075216958E+02  0.14075216958E+02  0.00000000000E+00 0.  1.
         25    2    1    2    0    0 -0.24865258249E+02  0.10716504117E+03  0.10765435322E+04  0.10893561896E+04  0.12509318162E+03 0.  0.
         23    2    1    2    0    0  0.24865258249E+02 -0.10716504117E+03  0.61329373218E+03  0.62863150864E+03  0.83341133999E+02 0.  0.
          5    1    3    3  502    0  0.12171057643E+02  0.11921717562E+03  0.92878872933E+03  0.93649711465E+03  0.41800000000E+01 0.  1.
         -5    1    3    3    0  502 -0.37036315892E+02 -0.12052134452E+02  0.14775480285E+03  0.15285907498E+03  0.41800000000E+01 0.  1.
        -11    1    4    4    0    0  0.38923412536E+02 -0.22393380128E+02  0.12469817904E+03  0.13253728295E+03  0.00000000000E+00 0.  1.
         11    1    4    4    0    0 -0.14058154287E+02 -0.84771661039E+02  0.48859555314E+03  0.49609422569E+03  0.00000000000E+00 0. -1.
</event>
<event>
 8    1  0.3719512E-009  0.1280048E+03  0.7561462E-02  0.1230447E+00
          1   -1    0    0  501    0  0.00000000000E+00  0.00000000000E+00  0.26147948209E+03  0.26147948209E+03  0.00000000000E+00 0. -1.
         -1   -1    0    0    0  501 -0.00000000000E+00 -0.00000000000E+00 -0.80756866749E+02  0.80756866749E+02  0.00000000000E+00 0.  1.
         25    2    1    2    0    0  0.72105696265E+02  0.45732796474E+00  0.15824655787E+03  0.21421793644E+03  0.12509160897E+03 0.  0.
         23    2    1    2    0    0 -0.72105696265E+02 -0.45732796474E+00  0.22476057473E+02  0.12801841240E+03  0.10336392103E+03 0.  0.
          5    1    3    3  502    0  0.52328017618E+02  0.52701315747E+02  0.13382278192E+03  0.15310669309E+03  0.41800000000E+01 0.  1.
         -5    1    3    3    0  502  0.19777678647E+02 -0.52243987782E+02  0.24423775948E+02  0.61111243349E+02  0.41800000000E+01 0.  1.
        -11    1    4    4    0    0 -0.85100161415E+02  0.31786186274E+02  0.11525223795E+02  0.91570900914E+02  0.00000000000E+00 0.  1.
         11    1    4    4    0    0  0.12994465150E+02 -0.32243514239E+02  0.10950833679E+02  0.36447511482E+02  0.00000000000E+00 0. -1.
</event>
<event>
 8    1  0.3719512E-009  0.8452031E+02  0.7561462E-02  0.1316692E+00
          1   -1    0    0  501    0  0.00000000000E+00  0.00000000000E+00  0.34701922336E+03  0.34701922336E+03  0.00000000000E+00 0. -1.
         -1   -1    0    0    0  501 -0.00000000000E+00 -0.00000000000E+00 -0.44644545233E+02  0.44644545233E+02  0.00000000000E+00 0.  1.
         25    2    1    2    0    0  0.46188561983E+02  0.20507712051E+02  0.11568316652E+03  0.17771976242E+03  0.12509104455E+03 0.  0.
         23    2    1    2    0    0 -0.46188561983E+02 -0.20507712051E+02  0.18669151160E+03  0.21394400617E+03  0.91456917510E+02 0.  0.
          5    1    3    3  502    0  0.91045706755E+01  0.29580585406E+02  0.13225399981E+03  0.13589149019E+03  0.41800000000E+01 0.  1.
         -5    1    3    3    0  502  0.37083991308E+02 -0.90728733556E+01 -0.16570833284E+02  0.41828272233E+02  0.41800000000E+01 0.  1.
        -11    1    4    4    0    0 -0.13123521077E+02  0.33555652662E+02  0.38287039750E+02  0.52574766227E+02  0.00000000000E+00 0.  1.
         11    1    4    4    0    0 -0.33065040906E+02 -0.54063364713E+02  0.14840447185E+03  0.16136923994E+03  0.00000000000E+00 0. -1.
</event>
<event>
 8    1  0.3719512E-009  0.8837938E+02  0.7561462E-02  0.1306824E+00
         -1   -1    0    0    0  501 -0.00000000000E+00  0.00000000000E+00  0.37150886453E+03  0.37150886453E+03  0.00000000000E+00 0.  1.
          1   -1    0    0  501    0  0.00000000000E+00 -0.00000000000E+00 -0.41838844389E+02  0.41838844389E+02  0.00000000000E+00 0. -1.
         25    2    1    2    0    0  0.60205322222E+01  0.47840605046E+02  0.11828042471E+03  0.17878197470E+03  0.12509102809E+03 0.  0.
         23    2    1    2    0    0 -0.60205322222E+01 -0.47840605046E+02  0.21138959543E+03  0.23456573422E+03  0.89501688894E+02 0.  0.
          5    1    3    3  502    0 -0.26459897722E+01  0.60232944874E+02  0.98691294481E+00  0.60443819430E+02  0.41800000000E+01 0.  1.
         -5    1    3    3    0  502  0.86665219944E+01 -0.12392339828E+02  0.11729351177E+03  0.11833815527E+03  0.41800000000E+01 0.  1.
        -11    1    4    4    0    0  0.34087109352E+02 -0.49947890117E+02  0.14291073045E+03  0.15517796116E+03  0.00000000000E+00 0. -1.
         11    1    4    4    0    0 -0.40107641574E+02  0.21072850709E+01  0.68478864978E+02  0.79387773062E+02  0.00000000000E+00 0.  1.
</event>
<event>
 8    1  0.3719512E-009  0.2432465E+03  0.7561462E-02  0.1117649E+00
         -3   -1    0    0    0  501 -0.00000000000E+00  0.00000000000E+00  0.24333170846E+03  0.24333170846E+03  0.00000000000E+00 0.  1.
          3   -1    0    0  501    0  0.00000000000E+00 -0.00000000000E+00 -0.30441289550E+03  0.30441289550E+03  0.00000000000E+00 0. -1.
         25    2    1    2    0    0 -0.23350023072E+03 -0.62540630015E+02 -0.93503581464E+02  0.28779199859E+03  0.12509047348E+03 0.  0.
         23    2    1    2    0    0  0.23350023072E+03  0.62540630015E+02  0.32422394423E+02  0.25995260537E+03  0.89946968983E+02 0.  0.
          5    1    3    3  502    0 -0.91064566243E+02 -0.56719100350E+01 -0.98440700445E+02  0.13428689323E+03  0.41800000000E+01 0. -1.
         -5    1    3    3    0  502 -0.14243566448E+03 -0.56868719980E+02  0.49371189812E+01  0.15350510536E+03  0.41800000000E+01 0. -1.
        -11    1    4    4    0    0  0.14088148919E+03  0.37819417638E+02  0.63624232997E+02  0.15914127488E+03  0.00000000000E+00 0.  1.
         11    1    4    4    0    0  0.92618741536E+02  0.24721212376E+02 -0.31201838574E+02  0.10081133049E+03  0.00000000000E+00 0. -1.
</event>
<event>
 8    1  0.3719512E-009  0.1250756E+03  0.7561462E-02  0.1234951E+00
          2   -1    0    0  501    0  0.00000000000E+00  0.00000000000E+00  0.15797192747E+03  0.15797192747E+03  0.00000000000E+00 0. -1.
         -2   -1    0    0    0  501 -0.00000000000E+00 -0.00000000000E+00 -0.13104850896E+03  0.13104850896E+03  0.00000000000E+00 0.  1.
         25    2    1    2    0    0  0.13428236804E+02  0.89369356190E+02  0.44787616035E+02  0.16068692187E+03  0.12508859636E+03 0.  0.
         23    2    1    2    0    0 -0.13428236804E+02 -0.89369356190E+02 -0.17864197525E+02  0.12833351457E+03  0.89348542459E+02 0.  0.
          5    1    3    3  502    0 -0.44297937152E+02  0.85069752787E+02  0.32572782404E+02  0.10137863990E+03  0.41800000000E+01 0.  1.
         -5    1    3    3    0  502  0.57726173955E+02  0.42996034039E+01  0.12214833631E+02  0.59308281965E+02  0.41800000000E+01 0.  1.
        -11    1    4    4    0    0  0.10514215981E+02 -0.38145642308E+02 -0.49634590673E+02  0.63476226700E+02  0.00000000000E+00 0.  1.
         11    1    4    4    0    0 -0.23942452785E+02 -0.51223713883E+02  0.31770393149E+02  0.64857287872E+02  0.00000000000E+00 0. -1.
</event>
<event>
 8    1  0.3719512E-009  0.1699093E+03  0.7561462E-02  0.1177942E+00
         -2   -1    0    0    0  501 -0.00000000000E+00  0.00000000000E+00  0.12671127601E+03  0.12671127601E+03  0.00000000000E+00 0.  1.
          2   -1    0    0  501    0  0.00000000000E+00 -0.00000000000E+00 -0.25275137261E+03  0.25275137261E+03  0.00000000000E+00 0. -1.
         25    2    1    2    0    0  0.11729052916E+03 -0.79962192185E+02 -0.64824801970E+02  0.20000345835E+03  0.12509239781E+03 0.  0.
         23    2    1    2    0    0 -0.11729052916E+03  0.79962192185E+02 -0.61215294630E+02  0.17945919028E+03  0.91144216874E+02 0.  0.
          5    1    3    3  502    0 -0.58566411684E+01  0.14309215389E+02  0.18033489159E+02  0.24119142234E+02  0.41800000000E+01 0. -1.
         -5    1    3    3    0  502  0.12314717033E+03 -0.94271407574E+02 -0.82858291130E+02  0.17588431611E+03  0.41800000000E+01 0. -1.
        -11    1    4    4    0    0 -0.10200621662E+03  0.16439897084E+02 -0.39356832151E+02  0.11056445487E+03  0.00000000000E+00 0. -1.
         11    1    4    4    0    0 -0.15284312544E+02  0.63522295101E+02 -0.21858462480E+02  0.68894735407E+02  0.00000000000E+00 0.  1.
</event>
<event>
 8    1  0.3719512E-009  0.1245413E+03  0.7561462E-02  0.1235788E+00
         -1   -1    0    0    0  501 -0.00000000000E+00  0.00000000000E+00  0.75489240219E+02  0.75489240219E+02  0.00000000000E+00 0.  1.
          1   -1    0    0  501    0  0.00000000000E+00 -0.00000000000E+00 -0.27108533236E+03  0.27108533236E+03  0.00000000000E+00 0. -1.
         25    2    1    2    0    0  0.85041729128E+02 -0.36396674805E+02 -0.10207846300E+03  0.18607501892E+03  0.12508831451E+03 0.  0.
         23    2    1    2    0    0 -0.85041729128E+02  0.36396674805E+02 -0.93517629139E+02  0.16049955366E+03  0.91966005326E+02 0.  0.
          5    1    3    3  502    0  0.50942559073E+02 -0.83112131865E+02 -0.65342775853E+02  0.11743049665E+03  0.41800000000E+01 0.  1.
         -5    1    3    3    0  502  0.34099170055E+02  0.46715457060E+02 -0.36735687150E+02  0.68644522266E+02  0.41800000000E+01 0.  1.
        -11    1    4    4    0    0 -0.68526193219E+02  0.23082409291E+02 -0.84203851417E+01  0.72797937208E+02  0.00000000000E+00 0.  1.
         11    1    4    4    0    0 -0.16515535908E+02  0.13314265514E+02 -0.85097243997E+02  0.87701616453E+02  0.00000000000E+00 0. -1.
</event>
<event>
 8    1  0.3719512E-009  0.1148763E+03  0.7561462E-02  0.1251797E+00
         -3   -1    0    0    0  501 -0.00000000000E+00  0.00000000000E+00  0.54876934348E+03  0.54876934348E+03  0.00000000000E+00 0.  1.
          3   -1    0    0  501    0  0.00000000000E+00 -0.00000000000E+00 -0.31879701708E+02  0.31879701708E+02  0.00000000000E+00 0. -1.
         25    2    1    2    0    0  0.65422840824E+02 -0.23100523519E+02  0.34836340376E+03  0.37658751786E+03  0.12508922911E+03 0.  0.
         23    2    1    2    0    0 -0.65422840824E+02  0.23100523519E+02  0.16852623802E+03  0.20406152733E+03  0.91794508270E+02 0.  0.
          5    1    3    3  502    0  0.81860739076E+02 -0.52039442942E+02  0.17613012300E+03  0.20111831556E+03  0.41800000000E+01 0.  1.
         -5    1    3    3    0  502 -0.16437898252E+02  0.28938919423E+02  0.17223328075E+03  0.17546920230E+03  0.41800000000E+01 0.  1.
        -11    1    4    4    0    0 -0.52850887339E+02 -0.18238681310E+02  0.40768713299E+02  0.69195041531E+02  0.00000000000E+00 0. -1.
         11    1    4    4    0    0 -0.12571953485E+02  0.41339204829E+02  0.12775752472E+03  0.13486648580E+03  0.00000000000E+00 0.  1.
</event>
<event>
 8    1  0.3719512E-009  0.5421833E+02  0.7561462E-02  0.1423832E+00
         -1   -1    0    0    0  501 -0.00000000000E+00  0.00000000000E+00  0.42176664570E+02  0.42176664570E+02  0.00000000000E+00 0.  1.
          1   -1    0    0  501    0  0.00000000000E+00 -0.00000000000E+00 -0.30091964213E+03  0.30091964213E+03  0.00000000000E+00 0. -1.
         25    2    1    2    0    0 -0.31953602312E+01 -0.31249449565E+01 -0.12494486949E+03  0.17685662984E+03  0.12508825484E+03 0.  0.
         23    2    1    2    0    0  0.31953602312E+01  0.31249449565E+01 -0.13379810808E+03  0.16623967687E+03  0.98558210371E+02 0.  0.
          5    1    3    3  502    0  0.11095494626E+02 -0.10238102161E+02  0.23091315359E+02  0.27903583674E+02  0.41800000000E+01 0.  1.
         -5    1    3    3    0  502 -0.14290854857E+02  0.71131572046E+01 -0.14803618485E+03  0.14895304616E+03  0.41800000000E+01 0.  1.
        -11    1    4    4    0    0 -0.36442671963E+02  0.36800774097E+01 -0.12618355407E+02  0.38740601476E+02  0.00000000000E+00 0.  1.
         11    1    4    4    0    0  0.39638032194E+02 -0.55513245320E+00 -0.12117975267E+03  0.12749907539E+03  0.00000000000E+00 0. -1.
</event>
<event>
 8    1  0.3719512E-009  0.1020969E+03  0.7561462E-02  0.1275947E+00
         -3   -1    0    0    0  501 -0.00000000000E+00  0.00000000000E+00  0.12807134214E+03  0.12807134214E+03  0.00000000000E+00 0.  1.
          3   -1    0    0  501    0  0.00000000000E+00 -0.00000000000E+00 -0.12455723807E+03  0.12455723807E+03  0.00000000000E+00 0. -1.
         25    2    1    2    0    0 -0.16413938244E+02  0.42710746393E+02  0.51746654414E+02  0.14289323037E+03  0.12508850394E+03 0.  0.
         23    2    1    2    0    0  0.16413938244E+02 -0.42710746393E+02 -0.48232550345E+02  0.10973534983E+03  0.87303166399E+02 0.  0.
          5    1    3    3  502    0  0.45861793233E+01  0.84549319553E+02  0.43105244412E+02  0.95106019649E+02  0.41800000000E+01 0. -1.
         -5    1    3    3    0  502 -0.21000117567E+02 -0.41838573160E+02  0.86414100023E+01  0.47787210724E+02  0.41800000000E+01 0. -1.
        -11    1    4    4    0    0  0.36712038168E+02 -0.34945644966E+02 -0.64900309171E+02  0.82346960958E+02  0.00000000000E+00 0. -1.
         11    1    4    4    0    0 -0.20298099924E+02 -0.77651014271E+01  0.16667758826E+02  0.27388388872E+02  0.00000000000E+00 0.  1.
</event>
<event>
 8    1  0.3719512E-009  0.9132516E+02  0.7561462E-02  0.1299674E+00
          1   -1    0    0  501    0  0.00000000000E+00  0.00000000000E+00  0.12357876704E+03  0.12357876704E+03  0.00000000000E+00 0. -1.
         -1   -1    0    0    0  501 -0.00000000000E+00 -0.00000000000E+00 -0.13036903069E+03  0.13036903069E+03  0.00000000000E+00 0.  1.
         25    2    1    2    0    0  0.20030793339E+02  0.55445725177E+02  0.22619720184E+02  0.14012457429E+03  0.12509110063E+03 0.  0.
         23    2    1    2    0    0 -0.20030793339E+02 -0.55445725177E+02 -0.29409983829E+02  0.11382322344E+03  0.92818736919E+02 0.  0.
          5    1    3    3  502    0 -0.26478226605E+02  0.52843773563E+02  0.56890377144E+02  0.82143461701E+02  0.41800000000E+01 0.  1.
         -5    1    3    3    0  502  0.46509019944E+02  0.26019516142E+01 -0.34270656960E+02  0.57981112587E+02  0.41800000000E+01 0.  1.
        -11    1    4    4    0    0 -0.33723279152E+02 -0.52847431437E+02  0.17336386532E+02  0.65043530533E+02  0.00000000000E+00 0. -1.
         11    1    4    4    0    0  0.13692485813E+02 -0.25982937407E+01 -0.46746370362E+02  0.48779692907E+02  0.00000000000E+00 0.  1.
</event>
<event>
 8    1  0.3719512E-009  0.3139322E+03  0.7561462E-02  0.1078476E+00
          1   -1    0    0  501    0  0.00000000000E+00  0.00000000000E+00  0.96606137442E+03  0.96606137442E+03  0.00000000000E+00 0. -1.
         -1   -1    0    0    0  501 -0.00000000000E+00 -0.00000000000E+00 -0.13494593881E+03  0.13494593881E+03  0.00000000000E+00 0.  1.
         25    2    1    2    0    0 -0.27362180092E+03 -0.11792121890E+03  0.68417189682E+03  0.75664590805E+03  0.12509013535E+03 0.  0.
         23    2    1    2    0    0  0.27362180092E+03  0.11792121890E+03  0.14694353879E+03  0.34436140518E+03  0.90653571264E+02 0.  0.
          5    1    3    3  502    0 -0.10193216780E+03 -0.11056175875E+03  0.34609818822E+03  0.37737977903E+03  0.41800000000E+01 0. -1.
         -5    1    3    3    0  502 -0.17168963312E+03 -0.73594601485E+01  0.33807370860E+03  0.37926612902E+03  0.41800000000E+01 0. -1.
        -11    1    4    4    0    0  0.17950855380E+03  0.11123294214E+03  0.13144974272E+03  0.24874710685E+03  0.00000000000E+00 0. -1.
         11    1    4    4    0    0  0.94113247122E+02  0.66882767615E+01  0.15493796070E+02  0.95614298338E+02  0.00000000000E+00 0.  1.
</event>
<event>
 8    1  0.3719512E-009  0.1280919E+03  0.7561462E-02  0.1230315E+00
          2   -1    0    0  501    0  0.00000000000E+00  0.00000000000E+00  0.10793820213E+03  0.10793820213E+03  0.00000000000E+00 0. -1.
         -2   -1    0    0    0  501 -0.00000000000E+00 -0.00000000000E+00 -0.21085711507E+03  0.21085711507E+03  0.00000000000E+00 0.  1.
         25    2    1    2    0    0  0.29449458376E+02 -0.99874365159E+02 -0.59434015466E+02  0.17326421358E+03  0.12508367638E+03 0.  0.
         23    2    1    2    0    0 -0.29449458376E+02  0.99874365159E+02 -0.43484897476E+02  0.14553110363E+03  0.91903244778E+02 0.  0.
          5    1    3    3  502    0  0.44432192772E+02 -0.61991708953E+02  0.24212877654E+02  0.80130690611E+02  0.41800000000E+01 0. -1.
         -5    1    3    3    0  502 -0.14982734396E+02 -0.37882656206E+02 -0.83646893120E+02  0.93133522965E+02  0.41800000000E+01 0. -1.
        -11    1    4    4    0    0  0.97755927550E+01 -0.14750858043E+02 -0.44514553318E+01  0.18247341759E+02  0.00000000000E+00 0.  1.
         11    1    4    4    0    0 -0.39225051131E+02  0.11462522320E+03 -0.39033442144E+02  0.12728376187E+03  0.00000000000E+00 0. -1.
</event>
<event>
 8    1  0.3719512E-009  0.1073130E+03  0.7561462E-02  0.1265628E+00
         -2   -1    0    0    0  501 -0.00000000000E+00  0.00000000000E+00  0.90077507389E+02  0.90077507389E+02  0.00000000000E+00 0.  1.
          2   -1    0    0  501    0  0.00000000000E+00 -0.00000000000E+00 -0.13502824896E+03  0.13502824896E+03  0.00000000000E+00 0. -1.
         25    2    1    2    0    0  0.30647181174E-02  0.18775908683E+02 -0.36550288553E+02  0.13166622023E+03  0.12509010832E+03 0.  0.
         23    2    1    2    0    0 -0.30647181174E-02 -0.18775908683E+02 -0.84004530142E+01  0.93439536119E+02  0.91147378146E+02 0.  0.
          5    1    3    3  502    0  0.51485683198E+02 -0.25970409152E+02 -0.21541806480E+02  0.61698942878E+02  0.41800000000E+01 0.  1.
         -5    1    3    3    0  502 -0.51482618480E+02  0.44746317835E+02 -0.15008482073E+02  0.69967277348E+02  0.41800000000E+01 0.  1.
        -11    1    4    4    0    0  0.36991370307E+02  0.13498426007E+02  0.10628899695E+02  0.40786547912E+02  0.00000000000E+00 0.  1.
         11    1    4    4    0    0 -0.36994435025E+02 -0.32274334690E+02 -0.19029352709E+02  0.52652988206E+02  0.00000000000E+00 0. -1.
</event>
<event>
 8    1  0.3719512E-009  0.4709911E+02  0.7561462E-02  0.1461647E+00
         -1   -1    0    0    0  501 -0.00000000000E+00  0.00000000000E+00  0.46168987447E+02  0.46168987447E+02  0.00000000000E+00 0.  1.
          1   -1    0    0  501    0  0.00000000000E+00 -0.00000000000E+00 -0.31126311353E+03  0.31126311353E+03  0.00000000000E+00 0. -1.
         25    2    1    2    0    0 -0.29697555633E+02 -0.18082740994E+02 -0.89834366423E+02  0.15787688019E+03  0.12508383418E+03 0.  0.
         23    2    1    2    0    0  0.29697555633E+02  0.18082740994E+02 -0.17525975966E+03  0.19955522079E+03  0.88867161857E+02 0.  0.
          5    1    3    3  502    0 -0.29508365391E+01 -0.64840304758E+01 -0.11730921218E+03  0.11759963329E+03  0.41800000000E+01 0.  1.
         -5    1    3    3    0  502 -0.26746719094E+02 -0.11598710518E+02  0.27474845758E+02  0.40277246895E+02  0.41800000000E+01 0.  1.
        -11    1    4    4    0    0  0.32435430487E+02 -0.53683488739E+01 -0.17270571488E+03  0.17580711098E+03  0.00000000000E+00 0. -1.
         11    1    4    4    0    0 -0.27378748541E+01  0.23451089868E+02 -0.25540447808E+01  0.23748109808E+02  0.00000000000E+00 0.  1.
</event>
<event>
 8    1  0.3719512E-009  0.9656989E+02  0.7561462E-02  0.1287679E+00
          1   -1    0    0  501    0  0.00000000000E+00  0.00000000000E+00  0.94299311454E+02  0.94299311454E+02  0.00000000000E+00 0. -1.
         -1   -1    0    0    0  501 -0.00000000000E+00 -0.00000000000E+00 -0.14289445577E+03  0.14289445577E+03  0.00000000000E+00 0.  1.
         25    2    1    2    0    0  0.13992960756E+02 -0.33030555487E+02 -0.65656780195E+01  0.13029936822E+03  0.12509195291E+03 0.  0.
         23    2    1    2    0    0 -0.13992960756E+02  0.33030555487E+02 -0.42029466296E+02  0.10689439901E+03  0.91504731875E+02 0.  0.
          5    1    3    3  502    0  0.33245223488E+02 -0.68912002679E+02 -0.30963659643E+02  0.82645808221E+02  0.41800000000E+01 0. -1.
         -5    1    3    3    0  502 -0.19252262732E+02  0.35881447192E+02  0.24397981623E+02  0.47653559995E+02  0.41800000000E+01 0. -1.
        -11    1    4    4    0    0  0.46966107121E+01 -0.19377518947E+02 -0.46977815536E+02  0.51033925435E+02  0.00000000000E+00 0.  1.
         11    1    4    4    0    0 -0.18689571469E+02  0.52408074434E+02  0.49483492401E+01  0.55860473572E+02  0.00000000000E+00 0. -1.
</event>
<event>
 8    1  0.3719512E-009  0.8557692E+02  0.7561462E-02  0.1313931E+00
          2   -1    0    0  501    0  0.00000000000E+00  0.00000000000E+00  0.31702878361E+02  0.31702878361E+02  0.00000000000E+00 0. -1.
         -2   -1    0    0    0  501 -0.00000000000E+00 -0.00000000000E+00 -0.41961412631E+03  0.41961412631E+03  0.00000000000E+00 0.  1.
         25    2    1    2    0    0  0.36736455055E+02 -0.13439669214E+02 -0.20237567389E+03  0.24110961724E+03  0.12509093613E+03 0.  0.
         23    2    1    2    0    0 -0.36736455055E+02  0.13439669214E+02 -0.18553557406E+03  0.21020738743E+03  0.90738661287E+02 0.  0.
          5    1    3    3  502    0  0.28720103057E+02 -0.39697774107E+02 -0.20717135820E+03  0.21292769112E+03  0.41800000000E+01 0.  1.
         -5    1    3    3    0  502  0.80163519987E+01  0.26258104893E+02  0.47956843017E+01  0.28181926121E+02  0.41800000000E+01 0.  1.
        -11    1    4    4    0    0  0.86698279636E+01  0.40454109506E+02 -0.11400271364E+03  0.12127786117E+03  0.00000000000E+00 0.  1.
         11    1    4    4    0    0 -0.45406283019E+02 -0.27014440292E+02 -0.71532860421E+02  0.88929526266E+02  0.00000000000E+00 0. -1.
</event>
<event>
 8    1  0.3719512E-009  0.1624071E+03  0.7561462E-02  0.1186006E+00
          1   -1    0    0  501    0  0.00000000000E+00  0.00000000000E+00  0.13467974818E+04  0.13467974818E+04  0.00000000000E+00 0. -1.
         -1   -1    0    0    0  501 -0.00000000000E+00 -0.00000000000E+00 -0.20921735943E+02  0.20921735943E+02  0.00000000000E+00 0.  1.
         25    2    1    2    0    0 -0.10871373152E+03  0.65619369397E+02  0.72879632499E+03  0.75027921202E+03  0.12510090170E+03 0.  0.
         23    2    1    2    0    0  0.10871373152E+03 -0.65619369397E+02  0.59707942090E+03  0.61744000576E+03  0.92756394854E+02 0.  0.
          5    1    3    3  502    0 -0.56935143939E+02 -0.25656759410E+02  0.40684601132E+03  0.41163215284E+03  0.41800000000E+01 0.  1.
         -5    1    3    3    0  502 -0.51778587585E+02  0.91276128807E+02  0.32195031367E+03  0.33864705918E+03  0.41800000000E+01 0.  1.
        -11    1    4    4    0    0  0.65061080929E+02 -0.86966327835E+02  0.40525081403E+03  0.41955251006E+03  0.00000000000E+00 0. -1.
         11    1    4    4    0    0  0.43652650595E+02  0.21346958438E+02  0.19182860687E+03  0.19788749570E+03  0.00000000000E+00 0.  1.
</event>
<event>
 8    1  0.3719512E-009  0.7951832E+02  0.7561462E-02  0.1330424E+00
          1   -1    0    0  501    0  0.00000000000E+00  0.00000000000E+00  0.58719047273E+03  0.58719047273E+03  0.00000000000E+00 0. -1.
         -1   -1    0    0    0  501 -0.00000000000E+00 -0.00000000000E+00 -0.24853314420E+02  0.24853314420E+02  0.00000000000E+00 0.  1.
         25    2    1    2    0    0  0.33269019203E+02 -0.41051636396E+02  0.29562983955E+03  0.32532656056E+03  0.12509318320E+03 0.  0.
         23    2    1    2    0    0 -0.33269019203E+02  0.41051636396E+02  0.26670731876E+03  0.28671722659E+03  0.91004997959E+02 0.  0.
          5    1    3    3  502    0  0.12304487157E+02 -0.37573026003E+01 -0.99154764275E+01  0.16772203189E+02  0.41800000000E+01 0. -1.
         -5    1    3    3    0  502  0.20964532046E+02 -0.37294333795E+02  0.30554531598E+03  0.30855435737E+03  0.41800000000E+01 0. -1.
        -11    1    4    4    0    0  0.20778111105E+02 -0.14250921074E+02  0.40911819918E+02  0.48047847627E+02  0.00000000000E+00 0.  1.
         11    1    4    4    0    0 -0.54047130308E+02  0.55302557469E+02  0.22579549884E+03  0.23866937896E+03  0.00000000000E+00 0. -1.
</event>
<event>
 8    1  0.3719512E-009  0.1640746E+03  0.7561462E-02  0.1184172E+00
         -1   -1    0    0    0  501 -0.00000000000E+00  0.00000000000E+00  0.28066258283E+02  0.28066258283E+02  0.00000000000E+00 0.  1.
          1   -1    0    0  501    0  0.00000000000E+00 -0.00000000000E+00 -0.12087604999E+04  0.12087604999E+04  0.00000000000E+00 0. -1.
         25    2    1    2    0    0 -0.86966439850E+02 -0.83051072849E+02 -0.34461132460E+03  0.38583006552E+03  0.12508889663E+03 0.  0.
         23    2    1    2    0    0  0.86966439850E+02  0.83051072849E+02 -0.83608291700E+03  0.85099669264E+03  0.10344121241E+03 0.  0.
          5    1    3    3  502    0 -0.63418736187E+02  0.20081511780E+02 -0.15366814883E+03  0.16750097188E+03  0.41800000000E+01 0.  1.
         -5    1    3    3    0  502 -0.23547703664E+02 -0.10313258463E+03 -0.19094317577E+03  0.21832909365E+03  0.41800000000E+01 0.  1.
        -11    1    4    4    0    0  0.20590451145E+02 -0.22777535134E+02 -0.10822177872E+03  0.11249327169E+03  0.00000000000E+00 0.  1.
         11    1    4    4    0    0  0.66375988705E+02  0.10582860798E+03 -0.72786113828E+03  0.73850342096E+03  0.00000000000E+00 0. -1.
</event>
<event>
 8    1  0.3719512E-009  0.1185755E+03  0.7561462E-02  0.1245466E+00
          3   -1    0    0  501    0  0.00000000000E+00  0.00000000000E+00  0.40273741257E+03  0.40273741257E+03  0.00000000000E+00 0. -1.
         -3   -1    0    0    0  501 -0.00000000000E+00 -0.00000000000E+00 -0.35335896769E+02  0.35335896769E+02  0.00000000000E+00 0.  1.
         25    2    1    2    0    0 -0.19099304176E+02 -0.35914674372E+02  0.21832152465E+03  0.25488488679E+03  0.12508944852E+03 0.  0.
         23    2    1    2    0    0  0.19099304176E+02  0.35914674372E+02  0.14907999115E+03  0.18318842255E+03  0.98379404047E+02 0.  0.
          5    1    3    3  502    0  0.28832315803E+02  0.35186395470E+02  0.76852413479E+02  0.89404422252E+02  0.41800000000E+01 0. -1.
         -5    1    3    3    0  502 -0.47931619979E+02 -0.71101069842E+02  0.14146911117E+03  0.16548046453E+03  0.41800000000E+01 0. -1.
        -11    1    4    4    0    0  0.32178163797E+02 -0.26600773179E+02  0.47950102289E+02  0.63578673064E+02  0.00000000000E+00 0.  1.
         11    1    4    4    0    0 -0.13078859621E+02  0.62515447552E+02  0.10112988886E+03  0.11960974949E+03  0.00000000000E+00 0. -1.
</event>
<event>
 8    1  0.3719512E-009  0.1108691E+03  0.7561462E-02  0.1258969E+00
         -4   -1    0    0    0  501 -0.00000000000E+00  0.00000000000E+00  0.10135770451E+03  0.10135770451E+03  0.00000000000E+00 0.  1.
          4   -1    0    0  501    0  0.00000000000E+00 -0.00000000000E+00 -0.13838874389E+03  0.13838874389E+03  0.00000000000E+00 0. -1.
         25    2    1    2    0    0  0.32965712009E+02  0.31663161179E+02 -0.11013137111E+02  0.13363360244E+03  0.12508939431E+03 0.  0.
         23    2    1    2    0    0 -0.32965712009E+02 -0.31663161179E+02 -0.26017902274E+02  0.10611284596E+03  0.92161330796E+02 0.  0.
          5    1    3    3  502    0 -0.37288787967E+02  0.44646171829E+02 -0.19665498108E+02  0.61546231265E+02  0.41800000000E+01 0. -1.
         -5    1    3    3    0  502  0.70254499976E+02 -0.12983010650E+02  0.86523609972E+01  0.72087371178E+02  0.41800000000E+01 0. -1.
        -11    1    4    4    0    0 -0.29300542925E+02 -0.58148960785E+02 -0.39510026606E+02  0.76163414173E+02  0.00000000000E+00 0. -1.
         11    1    4    4    0    0 -0.36651690845E+01  0.26485799605E+02  0.13492124332E+02  0.29949431783E+02  0.00000000000E+00 0.  1.
</event>
<event>
 8    1  0.3719512E-009  0.9304464E+02  0.7561462E-02  0.1295642E+00
         -2   -1    0    0    0  501 -0.00000000000E+00  0.00000000000E+00  0.71798889894E+02  0.71798889894E+02  0.00000000000E+00 0.  1.
          2   -1    0    0  501    0  0.00000000000E+00 -0.00000000000E+00 -0.20715414070E+03  0.20715414070E+03  0.00000000000E+00 0. -1.
         25    2    1    2    0    0 -0.15182283852E+02  0.36826405204E+02 -0.12230326583E+03  0.17942173272E+03  0.12508950186E+03 0.  0.
         23    2    1    2    0    0  0.15182283852E+02 -0.36826405204E+02 -0.13051984978E+02  0.99531297876E+02  0.90274243734E+02 0.  0.
          5    1    3    3  502    0 -0.33975994677E+02 -0.11509569836E+02 -0.12216582412E+03  0.12739230509E+03  0.41800000000E+01 0.  1.
         -5    1    3    3    0  502  0.18793710825E+02  0.48335975040E+02 -0.13744170805E+00  0.52029427633E+02  0.41800000000E+01 0.  1.
        -11    1    4    4    0    0  0.52889203747E+02 -0.24369456881E+02 -0.13664848056E+02  0.59815268737E+02  0.00000000000E+00 0. -1.
         11    1    4    4    0    0 -0.37706919895E+02 -0.12456948323E+02  0.61286307765E+00  0.39716029140E+02  0.00000000000E+00 0.  1.
</event>
<event>
 8    1  0.3719512E-009  0.7444226E+02  0.7561462E-02  0.1345607E+00
          1   -1    0    0  501    0  0.00000000000E+00  0.00000000000E+00  0.25395709245E+03  0.25395709245E+03  0.00000000000E+00 0. -1.
         -1   -1    0    0    0  501 -0.00000000000E+00 -0.00000000000E+00 -0.48895822436E+02  0.48895822436E+02  0.00000000000E+00 0.  1.
         25    2    1    2    0    0 -0.19238500138E+02 -0.22987397748E+02  0.81913569757E+02  0.15250070832E+03  0.12509233703E+03 0.  0.
         23    2    1    2    0    0  0.19238500138E+02  0.22987397748E+02  0.12314770025E+03  0.15035220657E+03  0.80881948534E+02 0.  0.
          5    1    3    3  502    0 -0.44345399577E+02 -0.14028088841E+02 -0.17210793639E+02  0.49769323462E+02  0.41800000000E+01 0. -1.
         -5    1    3    3    0  502  0.25106899439E+02 -0.89593089071E+01  0.99124363396E+02  0.10273138486E+03  0.41800000000E+01 0. -1.
        -11    1    4    4    0    0  0.41322624732E+02 -0.25980045897E+01  0.10298552436E+03  0.11099696919E+03  0.00000000000E+00 0. -1.
         11    1    4    4    0    0 -0.22084124594E+02  0.25585402338E+02  0.20162175895E+02  0.39355237373E+02  0.00000000000E+00 0.  1.
</event>
<event>
 8    1  0.3719512E-009  0.6880747E+02  0.7561462E-02  0.1364196E+00
          1   -1    0    0  501    0  0.00000000000E+00  0.00000000000E+00  0.85569733849E+02  0.85569733849E+02  0.00000000000E+00 0. -1.
         -1   -1    0    0    0  501 -0.00000000000E+00 -0.00000000000E+00 -0.16250210716E+03  0.16250210716E+03  0.00000000000E+00 0.  1.
         25    2    1    2    0    0 -0.27952939601E+02 -0.18188247601E+02 -0.71036422792E+02  0.14766536688E+03  0.12508680198E+03 0.  0.
         23    2    1    2    0    0  0.27952939601E+02  0.18188247601E+02 -0.58959505218E+01  0.10040647414E+03  0.94522582659E+02 0.  0.
          5    1    3    3  502    0 -0.11483832351E+02 -0.35615023236E+02  0.27205458982E+02  0.46453392599E+02  0.41800000000E+01 0. -1.
         -5    1    3    3    0  502 -0.16469107250E+02  0.17426775636E+02 -0.98241881774E+02  0.10121197428E+03  0.41800000000E+01 0. -1.
        -11    1    4    4    0    0  0.12161901014E+02  0.43842231003E+02 -0.35849723120E+02  0.57924569082E+02  0.00000000000E+00 0.  1.
         11    1    4    4    0    0  0.15791038587E+02 -0.25653983403E+02  0.29953772598E+02  0.42481905053E+02  0.00000000000E+00 0. -1.
</event>
<event>
 8    1  0.3719512E-009  0.9226473E+02  0.7561462E-02  0.1297458E+00
          2   -1    0    0  501    0  0.00000000000E+00  0.00000000000E+00  0.53960856635E+03  0.53960856635E+03  0.00000000000E+00 0. -1.
         -2   -1    0    0    0  501 -0.00000000000E+00 -0.00000000000E+00 -0.25891461631E+02  0.25891461631E+02  0.00000000000E+00 0.  1.
         25    2    1    2    0    0  0.21977921738E+02 -0.37958176431E+02  0.25219114235E+03  0.28490434964E+03  0.12508502693E+03 0.  0.
         23    2    1    2    0    0 -0.21977921738E+02  0.37958176431E+02  0.26152596237E+03  0.28059567834E+03  0.91729240203E+02 0.  0.
          5    1    3    3  502    0 -0.10032848153E+02 -0.69318524755E+02  0.21612497373E+03  0.22722938319E+03  0.41800000000E+01 0. -1.
         -5    1    3    3    0  502  0.32010769892E+02  0.31360348324E+02  0.36066168621E+02  0.57674966451E+02  0.41800000000E+01 0. -1.
        -11    1    4    4    0    0  0.24252052206E+01 -0.12805090595E+02 -0.41382768199E-01  0.13032792411E+02  0.00000000000E+00 0.  1.
         11    1    4    4    0    0 -0.24403126959E+02  0.50763267026E+02  0.26156734514E+03  0.26756288593E+03  0.00000000000E+00 0. -1.
</event>
<event>
 8    1  0.3719512E-009  0.9098958E+02  0.7561462E-02  0.1300473E+00
          2   -1    0    0  501    0  0.00000000000E+00  0.00000000000E+00  0.41712426746E+03  0.41712426746E+03  0.00000000000E+00 0. -1.
         -2   -1    0    0    0  501 -0.00000000000E+00 -0.00000000000E+00 -0.59196204811E+02  0.59196204811E+02  0.00000000000E+00 0.  1.
         25    2    1    2    0    0 -0.43202933876E+02  0.22699291616E+02  0.37519054841E+02  0.13941685693E+03  0.12509048399E+03 0.  0.
         23    2    1    2    0    0  0.43202933876E+02 -0.22699291616E+02  0.32040900780E+03  0.33690361534E+03  0.91980228364E+02 0.  0.
          5    1    3    3  502    0 -0.30790856936E+02  0.58882771476E+02  0.64280087191E+02  0.92545446441E+02  0.41800000000E+01 0. -1.
         -5    1    3    3    0  502 -0.12412076940E+02 -0.36183479860E+02 -0.26761032351E+02  0.46871410489E+02  0.41800000000E+01 0. -1.
        -11    1    4    4    0    0 -0.15145021335E+02 -0.45178998419E+01  0.64805338269E+01  0.17081580984E+02  0.00000000000E+00 0.  1.
         11    1    4    4    0    0  0.58347955211E+02 -0.18181391774E+02  0.31392847398E+03  0.31982203435E+03  0.00000000000E+00 0. -1.
</event>
<event>
 8    1  0.3719512E-009  0.9320787E+02  0.7561462E-02  0.1295264E+00
          1   -1    0    0  501    0  0.00000000000E+00  0.00000000000E+00  0.10449976927E+04  0.10449976927E+04  0.00000000000E+00 0. -1.
         -1   -1    0    0    0  501 -0.00000000000E+00 -0.00000000000E+00 -0.13015772816E+02  0.13015772816E+02  0.00000000000E+00 0.  1.
         25    2    1    2    0    0  0.21088037720E+02 -0.34851317691E+02  0.56607612917E+03  0.58116204726E+03  0.12509125262E+03 0.  0.
         23    2    1    2    0    0 -0.21088037720E+02  0.34851317691E+02  0.46590579072E+03  0.47685141826E+03  0.93057775552E+02 0.  0.
          5    1    3    3  502    0  0.11121616373E+02  0.24044151730E+02  0.24624447168E+02  0.36409440829E+02  0.41800000000E+01 0.  1.
         -5    1    3    3    0  502  0.99664213467E+01 -0.58895469421E+02  0.54145168200E+03  0.54475260643E+03  0.41800000000E+01 0.  1.
        -11    1    4    4    0    0  0.34655570114E+02  0.25889000408E+02  0.15813814343E+03  0.16394792249E+03  0.00000000000E+00 0.  1.
         11    1    4    4    0    0 -0.55743607834E+02  0.89623172833E+01  0.30776764729E+03  0.31290349577E+03  0.00000000000E+00 0. -1.
</event>
<event>
 8    1  0.3719512E-009  0.1787876E+03  0.7561462E-02  0.1168982E+00
         -2   -1    0    0    0  501 -0.00000000000E+00  0.00000000000E+00  0.95180854637E+02  0.95180854637E+02  0.00000000000E+00 0.  1.
          2   -1    0    0  501    0  0.00000000000E+00 -0.00000000000E+00 -0.45743383114E+03  0.45743383114E+03  0.00000000000E+00 0. -1.
         25    2    1    2    0    0  0.93831440773E+02  0.12298165264E+03 -0.30548776982E+03  0.36455291606E+03  0.12508886815E+03 0.  0.
         23    2    1    2    0    0 -0.93831440773E+02 -0.12298165264E+03 -0.56765206684E+02  0.18806176972E+03  0.90642784461E+02 0.  0.
          5    1    3    3  502    0  0.81645063042E+02  0.69662590848E+01 -0.11892947444E+03  0.14448576876E+03  0.41800000000E+01 0. -1.
         -5    1    3    3    0  502  0.12186377731E+02  0.11601539356E+03 -0.18655829538E+03  0.22006714730E+03  0.41800000000E+01 0. -1.
        -11    1    4    4    0    0 -0.52975285914E+02 -0.40261009624E+02  0.18425871319E+02  0.69042324320E+02  0.00000000000E+00 0.  1.
         11    1    4    4    0    0 -0.40856154859E+02 -0.82720643017E+02 -0.75191078003E+02  0.11901944540E+03  0.00000000000E+00 0. -1.
</event>
<event>
 8    1  0.3719512E-009  0.2029542E+03  0.7561462E-02  0.1147270E+00
         -1   -1    0    0    0  501 -0.00000000000E+00  0.00000000000E+00  0.11866936631E+03  0.11866936631E+03  0.00000000000E+00 0.  1.
          1   -1    0    0  501    0  0.00000000000E+00 -0.00000000000E+00 -0.56920741516E+03  0.56920741516E+03  0.00000000000E+00 0. -1.
         25    2    1    2    0    0 -0.14862302906E+03  0.96177624696E+02 -0.43885943315E+03  0.48947308161E+03  0.12508938926E+03 0.  0.
         23    2    1    2    0    0  0.14862302906E+03 -0.96177624696E+02 -0.11678615703E+02  0.19840369986E+03  0.88818341558E+02 0.  0.
          5    1    3    3  502    0 -0.42312975680E+02  0.94739202018E+02 -0.15735555743E+03  0.18853155748E+03  0.41800000000E+01 0. -1.
         -5    1    3    3    0  502 -0.10631005337E+03  0.14384226784E+01 -0.28150387571E+03  0.30094152414E+03  0.41800000000E+01 0. -1.
        -11    1    4    4    0    0  0.54709047925E+02  0.81269432569E+01  0.10531613708E+02  0.56303126191E+02  0.00000000000E+00 0. -1.
         11    1    4    4    0    0  0.93913981130E+02 -0.10430456795E+03 -0.22210229411E+02  0.14210057367E+03  0.00000000000E+00 0.  1.
</event>
<event>
 8    1  0.3719512E-009  0.1103897E+03  0.7561462E-02  0.1259850E+00
          2   -1    0    0  501    0  0.00000000000E+00  0.00000000000E+00  0.78829872686E+03  0.78829872686E+03  0.00000000000E+00 0. -1.
         -2   -1    0    0    0  501 -0.00000000000E+00 -0.00000000000E+00 -0.22443324281E+02  0.22443324281E+02  0.00000000000E+00 0.  1.
         25    2    1    2    0    0 -0.11857774356E+01  0.46784488713E+02  0.61279812823E+03  0.62718334821E+03  0.12508881588E+03 0.  0.
         23    2    1    2    0    0  0.11857774356E+01 -0.46784488713E+02  0.15305727435E+03  0.18355870293E+03  0.89872541624E+02 0.  0.
          5    1    3    3  502    0 -0.53928808844E+02  0.58045990931E+02  0.37739032040E+03  0.38564048000E+03  0.41800000000E+01 0. -1.
         -5    1    3    3    0  502  0.52743031408E+02 -0.11261502219E+02  0.23540780783E+03  0.24154286821E+03  0.41800000000E+01 0. -1.
        -11    1    4    4    0    0 -0.34674899874E+02 -0.10267748323E+02  0.20741130385E+02  0.41688965285E+02  0.00000000000E+00 0.  1.
         11    1    4    4    0    0  0.35860677310E+02 -0.36516740390E+02  0.13231614397E+03  0.14186973765E+03  0.00000000000E+00 0. -1.
</event>
<event>
 8    1  0.3719512E-009  0.1682565E+03  0.7561462E-02  0.1179678E+00
         -2   -1    0    0    0  501 -0.00000000000E+00  0.00000000000E+00  0.14894687641E+02  0.14894687641E+02  0.00000000000E+00 0.  1.
          2   -1    0    0  501    0  0.00000000000E+00 -0.00000000000E+00 -0.34674365113E+04  0.34674365113E+04  0.00000000000E+00 0. -1.
         25    2    1    2    0    0  0.33882125482E+02  0.13383078562E+03 -0.28985002511E+04  0.29044809337E+04  0.12508841374E+03 0.  0.
         23    2    1    2    0    0 -0.33882125482E+02 -0.13383078562E+03 -0.55404157261E+03  0.57785026525E+03  0.88826726050E+02 0.  0.
          5    1    3    3  502    0  0.36172603990E+02  0.15721960682E+03 -0.24094258631E+04  0.24148244086E+04  0.41800000000E+01 0. -1.
         -5    1    3    3    0  502 -0.22904785081E+01 -0.23388821201E+02 -0.48907438800E+03  0.48965652517E+03  0.41800000000E+01 0. -1.
        -11    1    4    4    0    0 -0.52150387268E+02 -0.10212503759E+03 -0.49717715091E+03  0.51022965964E+03  0.00000000000E+00 0.  1.
         11    1    4    4    0    0  0.18268261787E+02 -0.31705748031E+02 -0.56864421705E+02  0.67620605608E+02  0.00000000000E+00 0. -1.
</event>
<event>
 8    1  0.3719512E-009  0.1087893E+03  0.7561462E-02  0.1262828E+00
         -2   -1    0    0    0  501 -0.00000000000E+00  0.00000000000E+00  0.51601668260E+02  0.51601668260E+02  0.00000000000E+00 0.  1.
          2   -1    0    0  501    0  0.00000000000E+00 -0.00000000000E+00 -0.34851958533E+03  0.34851958533E+03  0.00000000000E+00 0. -1.
         25    2    1    2    0    0  0.66086235419E+02 -0.17697659214E+02 -0.10708892186E+03  0.17832425091E+03  0.12510357158E+03 0.  0.
         23    2    1    2    0    0 -0.66086235419E+02  0.17697659214E+02 -0.18982899521E+03  0.22179700268E+03  0.92077496294E+02 0.  0.
          5    1    3    3  502    0  0.47554157701E+02 -0.71153819345E+02 -0.68703557283E+02  0.10982675041E+03  0.41800000000E+01 0.  1.
         -5    1    3    3    0  502  0.18532077718E+02  0.53456160131E+02 -0.38385364579E+02  0.68497500497E+02  0.41800000000E+01 0.  1.
        -11    1    4    4    0    0 -0.36244564641E+02 -0.64016954258E+01 -0.10305047678E+02  0.38220991326E+02  0.00000000000E+00 0.  1.
         11    1    4    4    0    0 -0.29841670778E+02  0.24099354639E+02 -0.17952394753E+03  0.18357601135E+03  0.00000000000E+00 0. -1.
</event>
<event>
 8    1  0.3719512E-009  0.1010721E+03  0.7561462E-02  0.1278058E+00
          1   -1    0    0  501    0  0.00000000000E+00  0.00000000000E+00  0.32237841897E+02  0.32237841897E+02  0.00000000000E+00 0. -1.
         -1   -1    0    0    0  501 -0.00000000000E+00 -0.00000000000E+00 -0.41068969464E+03  0.41068969464E+03  0.00000000000E+00 0.  1.
         25    2    1    2    0    0 -0.27594698364E+01 -0.37052344346E+02 -0.22813674044E+03  0.26281888182E+03  0.12508757494E+03 0.  0.
         23    2    1    2    0    0  0.27594698364E+01  0.37052344346E+02 -0.15031511230E+03  0.18010865472E+03  0.92000019694E+02 0.  0.
          5    1    3    3  502    0  0.71681453160E+00 -0.75145407410E+02 -0.20388830556E+03  0.21733674246E+03  0.41800000000E+01 0.  1.
         -5    1    3    3    0  502 -0.34762843680E+01  0.38093063064E+02 -0.24248434886E+02  0.45482139363E+02  0.41800000000E+01 0.  1.
        -11    1    4    4    0    0  0.41491429558E+02  0.20500933236E+02 -0.11882169972E+03  0.12751636489E+03  0.00000000000E+00 0.  1.
         11    1    4    4    0    0 -0.38731959721E+02  0.16551411111E+02 -0.31493412581E+02  0.52592289830E+02  0.00000000000E+00 0. -1.
</event>
<event>
 8    1  0.3719512E-009  0.7109962E+02  0.7561462E-02  0.1356393E+00
         -2   -1    0    0    0  501 -0.00000000000E+00  0.00000000000E+00  0.35296718111E+02  0.35296718111E+02  0.00000000000E+00 0.  1.
          2   -1    0    0  501    0  0.00000000000E+00 -0.00000000000E+00 -0.40960573868E+03  0.40960573868E+03  0.00000000000E+00 0. -1.
         25    2    1    2    0    0  0.16882125392E+02 -0.49451993171E+02 -0.20067656769E+03  0.24217787062E+03  0.12509408625E+03 0.  0.
         23    2    1    2    0    0 -0.16882125392E+02  0.49451993171E+02 -0.17363245288E+03  0.20272458617E+03  0.90656071815E+02 0.  0.
          5    1    3    3  502    0 -0.29193058082E+01 -0.10920620327E+02 -0.19821970146E+03  0.19858576168E+03  0.41800000000E+01 0.  1.
         -5    1    3    3    0  502  0.19801431200E+02 -0.38531372843E+02 -0.24568662298E+01  0.43592108947E+02  0.41800000000E+01 0.  1.
        -11    1    4    4    0    0  0.19114052979E+02  0.46773827109E+02 -0.40413905141E+02  0.64702562951E+02  0.00000000000E+00 0.  1.
         11    1    4    4    0    0 -0.35996178371E+02  0.26781660617E+01 -0.13321854774E+03  0.13802202322E+03  0.00000000000E+00 0. -1.
</event>
<event>
 8    1  0.3719512E-009  0.1088942E+03  0.7561462E-02  0.1262631E+00
          2   -1    0    0  501    0  0.00000000000E+00  0.00000000000E+00  0.96357874763E+03  0.96357874763E+03  0.00000000000E+00 0. -1.
         -2   -1    0    0    0  501 -0.00000000000E+00 -0.00000000000E+00 -0.15791353143E+02  0.15791353143E+02  0.00000000000E+00 0.  1.
         25    2    1    2    0    0  0.41416390609E+02  0.39896332145E+02  0.57953060758E+03  0.59565946288E+03  0.12508971128E+03 0.  0.
         23    2    1    2    0    0 -0.41416390609E+02 -0.39896332145E+02  0.36825678690E+03  0.38371063789E+03  0.91179810255E+02 0.  0.
          5    1    3    3  502    0 -0.92073027649E+01  0.56063631950E+02  0.47418312842E+03  0.47759294062E+03  0.41800000000E+01 0. -1.
         -5    1    3    3    0  502  0.50623693374E+02 -0.16167299805E+02  0.10534747916E+03  0.11806652227E+03  0.41800000000E+01 0. -1.
        -11    1    4    4    0    0 -0.70568635551E+02 -0.25855534996E+02  0.24421146264E+03  0.25551453872E+03  0.00000000000E+00 0. -1.
         11    1    4    4    0    0  0.29152244942E+02 -0.14040797149E+02  0.12404532426E+03  0.12819609917E+03  0.00000000000E+00 0.  1.
</event>
<event>
 8    1  0.3719512E-009  0.1793822E+03  0.7561462E-02  0.1168402E+00
         -2   -1    0    0    0  501 -0.00000000000E+00  0.00000000000E+00  0.63665961146E+02  0.63665961146E+02  0.00000000000E+00 0.  1.
          2   -1    0    0  501    0  0.00000000000E+00 -0.00000000000E+00 -0.63100206829E+03  0.63100206829E+03  0.00000000000E+00 0. -1.
         25    2    1    2    0    0  0.57069784982E+02  0.14849138333E+03 -0.38406907085E+03  0.43412380290E+03  0.12509106195E+03 0.  0.
         23    2    1    2    0    0 -0.57069784982E+02 -0.14849138333E+03 -0.18326703629E+03  0.26054422653E+03  0.94814746248E+02 0.  0.
          5    1    3    3  502    0  0.30566289031E+01 -0.18872229025E+02 -0.84381761379E+02  0.86621348766E+02  0.41800000000E+01 0. -1.
         -5    1    3    3    0  502  0.54013156079E+02  0.16736361236E+03 -0.29968730947E+03  0.34750245413E+03  0.41800000000E+01 0. -1.
        -11    1    4    4    0    0 -0.19497097055E+02 -0.14989963372E+02  0.65582309781E+01  0.25452822811E+02  0.00000000000E+00 0.  1.
         11    1    4    4    0    0 -0.37572687927E+02 -0.13350141996E+03 -0.18982526727E+03  0.23509140372E+03  0.00000000000E+00 0. -1.
</event>
<event>
 8    1  0.3719512E-009  0.1549186E+03  0.7561462E-02  0.1194556E+00
          1   -1    0    0  501    0  0.00000000000E+00  0.00000000000E+00  0.11313078177E+04  0.11313078177E+04  0.00000000000E+00 0. -1.
         -1   -1    0    0    0  501 -0.00000000000E+00 -0.00000000000E+00 -0.31319843575E+02  0.31319843575E+02  0.00000000000E+00 0.  1.
         25    2    1    2    0    0 -0.40797644772E+01  0.13544588800E+03  0.80241439106E+03  0.82333341556E+03  0.12508727012E+03 0.  0.
         23    2    1    2    0    0  0.40797644772E+01 -0.13544588800E+03  0.29757358310E+03  0.33929424575E+03  0.90599750459E+02 0.  0.
          5    1    3    3  502    0  0.51460362408E+02  0.60537115054E+02  0.51582450559E+03  0.52192461540E+03  0.41800000000E+01 0.  1.
         -5    1    3    3    0  502 -0.55540126885E+02  0.74908772948E+02  0.28658988547E+03  0.30140880016E+03  0.41800000000E+01 0.  1.
        -11    1    4    4    0    0 -0.21660507984E+01 -0.12283806045E+03  0.30074477773E+03  0.32487120864E+03  0.00000000000E+00 0. -1.
         11    1    4    4    0    0  0.62458152757E+01 -0.12607827547E+02 -0.31711946315E+01  0.14423037104E+02  0.00000000000E+00 0.  1.
</event>
<event>
 8    1  0.3719512E-009  0.1499816E+03  0.7561462E-02  0.1200496E+00
          2   -1    0    0  501    0  0.00000000000E+00  0.00000000000E+00  0.40664735050E+03  0.40664735050E+03  0.00000000000E+00 0. -1.
         -2   -1    0    0    0  501 -0.00000000000E+00 -0.00000000000E+00 -0.77521503816E+02  0.77521503816E+02  0.00000000000E+00 0.  1.
         25    2    1    2    0    0  0.10564628527E+03 -0.30052599934E+02  0.29218056719E+03  0.33627532088E+03  0.12508921311E+03 0.  0.
         23    2    1    2    0    0 -0.10564628527E+03  0.30052599934E+02  0.36945279489E+02  0.14789353343E+03  0.91887143824E+02 0.  0.
          5    1    3    3  502    0 -0.16818404458E+02  0.18169076419E+02  0.14603431798E+02  0.29046629524E+02  0.41800000000E+01 0.  1.
         -5    1    3    3    0  502  0.12246468973E+03 -0.48221676353E+02  0.27757713540E+03  0.30722869136E+03  0.41800000000E+01 0.  1.
        -11    1    4    4    0    0 -0.68896528292E+02  0.63339527700E+02  0.25660508353E+02  0.97041687274E+02  0.00000000000E+00 0. -1.
         11    1    4    4    0    0 -0.36749756977E+02 -0.33286927766E+02  0.11284771136E+02  0.50851846157E+02  0.00000000000E+00 0.  1.
</event>
<event>
 8    1  0.3719512E-009  0.1265190E+03  0.7561462E-02  0.1232714E+00
         -2   -1    0    0    0  501 -0.00000000000E+00  0.00000000000E+00  0.92289220306E+02  0.92289220306E+02  0.00000000000E+00 0.  1.
          2   -1    0    0  501    0  0.00000000000E+00 -0.00000000000E+00 -0.39654964329E+03  0.39654964329E+03  0.00000000000E+00 0. -1.
         25    2    1    2    0    0 -0.26528736444E+02  0.91527324627E+02 -0.31865377682E+03  0.35534325271E+03  0.12509025841E+03 0.  0.
         23    2    1    2    0    0  0.26528736444E+02 -0.91527324627E+02  0.14393353837E+02  0.13349561089E+03  0.92373613561E+02 0.  0.
          5    1    3    3  502    0 -0.91713731862E+01 -0.17146536252E+02 -0.18880668251E+01  0.19978863529E+02  0.41800000000E+01 0. -1.
         -5    1    3    3    0  502 -0.17357363258E+02  0.10867386088E+03 -0.31676571000E+03  0.33536438918E+03  0.41800000000E+01 0. -1.
        -11    1    4    4    0    0  0.49643296584E+02 -0.85923725456E+02  0.31595876958E+02  0.10414241659E+03  0.00000000000E+00 0.  1.
         11    1    4    4    0    0 -0.23114560140E+02 -0.56035991700E+01 -0.17202523121E+02  0.29353194304E+02  0.00000000000E+00 0. -1.
</event>
<event>
 8    1  0.3719512E-009  0.1932628E+03  0.7561462E-02  0.1155551E+00
          2   -1    0    0  501    0  0.00000000000E+00  0.00000000000E+00  0.17367712631E+03  0.17367712631E+03  0.00000000000E+00 0. -1.
         -2   -1    0    0    0  501 -0.00000000000E+00 -0.00000000000E+00 -0.33484292623E+03  0.33484292623E+03  0.00000000000E+00 0.  1.
         25    2    1    2    0    0  0.18955594839E+03 -0.93028511322E+01 -0.19038774912E+03  0.29650146120E+03  0.12509045074E+03 0.  0.
         23    2    1    2    0    0 -0.18955594839E+03  0.93028511322E+01  0.29221949202E+02  0.21201859135E+03  0.89888598574E+02 0.  0.
          5    1    3    3  502    0 -0.10459003920E+01  0.36561344297E+01 -0.70913426524E+02  0.71138229441E+02  0.41800000000E+01 0.  1.
         -5    1    3    3    0  502  0.19060184878E+03 -0.12958985562E+02 -0.11947432260E+03  0.22536323175E+03  0.41800000000E+01 0.  1.
        -11    1    4    4    0    0 -0.12167481059E+03  0.64777252467E+01  0.61854495347E+02  0.13664808469E+03  0.00000000000E+00 0. -1.
         11    1    4    4    0    0 -0.67881137806E+02  0.28251258855E+01 -0.32632546145E+02  0.75370506659E+02  0.00000000000E+00 0.  1.
</event>
<event>
 8    1  0.3719512E-009  0.6563055E+02  0.7561462E-02  0.1375615E+00
         -1   -1    0    0    0  501 -0.00000000000E+00  0.00000000000E+00  0.27212155085E+03  0.27212155085E+03  0.00000000000E+00 0.  1.
          1   -1    0    0  501    0  0.00000000000E+00 -0.00000000000E+00 -0.56110407211E+02  0.56110407211E+02  0.00000000000E+00 0. -1.
         25    2    1    2    0    0  0.45254435613E+00 -0.23593014624E+02  0.19427224467E+03  0.23226324257E+03  0.12509066178E+03 0.  0.
         23    2    1    2    0    0 -0.45254435613E+00  0.23593014624E+02  0.21738898972E+02  0.95968715494E+02  0.90446555986E+02 0.  0.
          5    1    3    3  502    0  0.26994130049E+02  0.36922347446E+01 -0.61278936071E+01  0.28237194170E+02  0.41800000000E+01 0. -1.
         -5    1    3    3    0  502 -0.26541585693E+02 -0.27285249368E+02  0.20040013828E+03  0.20402604840E+03  0.41800000000E+01 0. -1.
        -11    1    4    4    0    0  0.11800478851E+02 -0.18288965166E+02 -0.24240580437E+02  0.32578264040E+02  0.00000000000E+00 0. -1.
         11    1    4    4    0    0 -0.12253023208E+02  0.41881979789E+02  0.45979479409E+02  0.63390451454E+02  0.00000000000E+00 0.  1.
</event>
<event>
 8    1  0.3719512E-009  0.1072706E+03  0.7561462E-02  0.1265709E+00
         -2   -1    0    0    0  501 -0.00000000000E+00  0.00000000000E+00  0.73970154095E+02  0.73970154095E+02  0.00000000000E+00 0.  1.
          2   -1    0    0  501    0  0.00000000000E+00 -0.00000000000E+00 -0.26380192086E+03  0.26380192086E+03  0.00000000000E+00 0. -1.
         25    2    1    2    0    0 -0.66634955381E+02 -0.24547566231E+02 -0.45873166773E+02  0.15097543765E+03  0.12508571084E+03 0.  0.
         23    2    1    2    0    0  0.66634955381E+02  0.24547566231E+02 -0.14395859999E+03  0.18679663730E+03  0.95530649064E+02 0.  0.
          5    1    3    3  502    0 -0.86719746222E+02 -0.23096337414E+01 -0.70580014053E+02  0.11191362552E+03  0.41800000000E+01 0. -1.
         -5    1    3    3    0  502  0.20084790841E+02 -0.22237932489E+02  0.24706847280E+02  0.39061812132E+02  0.41800000000E+01 0. -1.
        -11    1    4    4    0    0  0.13951695677E+02  0.40137412955E+02 -0.12460472859E+02  0.44282334117E+02  0.00000000000E+00 0.  1.
         11    1    4    4    0    0  0.52683259704E+02 -0.15589846725E+02 -0.13149812713E+03  0.14251430319E+03  0.00000000000E+00 0. -1.
</event>
<event>
 8    1  0.3719512E-009  0.1714790E+03  0.7561462E-02  0.1176314E+00
         -2   -1    0    0    0  501 -0.00000000000E+00  0.00000000000E+00  0.49313091692E+02  0.49313091692E+02  0.00000000000E+00 0.  1.
          2   -1    0    0  501    0  0.00000000000E+00 -0.00000000000E+00 -0.76689535362E+03  0.76689535362E+03  0.00000000000E+00 0. -1.
         25    2    1    2    0    0  0.13735599207E+03  0.79448163729E+01 -0.19987572454E+03  0.27299789412E+03  0.12509099196E+03 0.  0.
         23    2    1    2    0    0 -0.13735599207E+03 -0.79448163729E+01 -0.51770653739E+03  0.54321055119E+03  0.90154619457E+02 0.  0.
          5    1    3    3  502    0  0.52713107108E+02 -0.52722761440E+02 -0.12142921777E+03  0.14255135412E+03  0.41800000000E+01 0.  1.
         -5    1    3    3    0  502  0.84642884960E+02  0.60667577812E+02 -0.78446506772E+02  0.13044654000E+03  0.41800000000E+01 0.  1.
        -11    1    4    4    0    0  0.87177267047E+01 -0.15512018741E+02 -0.69440342194E+02  0.71683907596E+02  0.00000000000E+00 0. -1.
         11    1    4    4    0    0 -0.14607371877E+03  0.75672023686E+01 -0.44826619519E+03  0.47152664360E+03  0.00000000000E+00 0.  1.
</event>
<event>
 8    1  0.3719512E-009  0.9521394E+02  0.7561462E-02  0.1290695E+00
          1   -1    0    0  501    0  0.00000000000E+00  0.00000000000E+00  0.20126300838E+03  0.20126300838E+03  0.00000000000E+00 0. -1.
         -1   -1    0    0    0  501 -0.00000000000E+00 -0.00000000000E+00 -0.82178885763E+02  0.82178885763E+02  0.00000000000E+00 0.  1.
         25    2    1    2    0    0 -0.26564933654E+02 -0.65880172618E+02  0.51828841355E+02  0.15290183735E+03  0.12508737036E+03 0.  0.
         23    2    1    2    0    0  0.26564933654E+02  0.65880172618E+02  0.67255281265E+02  0.13054005680E+03  0.86438074518E+02 0.  0.
          5    1    3    3  502    0 -0.61347665867E+01  0.11147759938E+02  0.69824270017E+02  0.71097179944E+02  0.41800000000E+01 0. -1.
         -5    1    3    3    0  502 -0.20430167068E+02 -0.77027932556E+02 -0.17995428662E+02  0.81804657404E+02  0.41800000000E+01 0. -1.
        -11    1    4    4    0    0  0.48831979046E+02  0.40251220431E+02  0.10131683803E+02  0.64088797308E+02  0.00000000000E+00 0.  1.
         11    1    4    4    0    0 -0.22267045392E+02  0.25628952187E+02  0.57123597462E+02  0.66451259489E+02  0.00000000000E+00 0. -1.
</event>
<event>
 8    1  0.3719512E-009  0.1271485E+03  0.7561462E-02  0.1231749E+00
          1   -1    0    0  501    0  0.00000000000E+00  0.00000000000E+00  0.80308120187E+02  0.80308120187E+02  0.00000000000E+00 0. -1.
         -1   -1    0    0    0  501 -0.00000000000E+00 -0.00000000000E+00 -0.24710638497E+03  0.24710638497E+03  0.00000000000E+00 0.  1.
         25    2    1    2    0    0 -0.48173101423E+02  0.62001196855E+02 -0.14034087269E+03  0.20373729883E+03  0.12509408568E+03 0.  0.
         23    2    1    2    0    0  0.48173101423E+02 -0.62001196855E+02 -0.26457392090E+02  0.12367720633E+03  0.91821901837E+02 0.  0.
          5    1    3    3  502    0  0.42737269339E+02  0.18459249767E+02 -0.47295554274E+02  0.66494811426E+02  0.41800000000E+01 0.  1.
         -5    1    3    3    0  502 -0.90910370762E+02  0.43541947089E+02 -0.93045318417E+02  0.13724248740E+03  0.41800000000E+01 0.  1.
        -11    1    4    4    0    0  0.37729462609E+02 -0.78527082848E+02 -0.43829434451E+02  0.97524532368E+02  0.00000000000E+00 0.  1.
         11    1    4    4    0    0  0.10443638814E+02  0.16525885992E+02  0.17372042361E+02  0.26152673961E+02  0.00000000000E+00 0. -1.
</event>
<event>
 8    1  0.3719512E-009  0.1636197E+03  0.7561462E-02  0.1184670E+00
         -4   -1    0    0    0  501 -0.00000000000E+00  0.00000000000E+00  0.39051980808E+02  0.39051980808E+02  0.00000000000E+00 0.  1.
          4   -1    0    0  501    0  0.00000000000E+00 -0.00000000000E+00 -0.81029572404E+03  0.81029572404E+03  0.00000000000E+00 0. -1.
         25    2    1    2    0    0  0.12195169501E+03 -0.72970906807E+02 -0.39126316214E+03  0.43466226115E+03  0.12508976803E+03 0.  0.
         23    2    1    2    0    0 -0.12195169501E+03  0.72970906807E+02 -0.37998058109E+03  0.41468544370E+03  0.85917437422E+02 0.  0.
          5    1    3    3  502    0  0.56427080470E+02  0.96192642087E+01 -0.45744382164E+02  0.73393232344E+02  0.41800000000E+01 0.  1.
         -5    1    3    3    0  502  0.65524614537E+02 -0.82590171015E+02 -0.34551877998E+03  0.36126902881E+03  0.41800000000E+01 0.  1.
        -11    1    4    4    0    0 -0.91489997002E+02  0.90917176193E+02 -0.32065166941E+03  0.34562095650E+03  0.00000000000E+00 0. -1.
         11    1    4    4    0    0 -0.30461698006E+02 -0.17946269387E+02 -0.59328911682E+02  0.69064487196E+02  0.00000000000E+00 0.  1.
</event>
<event>
 8    1  0.3719512E-009  0.1671604E+03  0.7561462E-02  0.1180842E+00
         -1   -1    0    0    0  501 -0.00000000000E+00  0.00000000000E+00  0.10967653487E+03  0.10967653487E+03  0.00000000000E+00 0.  1.
          1   -1    0    0  501    0  0.00000000000E+00 -0.00000000000E+00 -0.34006057618E+03  0.34006057618E+03  0.00000000000E+00 0. -1.
         25    2    1    2    0    0 -0.32913558762E+02  0.14296663627E+03 -0.19327540827E+03  0.27299431124E+03  0.12509096327E+03 0.  0.
         23    2    1    2    0    0  0.32913558762E+02 -0.14296663627E+03 -0.37108633043E+02  0.17674279980E+03  0.91313773329E+02 0.  0.
          5    1    3    3  502    0 -0.60236481744E+00  0.15333315206E+03 -0.12998599807E+03  0.20106031547E+03  0.41800000000E+01 0.  1.
         -5    1    3    3    0  502 -0.32311193944E+02 -0.10366515787E+02 -0.63289410203E+02  0.71933995771E+02  0.41800000000E+01 0.  1.
        -11    1    4    4    0    0  0.11090171568E+02 -0.54941062303E+02  0.30327213871E+02  0.63727954099E+02  0.00000000000E+00 0.  1.
         11    1    4    4    0    0  0.21823387193E+02 -0.88025573967E+02 -0.67435846914E+02  0.11301484571E+03  0.00000000000E+00 0. -1.
</event>
<event>
 8    1  0.3719512E-009  0.1123110E+03  0.7561462E-02  0.1256349E+00
          1   -1    0    0  501    0  0.00000000000E+00  0.00000000000E+00  0.29620815209E+03  0.29620815209E+03  0.00000000000E+00 0. -1.
         -1   -1    0    0    0  501 -0.00000000000E+00 -0.00000000000E+00 -0.54785603019E+02  0.54785603019E+02  0.00000000000E+00 0.  1.
         25    2    1    2    0    0  0.43493714613E+02  0.21874367291E+02  0.19492814221E+03  0.23667141651E+03  0.12508472174E+03 0.  0.
         23    2    1    2    0    0 -0.43493714613E+02 -0.21874367291E+02  0.46494406865E+02  0.11432233860E+03  0.92399545878E+02 0.  0.
          5    1    3    3  502    0 -0.67267190056E+01  0.66413356069E+02  0.92963192359E+02  0.11452340436E+03  0.41800000000E+01 0. -1.
         -5    1    3    3    0  502  0.50220433619E+02 -0.44538988778E+02  0.10196494985E+03  0.12214801215E+03  0.41800000000E+01 0. -1.
        -11    1    4    4    0    0 -0.65419005354E+02 -0.12333629490E+02  0.54159214082E+01  0.66791443184E+02  0.00000000000E+00 0.  1.
         11    1    4    4    0    0  0.21925290740E+02 -0.95407378011E+01  0.41078485457E+02  0.47530895418E+02  0.00000000000E+00 0. -1.
</event>
<event>
 8    1  0.3719512E-009  0.2008720E+03  0.7561462E-02  0.1149005E+00
          1   -1    0    0  501    0  0.00000000000E+00  0.00000000000E+00  0.23109764776E+03  0.23109764776E+03  0.00000000000E+00 0. -1.
         -1   -1    0    0    0  501 -0.00000000000E+00 -0.00000000000E+00 -0.18687277950E+03  0.18687277950E+03  0.00000000000E+00 0.  1.
         25    2    1    2    0    0  0.13757817551E+03  0.10997584491E+03  0.40244679133E+02  0.21974752199E+03  0.12508756286E+03 0.  0.
         23    2    1    2    0    0 -0.13757817551E+03 -0.10997584491E+03  0.39801891245E+01  0.19822290527E+03  0.90851733215E+02 0.  0.
          5    1    3    3  502    0 -0.16416129631E+02  0.17088279458E+02  0.31510882992E+02  0.39647279274E+02  0.41800000000E+01 0.  1.
         -5    1    3    3    0  502  0.15399430515E+03  0.92887565448E+02  0.87337961411E+01  0.18010024272E+03  0.41800000000E+01 0.  1.
        -11    1    4    4    0    0 -0.77882269242E+02 -0.11388610871E+03 -0.29321166820E+01  0.13800105409E+03  0.00000000000E+00 0.  1.
         11    1    4    4    0    0 -0.59695906272E+02  0.39102638089E+01  0.69123058064E+01  0.60221851186E+02  0.00000000000E+00 0. -1.
</event>
<event>
 8    1  0.3719512E-009  0.1097827E+03  0.7561462E-02  0.1260973E+00
         -2   -1    0    0    0  501 -0.00000000000E+00  0.00000000000E+00  0.55058033677E+02  0.55058033677E+02  0.00000000000E+00 0.  1.
          2   -1    0    0  501    0  0.00000000000E+00 -0.00000000000E+00 -0.25480354197E+03  0.25480354197E+03  0.00000000000E+00 0. -1.
         25    2    1    2    0    0 -0.36052543611E+02  0.30803794272E+02 -0.10834303312E+03  0.17214738324E+03  0.12509136296E+03 0.  0.
         23    2    1    2    0    0  0.36052543611E+02 -0.30803794272E+02 -0.91402475165E+02  0.13771419240E+03  0.91444664583E+02 0.  0.
          5    1    3    3  502    0  0.30325259966E+02 -0.27979527508E+02 -0.17123449339E+02  0.44868254578E+02  0.41800000000E+01 0. -1.
         -5    1    3    3    0  502 -0.66377803577E+02  0.58783321780E+02 -0.91219583784E+02  0.12727912866E+03  0.41800000000E+01 0. -1.
        -11    1    4    4    0    0 -0.23774327042E+02 -0.56926079729E+01  0.13919627565E+01  0.24485954589E+02  0.00000000000E+00 0.  1.
         11    1    4    4    0    0  0.59826870652E+02 -0.25111186299E+02 -0.92794437922E+02  0.11322823781E+03  0.00000000000E+00 0. -1.
</event>
<event>
 8    1  0.3719512E-009  0.9520808E+02  0.7561462E-02  0.1290708E+00
          1   -1    0    0  501    0  0.00000000000E+00  0.00000000000E+00  0.81284620849E+03  0.81284620849E+03  0.00000000000E+00 0. -1.
         -1   -1    0    0    0  501 -0.00000000000E+00 -0.00000000000E+00 -0.17707574496E+02  0.17707574496E+02  0.00000000000E+00 0.  1.
         25    2    1    2    0    0  0.51140146815E+01 -0.36108372343E+02  0.56169707201E+03  0.57661267974E+03  0.12509442049E+03 0.  0.
         23    2    1    2    0    0 -0.51140146815E+01  0.36108372343E+02  0.23344156198E+03  0.25394110324E+03  0.93065317679E+02 0.  0.
          5    1    3    3  502    0 -0.92310153516E+01  0.42957563777E+02  0.12497725726E+03  0.13254188456E+03  0.41800000000E+01 0.  1.
         -5    1    3    3    0  502  0.14345030033E+02 -0.79065936119E+02  0.43671981475E+03  0.44407079519E+03  0.41800000000E+01 0.  1.
        -11    1    4    4    0    0  0.20385492319E+02  0.34738236252E+02  0.22257305397E+03  0.22618814670E+03  0.00000000000E+00 0. -1.
         11    1    4    4    0    0 -0.25499507001E+02  0.13701360910E+01  0.10868508013E+02  0.27752956538E+02  0.00000000000E+00 0.  1.
</event>
<event>
 8    1  0.3719512E-009  0.9725176E+02  0.7561462E-02  0.1286184E+00
          1   -1    0    0  501    0  0.00000000000E+00  0.00000000000E+00  0.23043972351E+03  0.23043972351E+03  0.00000000000E+00 0. -1.
         -1   -1    0    0    0  501 -0.00000000000E+00 -0.00000000000E+00 -0.52940239984E+02  0.52940239984E+02  0.00000000000E+00 0.  1.
         25    2    1    2    0    0 -0.13899335578E+02  0.76027526883E+01  0.12151228147E+03  0.17510945508E+03  0.12508834212E+03 0.  0.
         23    2    1    2    0    0  0.13899335578E+02 -0.76027526883E+01  0.55987202063E+02  0.10827050841E+03  0.91306860747E+02 0.  0.
          5    1    3    3  502    0  0.51726174574E+02  0.19616451816E+02  0.76583290337E+02  0.94566775755E+02  0.41800000000E+01 0. -1.
         -5    1    3    3    0  502 -0.65625510152E+02 -0.12013699127E+02  0.44928991128E+02  0.80542679328E+02  0.41800000000E+01 0. -1.
        -11    1    4    4    0    0  0.23828522096E+01  0.31410347295E+02 -0.79519649804E+01  0.32488792666E+02  0.00000000000E+00 0.  1.
         11    1    4    4    0    0  0.11516483369E+02 -0.39013099983E+02  0.63939167043E+02  0.75781715748E+02  0.00000000000E+00 0. -1.
</event>
<event>
 8    1  0.3719512E-009  0.1411366E+03  0.7561462E-02  0.1211808E+00
          1   -1    0    0  501    0  0.00000000000E+00  0.00000000000E+00  0.20406391486E+04  0.20406391486E+04  0.00000000000E+00 0. -1.
         -1   -1    0    0    0  501 -0.00000000000E+00 -0.00000000000E+00 -0.14712881597E+02  0.14712881597E+02  0.00000000000E+00 0.  1.
         25    2    1    2    0    0 -0.16222524007E+02 -0.12404947166E+03  0.13628113991E+04  0.13742467127E+04  0.12509067145E+03 0.  0.
         23    2    1    2    0    0  0.16222524007E+02  0.12404947166E+03  0.66311486783E+03  0.68110531745E+03  0.92367114336E+02 0.  0.
          5    1    3    3  502    0 -0.20411598880E+02 -0.65379147336E+02  0.23291323637E+03  0.24281086127E+03  0.41800000000E+01 0.  1.
         -5    1    3    3    0  502  0.41890748725E+01 -0.58670324327E+02  0.11298981628E+04  0.11314358514E+04  0.41800000000E+01 0.  1.
        -11    1    4    4    0    0 -0.31402821436E+02  0.13247455163E+02  0.11899343295E+03  0.12377830726E+03  0.00000000000E+00 0.  1.
         11    1    4    4    0    0  0.47625345444E+02  0.11080201650E+03  0.54412143488E+03  0.55732701019E+03  0.00000000000E+00 0. -1.
</event>
<event>
 8    1  0.3719512E-009  0.2305422E+03  0.7561462E-02  0.1126259E+00
          1   -1    0    0  501    0  0.00000000000E+00  0.00000000000E+00  0.41469729763E+03  0.41469729763E+03  0.00000000000E+00 0. -1.
         -1   -1    0    0    0  501 -0.00000000000E+00 -0.00000000000E+00 -0.14129478850E+03  0.14129478850E+03  0.00000000000E+00 0.  1.
         25    2    1    2    0    0 -0.10957071866E+03 -0.17839730748E+03  0.78944020607E+02  0.25634138473E+03  0.12508958961E+03 0.  0.
         23    2    1    2    0    0  0.10957071866E+03  0.17839730748E+03  0.19445848853E+03  0.29965070140E+03  0.90250193258E+02 0.  0.
          5    1    3    3  502    0  0.13818915692E+02 -0.61198555640E+02 -0.10965015945E+02  0.63827342245E+02  0.41800000000E+01 0.  1.
         -5    1    3    3    0  502 -0.12338963436E+03 -0.11719875184E+03  0.89909036552E+02  0.19251404249E+03  0.41800000000E+01 0.  1.
        -11    1    4    4    0    0  0.12409539510E+03  0.14085553879E+03  0.16100013513E+03  0.24730748756E+03  0.00000000000E+00 0. -1.
         11    1    4    4    0    0 -0.14524676442E+02  0.37541768695E+02  0.33458353401E+02  0.52343213837E+02  0.00000000000E+00 0.  1.
</event>
<event>
 8    1  0.3719512E-009  0.1072199E+03  0.7561462E-02  0.1265806E+00
         -2   -1    0    0    0  501 -0.00000000000E+00  0.00000000000E+00  0.24581653983E+03  0.24581653983E+03  0.00000000000E+00 0.  1.
          2   -1    0    0  501    0  0.00000000000E+00 -0.00000000000E+00 -0.76143545074E+02  0.76143545074E+02  0.00000000000E+00 0. -1.
         25    2    1    2    0    0 -0.47185705604E+02 -0.58119868601E+02  0.52394565754E+02  0.15490951107E+03  0.12508939268E+03 0.  0.
         23    2    1    2    0    0  0.47185705604E+02  0.58119868601E+02  0.11727842900E+03  0.16705057383E+03  0.92451362179E+02 0.  0.
          5    1    3    3  502    0 -0.84118917217E+02 -0.21427686621E+02  0.96896686355E+01  0.87444268343E+02  0.41800000000E+01 0. -1.
         -5    1    3    3    0  502  0.36933211613E+02 -0.36692181980E+02  0.42704897118E+02  0.67465242728E+02  0.41800000000E+01 0. -1.
        -11    1    4    4    0    0  0.36079259456E+02  0.38523566892E+02  0.13061332901E+03  0.14087448273E+03  0.00000000000E+00 0.  1.
         11    1    4    4    0    0  0.11106446147E+02  0.19596301709E+02 -0.13334900015E+02  0.26176091097E+02  0.00000000000E+00 0. -1.
</event>
<event>
 8    1  0.3719512E-009  0.1149759E+03  0.7561462E-02  0.1251623E+00
         -2   -1    0    0    0  501 -0.00000000000E+00  0.00000000000E+00  0.33715165298E+02  0.33715165298E+02  0.00000000000E+00 0.  1.
          2   -1    0    0  501    0  0.00000000000E+00 -0.00000000000E+00 -0.43727573331E+03  0.43727573331E+03  0.00000000000E+00 0. -1.
         25    2    1    2    0    0 -0.46821444070E+02  0.21271157996E+02 -0.23029213302E+03  0.26707053385E+03  0.12508994257E+03 0.  0.
         23    2    1    2    0    0  0.46821444070E+02 -0.21271157996E+02 -0.17326843499E+03  0.20392036476E+03  0.94429099393E+02 0.  0.
          5    1    3    3  502    0 -0.38967290810E+02  0.66676501610E+02 -0.19206709267E+03  0.20705421055E+03  0.41800000000E+01 0.  1.
         -5    1    3    3    0  502 -0.78541532606E+01 -0.45405343614E+02 -0.38225040346E+02  0.60016323293E+02  0.41800000000E+01 0.  1.
        -11    1    4    4    0    0 -0.28629964870E+02 -0.80558962624E+01 -0.35720050862E+02  0.46481118603E+02  0.00000000000E+00 0. -1.
         11    1    4    4    0    0  0.75451408940E+02 -0.13215261733E+02 -0.13754838413E+03  0.15743924616E+03  0.00000000000E+00 0.  1.
</event>
<event>
 8    1  0.3719512E-009  0.1083974E+03  0.7561462E-02  0.1263567E+00
          1   -1    0    0  501    0  0.00000000000E+00  0.00000000000E+00  0.12268200120E+04  0.12268200120E+04  0.00000000000E+00 0. -1.
         -1   -1    0    0    0  501 -0.00000000000E+00 -0.00000000000E+00 -0.12487223075E+02  0.12487223075E+02  0.00000000000E+00 0.  1.
         25    2    1    2    0    0 -0.50182224923E+02  0.68403197213E+01  0.85394117753E+03  0.86453886606E+03  0.12508745177E+03 0.  0.
         23    2    1    2    0    0  0.50182224923E+02 -0.68403197213E+01  0.36039161143E+03  0.37476836904E+03  0.89466033623E+02 0.  0.
          5    1    3    3  502    0  0.35366477216E+02  0.26634845868E+02  0.37168363652E+03  0.37433461071E+03  0.41800000000E+01 0.  1.
         -5    1    3    3    0  502 -0.85548702139E+02 -0.19794526147E+02  0.48225754101E+03  0.49020425535E+03  0.41800000000E+01 0.  1.
        -11    1    4    4    0    0 -0.65877715351E+00  0.24619358733E+02  0.29089847099E+02  0.38115167795E+02  0.00000000000E+00 0.  1.
         11    1    4    4    0    0  0.50841002077E+02 -0.31459678454E+02  0.33130176433E+03  0.33665320124E+03  0.00000000000E+00 0. -1.
</event>
<event>
 8    1  0.3719512E-009  0.1328108E+03  0.7561462E-02  0.1223344E+00
         -3   -1    0    0    0  501 -0.00000000000E+00  0.00000000000E+00  0.64775474445E+03  0.64775474445E+03  0.00000000000E+00 0.  1.
          3   -1    0    0  501    0  0.00000000000E+00 -0.00000000000E+00 -0.35824851485E+02  0.35824851485E+02  0.00000000000E+00 0. -1.
         25    2    1    2    0    0  0.55756950727E+02  0.72769350192E+02  0.20455752896E+03  0.25670250374E+03  0.12509267321E+03 0.  0.
         23    2    1    2    0    0 -0.55756950727E+02 -0.72769350192E+02  0.40737236400E+03  0.42687709219E+03  0.88699453237E+02 0.  0.
          5    1    3    3  502    0  0.66216601803E+02 -0.37247441021E+01  0.14364678412E+03  0.15827312805E+03  0.41800000000E+01 0.  1.
         -5    1    3    3    0  502 -0.10459651076E+02  0.76494094295E+02  0.60910744836E+02  0.98429375692E+02  0.41800000000E+01 0.  1.
        -11    1    4    4    0    0  0.20589717174E+02 -0.22177986696E+02  0.54773814393E+02  0.62577714007E+02  0.00000000000E+00 0. -1.
         11    1    4    4    0    0 -0.76346667902E+02 -0.50591363497E+02  0.35259854961E+03  0.36429937819E+03  0.00000000000E+00 0.  1.
</event>
<event>
 8    1  0.3719512E-009  0.1053934E+03  0.7561462E-02  0.1269346E+00
          1   -1    0    0  501    0  0.00000000000E+00  0.00000000000E+00  0.62998143448E+02  0.62998143448E+02  0.00000000000E+00 0. -1.
         -1   -1    0    0    0  501 -0.00000000000E+00 -0.00000000000E+00 -0.22807014963E+03  0.22807014963E+03  0.00000000000E+00 0.  1.
         25    2    1    2    0    0 -0.15781922205E+02  0.98991673317E+01 -0.35399040354E+02  0.13132673964E+03  0.12508620189E+03 0.  0.
         23    2    1    2    0    0  0.15781922205E+02 -0.98991673317E+01 -0.12967296583E+03  0.15974155344E+03  0.91406910273E+02 0.  0.
          5    1    3    3  502    0  0.22957879627E+02 -0.48328777361E+02 -0.19847871335E+01  0.53704252515E+02  0.41800000000E+01 0. -1.
         -5    1    3    3    0  502 -0.38739801832E+02  0.58227944693E+02 -0.33414253220E+02  0.77622487124E+02  0.41800000000E+01 0. -1.
        -11    1    4    4    0    0  0.44723893554E+02 -0.28145638578E+02 -0.48800936367E+02  0.71930070318E+02  0.00000000000E+00 0. -1.
         11    1    4    4    0    0 -0.28941971350E+02  0.18246471247E+02 -0.80872029459E+02  0.87811483118E+02  0.00000000000E+00 0.  1.
</event>
<event>
 8    1  0.3719512E-009  0.1401301E+03  0.7561462E-02  0.1213154E+00
          2   -1    0    0  501    0  0.00000000000E+00  0.00000000000E+00  0.47711710222E+03  0.47711710222E+03  0.00000000000E+00 0.  1.
         -2   -1    0    0    0  501 -0.00000000000E+00 -0.00000000000E+00 -0.63400405484E+02  0.63400405484E+02  0.00000000000E+00 0. -1.
         25    2    1    2    0    0 -0.45794335014E+02  0.12561107781E+03  0.18157046145E+03  0.25785793970E+03  0.12509044970E+03 0.  0.
         23    2    1    2    0    0  0.45794335014E+02 -0.12561107781E+03  0.23214623529E+03  0.28265956801E+03  0.90162591118E+02 0.  0.
          5    1    3    3  502    0 -0.47379501017E+02  0.60095770508E+02  0.14038582171E+02  0.77915806733E+02  0.41800000000E+01 0.  1.
         -5    1    3    3    0  502  0.15851660028E+01  0.65515307307E+02  0.16753187928E+03  0.17994213297E+03  0.41800000000E+01 0.  1.
        -11    1    4    4    0    0  0.39491048773E+02 -0.58719013711E+02  0.19144539347E+03  0.20410488525E+03  0.00000000000E+00 0.  1.
         11    1    4    4    0    0  0.63032862410E+01 -0.66892064104E+02  0.40700841825E+02  0.78554682755E+02  0.00000000000E+00 0. -1.
</event>
<event>
 8    1  0.3719512E-009  0.1068490E+03  0.7561462E-02  0.1266519E+00
         -1   -1    0    0    0  501 -0.00000000000E+00  0.00000000000E+00  0.54044920097E+02  0.54044920097E+02  0.00000000000E+00 0.  1.
          1   -1    0    0  501    0  0.00000000000E+00 -0.00000000000E+00 -0.23602182753E+03  0.23602182753E+03  0.00000000000E+00 0. -1.
         25    2    1    2    0    0 -0.10718930530E+02  0.28510904336E+02 -0.11687602541E+03  0.17388647915E+03  0.12509490469E+03 0.  0.
         23    2    1    2    0    0  0.10718930530E+02 -0.28510904336E+02 -0.65100882022E+02  0.11618026847E+03  0.91279585915E+02 0.  0.
          5    1    3    3  502    0  0.51644992893E+02  0.26305086894E+02 -0.86882254827E+02  0.10452349732E+03  0.41800000000E+01 0. -1.
         -5    1    3    3    0  502 -0.62363923422E+02  0.22058174419E+01 -0.29993770583E+02  0.69362981835E+02  0.41800000000E+01 0. -1.
        -11    1    4    4    0    0 -0.34753845702E+02 -0.32260894278E+02 -0.47946644493E+02  0.67434974670E+02  0.00000000000E+00 0. -1.
         11    1    4    4    0    0  0.45472776231E+02  0.37499899419E+01 -0.17154237529E+02  0.48745293803E+02  0.00000000000E+00 0.  1.
</event>
<event>
 8    1  0.3719512E-009  0.1103343E+03  0.7561462E-02  0.1259952E+00
         -2   -1    0    0    0  501 -0.00000000000E+00  0.00000000000E+00  0.38918620805E+03  0.38918620805E+03  0.00000000000E+00 0.  1.
          2   -1    0    0  501    0  0.00000000000E+00 -0.00000000000E+00 -0.72410115081E+02  0.72410115081E+02  0.00000000000E+00 0. -1.
         25    2    1    2    0    0 -0.64674419036E+02 -0.57279812376E+02  0.37891782733E+02  0.15667079476E+03  0.12508474467E+03 0.  0.
         23    2    1    2    0    0  0.64674419036E+02  0.57279812376E+02  0.27888431024E+03  0.30492552837E+03  0.87973643615E+02 0.  0.
          5    1    3    3  502    0 -0.32346063627E+02  0.15016722761E+02  0.63825897825E+02  0.73232420606E+02  0.41800000000E+01 0. -1.
         -5    1    3    3    0  502 -0.32328355409E+02 -0.72296535138E+02 -0.25934115092E+02  0.83438374157E+02  0.41800000000E+01 0. -1.
        -11    1    4    4    0    0 -0.30447409915E+01  0.33568992800E+02  0.27498490161E+02  0.43500743517E+02  0.00000000000E+00 0. -1.
         11    1    4    4    0    0  0.67719160027E+02  0.23710819576E+02  0.25138582008E+03  0.26142478485E+03  0.00000000000E+00 0.  1.
</event>
<event>
 8    1  0.3719512E-009  0.1027079E+03  0.7561462E-02  0.1274703E+00
          1   -1    0    0  501    0  0.00000000000E+00  0.00000000000E+00  0.81378630652E+03  0.81378630652E+03  0.00000000000E+00 0. -1.
         -1   -1    0    0    0  501 -0.00000000000E+00 -0.00000000000E+00 -0.16837889536E+02  0.16837889536E+02  0.00000000000E+00 0.  1.
         25    2    1    2    0    0  0.43516984122E+02 -0.54039473422E+01  0.44280852498E+03  0.46222458016E+03  0.12509693103E+03 0.  0.
         23    2    1    2    0    0 -0.43516984122E+02  0.54039473422E+01  0.35413989201E+03  0.36839961590E+03  0.91543887461E+02 0.  0.
          5    1    3    3  502    0 -0.43030401294E+01 -0.45483585883E+02  0.66711073194E+02  0.80963648792E+02  0.41800000000E+01 0. -1.
         -5    1    3    3    0  502  0.47820024252E+02  0.40079638540E+02  0.37609745179E+03  0.38126093137E+03  0.41800000000E+01 0. -1.
        -11    1    4    4    0    0 -0.71187192044E+01  0.43637772039E+02  0.10872451314E+03  0.11737099756E+03  0.00000000000E+00 0.  1.
         11    1    4    4    0    0 -0.36398264918E+02 -0.38233824696E+02  0.24541537887E+03  0.25102861834E+03  0.00000000000E+00 0. -1.
</event>
<event>
 8    1  0.3719512E-009  0.1781556E+03  0.7561462E-02  0.1169600E+00
         -1   -1    0    0    0  501 -0.00000000000E+00  0.00000000000E+00  0.58675623861E+02  0.58675623861E+02  0.00000000000E+00 0.  1.
          1   -1    0    0  501    0  0.00000000000E+00 -0.00000000000E+00 -0.64061168253E+03  0.64061168253E+03  0.00000000000E+00 0. -1.
         25    2    1    2    0    0 -0.12743996978E+03  0.93800497634E+02 -0.35610157558E+03  0.40925977203E+03  0.12508297095E+03 0.  0.
         23    2    1    2    0    0  0.12743996978E+03 -0.93800497634E+02 -0.22583448309E+03  0.29002753436E+03  0.89862548816E+02 0.  0.
          5    1    3    3  502    0 -0.11103679728E+03  0.23981718561E+02 -0.29059334236E+03  0.31203566495E+03  0.41800000000E+01 0.  1.
         -5    1    3    3    0  502 -0.16403172500E+02  0.69818779072E+02 -0.65508233217E+02  0.97224107085E+02  0.41800000000E+01 0.  1.
        -11    1    4    4    0    0  0.25770536910E+02 -0.57202944135E+02 -0.13499220562E+03  0.14885964184E+03  0.00000000000E+00 0.  1.
         11    1    4    4    0    0  0.10166943287E+03 -0.36597553499E+02 -0.90842277464E+02  0.14116789251E+03  0.00000000000E+00 0. -1.
</event>
<event>
 8    1  0.3719512E-009  0.1102783E+03  0.7561462E-02  0.1260055E+00
         -2   -1    0    0    0  501 -0.00000000000E+00  0.00000000000E+00  0.12777976245E+03  0.12777976245E+03  0.00000000000E+00 0.  1.
          2   -1    0    0  501    0  0.00000000000E+00 -0.00000000000E+00 -0.14665324767E+03  0.14665324767E+03  0.00000000000E+00 0. -1.
         25    2    1    2    0    0 -0.61935760153E+02 -0.17333717252E+02 -0.62551027479E+02  0.15393766784E+03  0.12509068072E+03 0.  0.
         23    2    1    2    0    0  0.61935760153E+02  0.17333717252E+02  0.43677542259E+02  0.12049534228E+03  0.92059240023E+02 0.  0.
          5    1    3    3  502    0 -0.88373121314E+02  0.31802912646E+01 -0.68115095859E+01  0.88790719595E+02  0.41800000000E+01 0.  1.
         -5    1    3    3    0  502  0.26437361162E+02 -0.20514008517E+02 -0.55739517893E+02  0.65146948244E+02  0.41800000000E+01 0.  1.
        -11    1    4    4    0    0 -0.17167245570E+02  0.69597790069E+01  0.35823163935E+02  0.40329293555E+02  0.00000000000E+00 0.  1.
         11    1    4    4    0    0  0.79103005723E+02  0.10373938245E+02  0.78543783237E+01  0.80166048724E+02  0.00000000000E+00 0. -1.
</event>
<event>
 8    1  0.3719512E-009  0.1312334E+03  0.7561462E-02  0.1225637E+00
         -2   -1    0    0    0  501 -0.00000000000E+00  0.00000000000E+00  0.28199902127E+02  0.28199902127E+02  0.00000000000E+00 0. -1.
          2   -1    0    0  501    0  0.00000000000E+00 -0.00000000000E+00 -0.68344681775E+03  0.68344681775E+03  0.00000000000E+00 0.  1.
         25    2    1    2    0    0  0.74887557401E+02  0.77348943239E+01 -0.24573732600E+03  0.28583608393E+03  0.12508980232E+03 0.  0.
         23    2    1    2    0    0 -0.74887557401E+02 -0.77348943239E+01 -0.40950958963E+03  0.42581063595E+03  0.89155027049E+02 0.  0.
          5    1    3    3  502    0  0.30007321532E+01 -0.51977208013E+02 -0.95699971201E+02  0.10902564576E+03  0.41800000000E+01 0. -1.
         -5    1    3    3    0  502  0.71886825248E+02  0.59712102337E+02 -0.15003735480E+03  0.17681043817E+03  0.41800000000E+01 0. -1.
        -11    1    4    4    0    0 -0.11037383597E+02  0.37076387560E+02 -0.13562534570E+03  0.14103445235E+03  0.00000000000E+00 0. -1.
         11    1    4    4    0    0 -0.63850173804E+02 -0.44811281884E+02 -0.27388424392E+03  0.28477618360E+03  0.00000000000E+00 0.  1.
</event>
<event>
 8    1  0.3719512E-009  0.9103779E+02  0.7561462E-02  0.1300358E+00
          1   -1    0    0  501    0  0.00000000000E+00  0.00000000000E+00  0.15853292737E+03  0.15853292737E+03  0.00000000000E+00 0. -1.
         -1   -1    0    0    0  501 -0.00000000000E+00 -0.00000000000E+00 -0.10577872083E+03  0.10577872083E+03  0.00000000000E+00 0.  1.
         25    2    1    2    0    0 -0.43859573044E+02  0.86937943930E+01  0.85477815533E+02  0.15796672475E+03  0.12509110668E+03 0.  0.
         23    2    1    2    0    0  0.43859573044E+02 -0.86937943930E+01 -0.32723608992E+02  0.10634492345E+03  0.90769840532E+02 0.  0.
          5    1    3    3  502    0 -0.33650545974E+02  0.64601328643E+02  0.31481446307E+02  0.79462222272E+02  0.41800000000E+01 0.  1.
         -5    1    3    3    0  502 -0.10209027069E+02 -0.55907534250E+02  0.53996369226E+02  0.78504502477E+02  0.41800000000E+01 0.  1.
        -11    1    4    4    0    0  0.28626858169E+02  0.78078442675E+01  0.28493793793E+02  0.41138251366E+02  0.00000000000E+00 0. -1.
         11    1    4    4    0    0  0.15232714875E+02 -0.16501638660E+02 -0.61217402785E+02  0.65206672087E+02  0.00000000000E+00 0.  1.
</event>
<event>
 8    1  0.3719512E-009  0.1428425E+03  0.7561462E-02  0.1209555E+00
          2   -1    0    0  501    0  0.00000000000E+00  0.00000000000E+00  0.39837857860E+03  0.39837857860E+03  0.00000000000E+00 0. -1.
         -2   -1    0    0    0  501 -0.00000000000E+00 -0.00000000000E+00 -0.66446596098E+02  0.66446596098E+02  0.00000000000E+00 0.  1.
         25    2    1    2    0    0  0.10721313754E+03 -0.48989886559E+02  0.13714305351E+03  0.21988724563E+03  0.12509003885E+03 0.  0.
         23    2    1    2    0    0 -0.10721313754E+03  0.48989886559E+02  0.19478892900E+03  0.24493792907E+03  0.90317198753E+02 0.  0.
          5    1    3    3  502    0  0.41250827581E+02  0.39561123061E+02  0.25230044154E+02  0.62615818784E+02  0.41800000000E+01 0.  1.
         -5    1    3    3    0  502  0.65962309959E+02 -0.88551009619E+02  0.11191300935E+03  0.15727142685E+03  0.41800000000E+01 0.  1.
        -11    1    4    4    0    0 -0.43339286532E+02  0.20305111427E+02  0.12209846332E+02  0.49393032450E+02  0.00000000000E+00 0.  1.
         11    1    4    4    0    0 -0.63873851008E+02  0.28684775131E+02  0.18257908266E+03  0.19554489662E+03  0.00000000000E+00 0. -1.
</event>
<event>
 8    1  0.3719512E-009  0.1111883E+03  0.7561462E-02  0.1258385E+00
          3   -1    0    0  501    0  0.00000000000E+00  0.00000000000E+00  0.84978914039E+03  0.84978914039E+03  0.00000000000E+00 0. -1.
         -3   -1    0    0    0  501 -0.00000000000E+00 -0.00000000000E+00 -0.15584971245E+02  0.15584971245E+02  0.00000000000E+00 0.  1.
         25    2    1    2    0    0 -0.27531894394E+02  0.25502474785E+02  0.41743797782E+03  0.43739117913E+03  0.12509275286E+03 0.  0.
         23    2    1    2    0    0  0.27531894394E+02 -0.25502474785E+02  0.41676619132E+03  0.42798293250E+03  0.89816206008E+02 0.  0.
          5    1    3    3  502    0  0.20284554874E+02 -0.39338881241E+02  0.93094663611E+02  0.10316539893E+03  0.41800000000E+01 0. -1.
         -5    1    3    3    0  502 -0.47816449269E+02  0.64841356025E+02  0.32434331421E+03  0.33422578019E+03  0.41800000000E+01 0. -1.
        -11    1    4    4    0    0 -0.21632247916E+02  0.20581780891E+02  0.13690592181E+03  0.14012421376E+03  0.00000000000E+00 0.  1.
         11    1    4    4    0    0  0.49164142310E+02 -0.46084255676E+02  0.27986026951E+03  0.28785871875E+03  0.00000000000E+00 0. -1.
</event>
<event>
 8    1  0.3719512E-009  0.9650482E+02  0.7561462E-02  0.1287822E+00
         -1   -1    0    0    0  501 -0.00000000000E+00  0.00000000000E+00  0.15487400527E+03  0.15487400527E+03  0.00000000000E+00 0.  1.
          1   -1    0    0  501    0  0.00000000000E+00 -0.00000000000E+00 -0.89031960960E+02  0.89031960960E+02  0.00000000000E+00 0. -1.
         25    2    1    2    0    0  0.20111190408E+01  0.98043570537E+01 -0.76820784444E+00  0.12549561337E+03  0.12509352027E+03 0.  0.
         23    2    1    2    0    0 -0.20111190408E+01 -0.98043570537E+01  0.66610252156E+02  0.11841035286E+03  0.97385399090E+02 0.  0.
          5    1    3    3  502    0 -0.59340662772E+02  0.16784353373E+02 -0.10956372007E+02  0.62773746614E+02  0.41800000000E+01 0.  1.
         -5    1    3    3    0  502  0.61351781813E+02 -0.69799963196E+01  0.10188164163E+02  0.62721866755E+02  0.41800000000E+01 0.  1.
        -11    1    4    4    0    0 -0.30815804680E+02 -0.22171707024E+02 -0.68181856128E+01  0.38570533642E+02  0.00000000000E+00 0. -1.
         11    1    4    4    0    0  0.28804685639E+02  0.12367349970E+02  0.73428437769E+02  0.79839819221E+02  0.00000000000E+00 0.  1.
</event>
<event>
 8    1  0.3719512E-009  0.1160247E+03  0.7561462E-02  0.1249803E+00
         -1   -1    0    0    0  501 -0.00000000000E+00  0.00000000000E+00  0.25228985121E+02  0.25228985121E+02  0.00000000000E+00 0.  1.
          1   -1    0    0  501    0  0.00000000000E+00 -0.00000000000E+00 -0.62985628087E+03  0.62985628087E+03  0.00000000000E+00 0. -1.
         25    2    1    2    0    0 -0.55622538581E+02 -0.32208483734E+02 -0.36718223346E+03  0.39319501457E+03  0.12509306012E+03 0.  0.
         23    2    1    2    0    0  0.55622538581E+02  0.32208483734E+02 -0.23744506228E+03  0.26189025141E+03  0.89861521027E+02 0.  0.
          5    1    3    3  502    0 -0.86249049660E+01  0.45776791947E+02 -0.90252910542E+02  0.10165118754E+03  0.41800000000E+01 0. -1.
         -5    1    3    3    0  502 -0.46997633615E+02 -0.77985275681E+02 -0.27692932292E+03  0.29154382704E+03  0.41800000000E+01 0. -1.
        -11    1    4    4    0    0  0.53922392266E+02 -0.74522269657E+01 -0.64275339228E+02  0.84228732077E+02  0.00000000000E+00 0.  1.
         11    1    4    4    0    0  0.17001463149E+01  0.39660710700E+02 -0.17316972305E+03  0.17766151934E+03  0.00000000000E+00 0. -1.
</event>
<event>
 8    1  0.3719512E-009  0.9917198E+02  0.7561462E-02  0.1282047E+00
         -2   -1    0    0    0  501 -0.00000000000E+00  0.00000000000E+00  0.65917934422E+02  0.65917934422E+02  0.00000000000E+00 0.  1.
          2   -1    0    0  501    0  0.00000000000E+00 -0.00000000000E+00 -0.33942141216E+03  0.33942141216E+03  0.00000000000E+00 0. -1.
         25    2    1    2    0    0  0.61795392857E+02  0.54165402227E+02 -0.60744478767E+02  0.16152351999E+03  0.12508954565E+03 0.  0.
         23    2    1    2    0    0 -0.61795392857E+02 -0.54165402227E+02 -0.21275899897E+03  0.24381582660E+03  0.86181229275E+02 0.  0.
          5    1    3    3  502    0  0.50735416375E+02 -0.19080987555E+01  0.26282311191E+02  0.57323255290E+02  0.41800000000E+01 0.  1.
         -5    1    3    3    0  502  0.11059976483E+02  0.56073500982E+02 -0.87026789958E+02  0.10420026470E+03  0.41800000000E+01 0.  1.
        -11    1    4    4    0    0 -0.58779722105E+02 -0.30469912183E+02 -0.20949400591E+03  0.21970710000E+03  0.00000000000E+00 0. -1.
         11    1    4    4    0    0 -0.30156707524E+01 -0.23695490044E+02 -0.32649930652E+01  0.24108726599E+02  0.00000000000E+00 0.  1.
</event>
<event>
 8    1  0.3719512E-009  0.1788021E+03  0.7561462E-02  0.1168967E+00
         -2   -1    0    0    0  501 -0.00000000000E+00  0.00000000000E+00  0.10244083990E+03  0.10244083990E+03  0.00000000000E+00 0.  1.
          2   -1    0    0  501    0  0.00000000000E+00 -0.00000000000E+00 -0.32564980106E+03  0.32564980106E+03  0.00000000000E+00 0. -1.
         25    2    1    2    0    0  0.13927321959E+03  0.37902040179E+02 -0.88691178992E+02  0.21058762291E+03  0.12508967722E+03 0.  0.
         23    2    1    2    0    0 -0.13927321959E+03 -0.37902040179E+02 -0.13451778216E+03  0.21750301805E+03  0.91536521674E+02 0.  0.
          5    1    3    3  502    0  0.23009379803E+02 -0.41351288733E+02 -0.75344460722E+01  0.48099905576E+02  0.41800000000E+01 0.  1.
         -5    1    3    3    0  502  0.11626383979E+03  0.79253328912E+02 -0.81156732919E+02  0.16248771733E+03  0.41800000000E+01 0.  1.
        -11    1    4    4    0    0 -0.11628734174E+03 -0.65458278018E+02 -0.11743570825E+03  0.17776016872E+03  0.00000000000E+00 0.  1.
         11    1    4    4    0    0 -0.22985877847E+02  0.27556237839E+02 -0.17082073916E+02  0.39742849338E+02  0.00000000000E+00 0. -1.
</event>
<event>
 8    1  0.3719512E-009  0.1041924E+03  0.7561462E-02  0.1271719E+00
          2   -1    0    0  501    0  0.00000000000E+00  0.00000000000E+00  0.25635530955E+03  0.25635530955E+03  0.00000000000E+00 0. -1.
         -2   -1    0    0    0  501 -0.00000000000E+00 -0.00000000000E+00 -0.67450210529E+02  0.67450210529E+02  0.00000000000E+00 0.  1.
         25    2    1    2    0    0 -0.15744971293E+02 -0.74452283944E+02  0.98768942043E+02  0.17661112205E+03  0.12508052531E+03 0.  0.
         23    2    1    2    0    0  0.15744971293E+02  0.74452283944E+02  0.90136156980E+02  0.14719439803E+03  0.88037590334E+02 0.  0.
          5    1    3    3  502    0  0.44256096265E+02 -0.50956407728E+02  0.88263318812E+02  0.11118922337E+03  0.41800000000E+01 0.  1.
         -5    1    3    3    0  502 -0.60001067559E+02 -0.23495876217E+02  0.10505623231E+02  0.65421898680E+02  0.41800000000E+01 0.  1.
        -11    1    4    4    0    0  0.55001081691E+01  0.35022300930E+02 -0.11844263618E+02  0.37377791975E+02  0.00000000000E+00 0.  1.
         11    1    4    4    0    0  0.10244863124E+02  0.39429983014E+02  0.10198042060E+03  0.10981660606E+03  0.00000000000E+00 0. -1.
</event>
<event>
 8    1  0.3719512E-009  0.1347992E+03  0.7561462E-02  0.1220503E+00
          2   -1    0    0  501    0  0.00000000000E+00  0.00000000000E+00  0.47032748710E+03  0.47032748710E+03  0.00000000000E+00 0. -1.
         -2   -1    0    0    0  501 -0.00000000000E+00 -0.00000000000E+00 -0.45560757150E+02  0.45560757150E+02  0.00000000000E+00 0.  1.
         25    2    1    2    0    0 -0.14723180469E+01 -0.98606940703E+02  0.22570165092E+03  0.27624973240E+03  0.12508870031E+03 0.  0.
         23    2    1    2    0    0  0.14723180469E+01  0.98606940703E+02  0.19906507902E+03  0.23963851185E+03  0.89856631353E+02 0.  0.
          5    1    3    3  502    0  0.17014798130E+02 -0.11242909470E+03  0.11024378157E+03  0.15843285160E+03  0.41800000000E+01 0. -1.
         -5    1    3    3    0  502 -0.18487116177E+02  0.13822154001E+02  0.11545786935E+03  0.11781688080E+03  0.41800000000E+01 0. -1.
        -11    1    4    4    0    0  0.43907379018E+02  0.63911391562E+02  0.10148775135E+03  0.12771956615E+03  0.00000000000E+00 0.  1.
         11    1    4    4    0    0 -0.42435060971E+02  0.34695549141E+02  0.97577327669E+02  0.11191894569E+03  0.00000000000E+00 0. -1.
</event>
<event>
 8    1  0.3719512E-009  0.1182468E+03  0.7561462E-02  0.1246018E+00
         -2   -1    0    0    0  501 -0.00000000000E+00  0.00000000000E+00  0.45590598832E+02  0.45590598832E+02  0.00000000000E+00 0. -1.
          2   -1    0    0  501    0  0.00000000000E+00 -0.00000000000E+00 -0.37988191397E+03  0.37988191397E+03  0.00000000000E+00 0.  1.
         25    2    1    2    0    0  0.35501142478E+00 -0.65984581448E+02 -0.24020167219E+03  0.27874283253E+03  0.12508649944E+03 0.  0.
         23    2    1    2    0    0 -0.35501142478E+00  0.65984581448E+02 -0.94089642948E+02  0.14672968027E+03  0.91228543451E+02 0.  0.
          5    1    3    3  502    0  0.52298912365E+02 -0.45261564036E+02 -0.65836428795E+02  0.95580820095E+02  0.41800000000E+01 0. -1.
         -5    1    3    3    0  502 -0.51943900941E+02 -0.20723017412E+02 -0.17436524340E+03  0.18316201244E+03  0.41800000000E+01 0. -1.
        -11    1    4    4    0    0  0.39688728792E+01  0.88300916724E+02 -0.64523575867E+02  0.10943534936E+03  0.00000000000E+00 0.  1.
         11    1    4    4    0    0 -0.43238843040E+01 -0.22316335276E+02 -0.29566067081E+02  0.37294330914E+02  0.00000000000E+00 0. -1.
</event>
<event>
 8    1  0.3719512E-009  0.1308576E+03  0.7561462E-02  0.1226189E+00
         -2   -1    0    0    0  501 -0.00000000000E+00  0.00000000000E+00  0.11859186172E+03  0.11859186172E+03  0.00000000000E+00 0.  1.
          2   -1    0    0  501    0  0.00000000000E+00 -0.00000000000E+00 -0.18408922891E+03  0.18408922891E+03  0.00000000000E+00 0. -1.
         25    2    1    2    0    0 -0.94486072060E+02  0.83235378092E+01 -0.18287404472E+01  0.15699187084E+03  0.12508478774E+03 0.  0.
         23    2    1    2    0    0  0.94486072060E+02 -0.83235378092E+01 -0.63668626740E+02  0.14568921978E+03  0.90414355247E+02 0.  0.
          5    1    3    3  502    0 -0.90146589561E+01 -0.43614911087E+02  0.27713308831E+02  0.52621520613E+02  0.41800000000E+01 0.  1.
         -5    1    3    3    0  502 -0.85471413104E+02  0.51938448897E+02 -0.29542049278E+02  0.10437035023E+03  0.41800000000E+01 0.  1.
        -11    1    4    4    0    0  0.10048800051E+03  0.66913679404E+01 -0.24987223245E+02  0.10376403026E+03  0.00000000000E+00 0.  1.
         11    1    4    4    0    0 -0.60019284487E+01 -0.15014905750E+02 -0.38681403495E+02  0.41925189518E+02  0.00000000000E+00 0. -1.
</event>
<event>
 8    1  0.3719512E-009  0.3726389E+02  0.7561462E-02  0.1529369E+00
          1   -1    0    0  501    0  0.00000000000E+00  0.00000000000E+00  0.44743526698E+02  0.44743526698E+02  0.00000000000E+00 0. -1.
         -1   -1    0    0    0  501 -0.00000000000E+00 -0.00000000000E+00 -0.28949717050E+03  0.28949717050E+03  0.00000000000E+00 0.  1.
         25    2    1    2    0    0  0.33945383860E+01 -0.88090054840E+01 -0.89120013024E+02  0.15387537686E+03  0.12508450509E+03 0.  0.
         23    2    1    2    0    0 -0.33945383860E+01  0.88090054840E+01 -0.15563363078E+03  0.18036532034E+03  0.90668077536E+02 0.  0.
          5    1    3    3  502    0  0.43757350454E+01 -0.15297244530E+02 -0.12046304934E+03  0.12158113095E+03  0.41800000000E+01 0.  1.
         -5    1    3    3    0  502 -0.98119665942E+00  0.64882390458E+01  0.31343036318E+02  0.32294245903E+02  0.41800000000E+01 0.  1.
        -11    1    4    4    0    0 -0.75082237786E+01 -0.19913134413E+02  0.76759899172E+00  0.21295435067E+02  0.00000000000E+00 0. -1.
         11    1    4    4    0    0  0.41136853926E+01  0.28722139897E+02 -0.15640122977E+03  0.15906988528E+03  0.00000000000E+00 0.  1.
</event>
<event>
 8    1  0.3719512E-009  0.1224617E+03  0.7561462E-02  0.1239090E+00
         -2   -1    0    0    0  501 -0.00000000000E+00  0.00000000000E+00  0.76567853095E+02  0.76567853095E+02  0.00000000000E+00 0.  1.
          2   -1    0    0  501    0  0.00000000000E+00 -0.00000000000E+00 -0.26644834099E+03  0.26644834099E+03  0.00000000000E+00 0. -1.
         25    2    1    2    0    0 -0.52294272168E+02 -0.49278680434E+02 -0.17366683136E+03  0.22576471101E+03  0.12508579926E+03 0.  0.
         23    2    1    2    0    0  0.52294272168E+02  0.49278680434E+02 -0.16213656533E+02  0.11725148307E+03  0.91224713634E+02 0.  0.
          5    1    3    3  502    0  0.41236890824E+02 -0.11978112525E+02 -0.45228567812E+02  0.62506416398E+02  0.41800000000E+01 0.  1.
         -5    1    3    3    0  502 -0.93531162992E+02 -0.37300567909E+02 -0.12843826355E+03  0.16325829462E+03  0.41800000000E+01 0.  1.
        -11    1    4    4    0    0  0.50850668015E+02 -0.84059968149E+00  0.20782273546E+02  0.54939966684E+02  0.00000000000E+00 0.  1.
         11    1    4    4    0    0  0.14436041525E+01  0.50119280116E+02 -0.36995930079E+02  0.62311516389E+02  0.00000000000E+00 0. -1.
</event>
<event>
 8    1  0.3719512E-009  0.2299522E+03  0.7561462E-02  0.1126673E+00
         -1   -1    0    0    0  501 -0.00000000000E+00  0.00000000000E+00  0.56204968006E+03  0.56204968006E+03  0.00000000000E+00 0.  1.
          1   -1    0    0  501    0  0.00000000000E+00 -0.00000000000E+00 -0.10073417269E+03  0.10073417269E+03  0.00000000000E+00 0. -1.
         25    2    1    2    0    0  0.11645738351E+01 -0.21127129396E+03  0.24392985511E+03  0.34610220870E+03  0.12509216110E+03 0.  0.
         23    2    1    2    0    0 -0.11645738351E+01  0.21127129396E+03  0.21738565226E+03  0.31668164405E+03  0.91617825702E+02 0.  0.
          5    1    3    3  502    0 -0.46189893268E+02 -0.87511660778E+02  0.16313725406E+03  0.19084819380E+03  0.41800000000E+01 0. -1.
         -5    1    3    3    0  502  0.47354467103E+02 -0.12375963318E+03  0.80792601051E+02  0.15525401490E+03  0.41800000000E+01 0. -1.
        -11    1    4    4    0    0  0.33153417334E+02  0.17592395974E+03  0.18659608149E+03  0.25858554933E+03  0.00000000000E+00 0.  1.
         11    1    4    4    0    0 -0.34317991169E+02  0.35347334214E+02  0.30789570773E+02  0.58096094725E+02  0.00000000000E+00 0. -1.
</event>
<event>
 8    1  0.3719512E-009  0.2205817E+03  0.7561462E-02  0.1133450E+00
          2   -1    0    0  501    0  0.00000000000E+00  0.00000000000E+00  0.18092598442E+04  0.18092598442E+04  0.00000000000E+00 0.  1.
         -2   -1    0    0    0  501 -0.00000000000E+00 -0.00000000000E+00 -0.29143909514E+02  0.29143909514E+02  0.00000000000E+00 0. -1.
         25    2    1    2    0    0  0.26565805863E+00  0.19598372314E+03  0.11165112928E+04  0.11404623237E+04  0.12508858703E+03 0.  0.
         23    2    1    2    0    0 -0.26565805863E+00 -0.19598372314E+03  0.66360464189E+03  0.69794142998E+03  0.91331421961E+02 0.  0.
          5    1    3    3  502    0 -0.55401857368E+02  0.10059507460E+03  0.42905874408E+03  0.44418195945E+03  0.41800000000E+01 0. -1.
         -5    1    3    3    0  502  0.55667515427E+02  0.95388648538E+02  0.68745254871E+03  0.69628036427E+03  0.41800000000E+01 0. -1.
        -11    1    4    4    0    0 -0.40776122934E+02 -0.51620429058E+02  0.18115421036E+03  0.19272832908E+03  0.00000000000E+00 0. -1.
         11    1    4    4    0    0  0.40510464875E+02 -0.14436329408E+03  0.48245043153E+03  0.50521310091E+03  0.00000000000E+00 0.  1.
</event>
<event>
 8    1  0.3719512E-009  0.1084066E+03  0.7561462E-02  0.1263549E+00
         -2   -1    0    0    0  501 -0.00000000000E+00  0.00000000000E+00  0.41073541829E+02  0.41073541829E+02  0.00000000000E+00 0.  1.
          2   -1    0    0  501    0  0.00000000000E+00 -0.00000000000E+00 -0.41385732011E+03  0.41385732011E+03  0.00000000000E+00 0. -1.
         25    2    1    2    0    0 -0.32663947136E+02 -0.32110321201E+02 -0.30462485650E+03  0.33247809583E+03  0.12508946732E+03 0.  0.
         23    2    1    2    0    0  0.32663947136E+02  0.32110321201E+02 -0.68158921771E+02  0.12245276611E+03  0.90835208704E+02 0.  0.
          5    1    3    3  502    0 -0.16188023781E+02  0.44770191117E+02 -0.68127370386E+02  0.83217985570E+02  0.41800000000E+01 0.  1.
         -5    1    3    3    0  502 -0.16475923355E+02 -0.76880512318E+02 -0.23649748612E+03  0.24926011026E+03  0.41800000000E+01 0.  1.
        -11    1    4    4    0    0  0.41477240052E+02 -0.13664650937E+02 -0.50022821877E+01  0.43955738586E+02  0.00000000000E+00 0.  1.
         11    1    4    4    0    0 -0.88132929159E+01  0.45774972138E+02 -0.63156639584E+02  0.78497027522E+02  0.00000000000E+00 0. -1.
</event>
<event>
 8    1  0.3719512E-009  0.1799270E+03  0.7561462E-02  0.1167874E+00
         -1   -1    0    0    0  501 -0.00000000000E+00  0.00000000000E+00  0.72171686896E+03  0.72171686896E+03  0.00000000000E+00 0. -1.
          1   -1    0    0  501    0  0.00000000000E+00 -0.00000000000E+00 -0.52655739876E+02  0.52655739876E+02  0.00000000000E+00 0.  1.
         25    2    1    2    0    0  0.16926382138E+02  0.15996836792E+03  0.31148065363E+03  0.37221448591E+03  0.12508814808E+03 0.  0.
         23    2    1    2    0    0 -0.16926382138E+02 -0.15996836792E+03  0.35758047546E+03  0.40215812293E+03  0.89392271801E+02 0.  0.
          5    1    3    3  502    0  0.55815807601E+02  0.97456242625E+02  0.10833608085E+03  0.15610029602E+03  0.41800000000E+01 0.  1.
         -5    1    3    3    0  502 -0.38889425463E+02  0.62512125299E+02  0.20314457278E+03  0.21611418989E+03  0.41800000000E+01 0.  1.
        -11    1    4    4    0    0 -0.34990305599E+02 -0.43305621969E+02  0.18399089706E+03  0.19222993675E+03  0.00000000000E+00 0. -1.
         11    1    4    4    0    0  0.18063923461E+02 -0.11666274596E+03  0.17358957840E+03  0.20992818618E+03  0.00000000000E+00 0.  1.
</event>
<event>
 8    1  0.3719512E-009  0.2515560E+03  0.7561462E-02  0.1112325E+00
         -2   -1    0    0    0  501 -0.00000000000E+00  0.00000000000E+00  0.81944075992E+03  0.81944075992E+03  0.00000000000E+00 0.  1.
          2   -1    0    0  501    0  0.00000000000E+00 -0.00000000000E+00 -0.88122602069E+02  0.88122602069E+02  0.00000000000E+00 0. -1.
         25    2    1    2    0    0 -0.23045984425E+03  0.79538261574E+02  0.32310077753E+03  0.42364832822E+03  0.12508284734E+03 0.  0.
         23    2    1    2    0    0  0.23045984425E+03 -0.79538261574E+02  0.40821738033E+03  0.48391503377E+03  0.89968080118E+02 0.  0.
          5    1    3    3  502    0  0.17815499938E+01 -0.63047801512E+01  0.66834396568E+02  0.67284716970E+02  0.41800000000E+01 0.  1.
         -5    1    3    3    0  502 -0.23224139425E+03  0.85843041725E+02  0.25626638096E+03  0.35636361125E+03  0.41800000000E+01 0.  1.
        -11    1    4    4    0    0  0.20129244637E+03 -0.52715348614E+02  0.38593056813E+03  0.43845177655E+03  0.00000000000E+00 0.  1.
         11    1    4    4    0    0  0.29167397887E+02 -0.26822912960E+02  0.22286812200E+02  0.45463257222E+02  0.00000000000E+00 0. -1.
</event>
<event>
 8    1  0.3719512E-009  0.1064790E+03  0.7561462E-02  0.1267233E+00
          2   -1    0    0  501    0  0.00000000000E+00  0.00000000000E+00  0.44103831752E+02  0.44103831752E+02  0.00000000000E+00 0. -1.
         -2   -1    0    0    0  501 -0.00000000000E+00 -0.00000000000E+00 -0.41246741084E+03  0.41246741084E+03  0.00000000000E+00 0.  1.
         25    2    1    2    0    0 -0.11343385955E+02  0.74688451241E+02 -0.15542826002E+03  0.21333548894E+03  0.12508816762E+03 0.  0.
         23    2    1    2    0    0  0.11343385955E+02 -0.74688451241E+02 -0.21293531907E+03  0.24323575364E+03  0.90084097323E+02 0.  0.
          5    1    3    3  502    0  0.12293524951E+01 -0.10869346426E+02  0.16853830750E+02  0.20522621914E+02  0.41800000000E+01 0.  1.
         -5    1    3    3    0  502 -0.12572738451E+02  0.85557797666E+02 -0.17228209077E+03  0.19281286703E+03  0.41800000000E+01 0.  1.
        -11    1    4    4    0    0  0.39928065365E+02 -0.61356762358E+01 -0.50849630414E+02  0.64942912161E+02  0.00000000000E+00 0.  1.
         11    1    4    4    0    0 -0.28584679410E+02 -0.68552775005E+02 -0.16208568865E+03  0.17829284148E+03  0.00000000000E+00 0. -1.
</event>
<event>
 8    1  0.3719512E-009  0.9805815E+02  0.7561462E-02  0.1284433E+00
          3   -1    0    0  501    0  0.00000000000E+00  0.00000000000E+00  0.29271717335E+02  0.29271717335E+02  0.00000000000E+00 0. -1.
         -3   -1    0    0    0  501 -0.00000000000E+00 -0.00000000000E+00 -0.44307881662E+03  0.44307881662E+03  0.00000000000E+00 0.  1.
         25    2    1    2    0    0 -0.43345061199E+01 -0.84417522372E+01 -0.20937404434E+03  0.24407940640E+03  0.12508882869E+03 0.  0.
         23    2    1    2    0    0  0.43345061199E+01  0.84417522372E+01 -0.20443305495E+03  0.22827112756E+03  0.10111766708E+03 0.  0.
          5    1    3    3  502    0  0.11575202089E+02 -0.64762989130E+02 -0.96518418676E+02  0.11688245210E+03  0.41800000000E+01 0.  1.
         -5    1    3    3    0  502 -0.15909708209E+02  0.56321236893E+02 -0.11285562566E+03  0.12719695430E+03  0.41800000000E+01 0.  1.
        -11    1    4    4    0    0  0.10879813016E+02 -0.30318258368E+02 -0.17802444643E+03  0.18091509237E+03  0.00000000000E+00 0.  1.
         11    1    4    4    0    0 -0.65453068964E+01  0.38760010605E+02 -0.26408608524E+02  0.47356035187E+02  0.00000000000E+00 0. -1.
</event>
<event>
 8    1  0.3719512E-009  0.1611422E+03  0.7561462E-02  0.1187413E+00
          2   -1    0    0  501    0  0.00000000000E+00  0.00000000000E+00  0.12502799658E+04  0.12502799658E+04  0.00000000000E+00 0. -1.
         -2   -1    0    0    0  501 -0.00000000000E+00 -0.00000000000E+00 -0.27515388045E+02  0.27515388045E+02  0.00000000000E+00 0.  1.
         25    2    1    2    0    0  0.12465619425E+03 -0.37593366122E+02  0.91984116382E+03  0.93739497768E+03  0.12509656097E+03 0.  0.
         23    2    1    2    0    0 -0.12465619425E+03  0.37593366122E+02  0.30292341395E+03  0.34040037618E+03  0.84601379697E+02 0.  0.
          5    1    3    3  502    0  0.88267039653E+01  0.33511600429E+02  0.90832666518E+02  0.97308703481E+02  0.41800000000E+01 0.  1.
         -5    1    3    3    0  502  0.11582949029E+03 -0.71104966552E+02  0.82900849731E+03  0.84008627420E+03  0.41800000000E+01 0.  1.
        -11    1    4    4    0    0 -0.10987275075E+03 -0.12075395722E+01  0.18256289669E+03  0.21307907161E+03  0.00000000000E+00 0.  1.
         11    1    4    4    0    0 -0.14783443502E+02  0.38800905694E+02  0.12036051726E+03  0.12732130458E+03  0.00000000000E+00 0. -1.
</event>
<event>
 8    1  0.3719512E-009  0.1471770E+03  0.7561462E-02  0.1203985E+00
         -3   -1    0    0    0  501 -0.00000000000E+00  0.00000000000E+00  0.38947233882E+03  0.38947233882E+03  0.00000000000E+00 0.  1.
          3   -1    0    0  501    0  0.00000000000E+00 -0.00000000000E+00 -0.70491585903E+02  0.70491585903E+02  0.00000000000E+00 0. -1.
         25    2    1    2    0    0  0.12395559745E+03 -0.13158102309E+02  0.15414577292E+03  0.23440455923E+03  0.12508577971E+03 0.  0.
         23    2    1    2    0    0 -0.12395559745E+03  0.13158102309E+02  0.16483498000E+03  0.22555936549E+03  0.90378819063E+02 0.  0.
          5    1    3    3  502    0  0.22769800100E+02  0.23704109440E+02 -0.12945103451E+02  0.35572414935E+02  0.41800000000E+01 0.  1.
         -5    1    3    3    0  502  0.10118579735E+03 -0.36862211750E+02  0.16709087637E+03  0.19883214430E+03  0.41800000000E+01 0.  1.
        -11    1    4    4    0    0 -0.13159556898E+03 -0.71105546165E+01  0.14764435424E+03  0.19790606130E+03  0.00000000000E+00 0. -1.
         11    1    4    4    0    0  0.76399715318E+01  0.20268656926E+02  0.17190625759E+02  0.27653304189E+02  0.00000000000E+00 0.  1.
</event>
<event>
 8    1  0.3719512E-009  0.1270060E+03  0.7561462E-02  0.1231967E+00
         -1   -1    0    0    0  501 -0.00000000000E+00  0.00000000000E+00  0.69537276618E+03  0.69537276618E+03  0.00000000000E+00 0.  1.
          1   -1    0    0  501    0  0.00000000000E+00 -0.00000000000E+00 -0.25109694624E+02  0.25109694624E+02  0.00000000000E+00 0. -1.
         25    2    1    2    0    0 -0.40461665711E+02 -0.62960992607E+02  0.39397166590E+03  0.42007325725E+03  0.12508650982E+03 0.  0.
         23    2    1    2    0    0  0.40461665711E+02  0.62960992607E+02  0.27629140565E+03  0.30040920356E+03  0.91145574554E+02 0.  0.
          5    1    3    3  502    0 -0.64141151753E+02  0.13443010298E+02  0.17775571673E+03  0.18949767572E+03  0.41800000000E+01 0.  1.
         -5    1    3    3    0  502  0.23679486042E+02 -0.76404002906E+02  0.21621594918E+03  0.23057558153E+03  0.41800000000E+01 0.  1.
        -11    1    4    4    0    0  0.46755979458E+02  0.18303404933E+01  0.18154380975E+03  0.18747700291E+03  0.00000000000E+00 0.  1.
         11    1    4    4    0    0 -0.62943137475E+01  0.61130652114E+02  0.94747595908E+02  0.11293220065E+03  0.00000000000E+00 0. -1.
</event>
<event>
 8    1  0.3719512E-009  0.1074032E+03  0.7561462E-02  0.1265456E+00
          2   -1    0    0  501    0  0.00000000000E+00  0.00000000000E+00  0.51515864518E+03  0.51515864518E+03  0.00000000000E+00 0. -1.
         -2   -1    0    0    0  501 -0.00000000000E+00 -0.00000000000E+00 -0.25509804787E+02  0.25509804787E+02  0.00000000000E+00 0.  1.
         25    2    1    2    0    0  0.81815787424E+01 -0.20479722133E+02  0.34354580184E+03  0.36627568726E+03  0.12509118222E+03 0.  0.
         23    2    1    2    0    0 -0.81815787424E+01  0.20479722133E+02  0.14610303856E+03  0.17439276271E+03  0.92630343621E+02 0.  0.
          5    1    3    3  502    0  0.42030176884E+02  0.37169644549E+02  0.11355407765E+03  0.12672852558E+03  0.41800000000E+01 0. -1.
         -5    1    3    3    0  502 -0.33848598142E+02 -0.57649366682E+02  0.22999172418E+03  0.23954716168E+03  0.41800000000E+01 0. -1.
        -11    1    4    4    0    0 -0.44135606390E+02 -0.90262959118E+01  0.48035965228E+02  0.65854990127E+02  0.00000000000E+00 0.  1.
         11    1    4    4    0    0  0.35954027648E+02  0.29506018044E+02  0.98067073330E+02  0.10853777258E+03  0.00000000000E+00 0. -1.
</event>
<event>
 8    1  0.3719512E-009  0.6265088E+02  0.7561462E-02  0.1387032E+00
         -1   -1    0    0    0  501 -0.00000000000E+00  0.00000000000E+00  0.29047416857E+03  0.29047416857E+03  0.00000000000E+00 0.  1.
          1   -1    0    0  501    0  0.00000000000E+00 -0.00000000000E+00 -0.48599237583E+02  0.48599237583E+02  0.00000000000E+00 0. -1.
         25    2    1    2    0    0  0.79664564018E+01 -0.37022582701E+02  0.18263668986E+03  0.22458564196E+03  0.12509362108E+03 0.  0.
         23    2    1    2    0    0 -0.79664564018E+01  0.37022582701E+02  0.59238241124E+02  0.11448776419E+03  0.90355646644E+02 0.  0.
          5    1    3    3  502    0 -0.25761847991E+02 -0.23419489832E+02 -0.31682979452E+01  0.35208746467E+02  0.41800000000E+01 0.  1.
         -5    1    3    3    0  502  0.33728304392E+02 -0.13603092869E+02  0.18580498781E+03  0.18937689550E+03  0.41800000000E+01 0.  1.
        -11    1    4    4    0    0  0.13002489405E+02  0.27860121945E+02  0.78671762232E+02  0.84465953485E+02  0.00000000000E+00 0.  1.
         11    1    4    4    0    0 -0.20968945807E+02  0.91624607563E+01 -0.19433521108E+02  0.30021810705E+02  0.00000000000E+00 0. -1.
</event>
<event>
 8    1  0.3719512E-009  0.1185043E+03  0.7561462E-02  0.1245585E+00
         -3   -1    0    0    0  501 -0.00000000000E+00  0.00000000000E+00  0.28431254774E+03  0.28431254774E+03  0.00000000000E+00 0.  1.
          3   -1    0    0  501    0  0.00000000000E+00 -0.00000000000E+00 -0.11343467534E+03  0.11343467534E+03  0.00000000000E+00 0. -1.
         25    2    1    2    0    0 -0.97113223929E+02  0.12243439812E+02 -0.24221822171E+02  0.16067621396E+03  0.12509703826E+03 0.  0.
         23    2    1    2    0    0  0.97113223929E+02 -0.12243439812E+02  0.19509969457E+03  0.23707100913E+03  0.92508877782E+02 0.  0.
          5    1    3    3  502    0 -0.18401096922E+02 -0.35241921859E+02  0.33408736063E+02  0.52098075488E+02  0.41800000000E+01 0. -1.
         -5    1    3    3    0  502 -0.78712127008E+02  0.47485361670E+02 -0.57630558234E+02  0.10857813847E+03  0.41800000000E+01 0. -1.
        -11    1    4    4    0    0  0.31950939401E+02  0.13843952303E+02  0.14919009914E+03  0.15319987998E+03  0.00000000000E+00 0.  1.
         11    1    4    4    0    0  0.65162284528E+02 -0.26087392115E+02  0.45909595423E+02  0.83871129146E+02  0.00000000000E+00 0. -1.
</event>
<event>
 8    1  0.3719512E-009  0.4699146E+02  0.7561462E-02  0.1462279E+00
         -2   -1    0    0    0  501 -0.00000000000E+00  0.00000000000E+00  0.90657180505E+02  0.90657180505E+02  0.00000000000E+00 0. -1.
          2   -1    0    0  501    0  0.00000000000E+00 -0.00000000000E+00 -0.16125978878E+03  0.16125978878E+03  0.00000000000E+00 0.  1.
         25    2    1    2    0    0 -0.43335820718E+02  0.11729160497E+02 -0.91345926325E+01  0.13321676370E+03  0.12509076219E+03 0.  0.
         23    2    1    2    0    0  0.43335820718E+02 -0.11729160497E+02 -0.61468015638E+02  0.11870020558E+03  0.91081585928E+02 0.  0.
          5    1    3    3  502    0 -0.69531312998E+01  0.31745190579E+01  0.56717348335E+02  0.57382520058E+02  0.41800000000E+01 0. -1.
         -5    1    3    3    0  502 -0.36382689418E+02  0.85546414391E+01 -0.65851940967E+02  0.75834243641E+02  0.41800000000E+01 0. -1.
        -11    1    4    4    0    0  0.10626252515E+02 -0.10487589907E+02 -0.79799077961E+02  0.81183739924E+02  0.00000000000E+00 0.  1.
         11    1    4    4    0    0  0.32709568203E+02 -0.12415705899E+01  0.18331062323E+02  0.37516465657E+02  0.00000000000E+00 0. -1.
</event>
<event>
 8    1  0.3719512E-009  0.8660190E+02  0.7561462E-02  0.1311296E+00
         -1   -1    0    0    0  501 -0.00000000000E+00  0.00000000000E+00  0.15245861401E+03  0.15245861401E+03  0.00000000000E+00 0.  1.
          1   -1    0    0  501    0  0.00000000000E+00 -0.00000000000E+00 -0.92705670302E+02  0.92705670302E+02  0.00000000000E+00 0. -1.
         25    2    1    2    0    0  0.26819873894E+01 -0.39604612737E+02  0.63607735018E+02  0.14583941786E+03  0.12508986147E+03 0.  0.
         23    2    1    2    0    0 -0.26819873894E+01  0.39604612737E+02 -0.38547913114E+01  0.99324866449E+02  0.90966209510E+02 0.  0.
          5    1    3    3  502    0  0.55314821287E+02 -0.24521473543E+02  0.67555643846E+02  0.90786945836E+02  0.41800000000E+01 0.  1.
         -5    1    3    3    0  502 -0.52632833898E+02 -0.15083139194E+02 -0.39479088274E+01  0.55052472026E+02  0.41800000000E+01 0.  1.
        -11    1    4    4    0    0 -0.21681045666E+02  0.27875489795E+02 -0.42154533791E+02  0.54991957517E+02  0.00000000000E+00 0. -1.
         11    1    4    4    0    0  0.18999058276E+02  0.11729122943E+02  0.38299742479E+02  0.44332908932E+02  0.00000000000E+00 0.  1.
</event>
<event>
 8    1  0.3719512E-009  0.1795715E+03  0.7561462E-02  0.1168218E+00
         -1   -1    0    0    0  501 -0.00000000000E+00  0.00000000000E+00  0.20077255645E+02  0.20077255645E+02  0.00000000000E+00 0. -1.
          1   -1    0    0  501    0  0.00000000000E+00 -0.00000000000E+00 -0.16938576530E+04  0.16938576530E+04  0.00000000000E+00 0.  1.
         25    2    1    2    0    0 -0.61539706290E+02  0.12930637972E+03 -0.70644207298E+03  0.73158450121E+03  0.12509278416E+03 0.  0.
         23    2    1    2    0    0  0.61539706290E+02 -0.12930637972E+03 -0.96733832433E+03  0.98235040739E+03  0.93603492941E+02 0.  0.
          5    1    3    3  502    0 -0.13829798372E+02  0.13853994781E+03 -0.56697960049E+03  0.58383895060E+03  0.41800000000E+01 0.  1.
         -5    1    3    3    0  502 -0.47709907917E+02 -0.92335680874E+01 -0.13946247248E+03  0.14774555061E+03  0.41800000000E+01 0.  1.
        -11    1    4    4    0    0  0.51418949370E+02 -0.11310796957E+02 -0.30095945870E+03  0.30552976657E+03  0.00000000000E+00 0.  1.
         11    1    4    4    0    0  0.10120756919E+02 -0.11799558277E+03 -0.66637886563E+03  0.67682064082E+03  0.00000000000E+00 0. -1.
</event>
<event>
 8    1  0.3719512E-009  0.1121135E+03  0.7561462E-02  0.1256705E+00
         -1   -1    0    0    0  501 -0.00000000000E+00  0.00000000000E+00  0.22687304523E+03  0.22687304523E+03  0.00000000000E+00 0.  1.
          1   -1    0    0  501    0  0.00000000000E+00 -0.00000000000E+00 -0.13308122382E+03  0.13308122382E+03  0.00000000000E+00 0. -1.
         25    2    1    2    0    0 -0.85883353222E+02  0.31646919439E+02  0.15061054687E+03  0.21611959586E+03  0.12508663004E+03 0.  0.
         23    2    1    2    0    0  0.85883353222E+02 -0.31646919439E+02 -0.56818725464E+02  0.14383467319E+03  0.95302506666E+02 0.  0.
          5    1    3    3  502    0 -0.44024940581E+02  0.94061373371E+01  0.16115846827E+03  0.16738039046E+03  0.41800000000E+01 0. -1.
         -5    1    3    3    0  502 -0.41858412640E+02  0.22240782102E+02 -0.10547921405E+02  0.48739205402E+02  0.41800000000E+01 0. -1.
        -11    1    4    4    0    0  0.51309150914E+02 -0.65391410679E+02 -0.43014420262E+02  0.93589026646E+02  0.00000000000E+00 0. -1.
         11    1    4    4    0    0  0.34574202308E+02  0.33744491239E+02 -0.13804305201E+02  0.50245646541E+02  0.00000000000E+00 0.  1.
</event>
<event>
 8    1  0.3719512E-009  0.1308988E+03  0.7561462E-02  0.1226128E+00
          2   -1    0    0  501    0  0.00000000000E+00  0.00000000000E+00  0.83704660226E+02  0.83704660226E+02  0.00000000000E+00 0. -1.
         -2   -1    0    0    0  501 -0.00000000000E+00 -0.00000000000E+00 -0.22454531789E+03  0.22454531789E+03  0.00000000000E+00 0.  1.
         25    2    1    2    0    0 -0.77818208116E+02 -0.25938416910E+02 -0.84689104131E+02  0.17189550427E+03  0.12508934825E+03 0.  0.
         23    2    1    2    0    0  0.77818208116E+02  0.25938416910E+02 -0.56151553535E+02  0.13635447384E+03  0.93333116239E+02 0.  0.
          5    1    3    3  502    0  0.30905674448E+02 -0.24374458598E+02 -0.32484221182E+02  0.51205194764E+02  0.41800000000E+01 0. -1.
         -5    1    3    3    0  502 -0.10872388256E+03 -0.15639583118E+01 -0.52204882949E+02  0.12069030951E+03  0.41800000000E+01 0. -1.
        -11    1    4    4    0    0  0.80247956136E+02 -0.68332357536E+01 -0.63643679317E+02  0.10264962490E+03  0.00000000000E+00 0.  1.
         11    1    4    4    0    0 -0.24297480201E+01  0.32771652663E+02  0.74921257821E+01  0.33704848946E+02  0.00000000000E+00 0. -1.
</event>
<event>
 8    1  0.3719512E-009  0.3297980E+03  0.7561462E-02  0.1071226E+00
         -1   -1    0    0    0  501 -0.00000000000E+00  0.00000000000E+00  0.32889521444E+02  0.32889521444E+02  0.00000000000E+00 0.  1.
          1   -1    0    0  501    0  0.00000000000E+00 -0.00000000000E+00 -0.39636034642E+04  0.39636034642E+04  0.00000000000E+00 0. -1.
         25    2    1    2    0    0 -0.28870535962E+03 -0.14656527334E+03 -0.26341502809E+04  0.26569206466E+04  0.12508979005E+03 0.  0.
         23    2    1    2    0    0  0.28870535962E+03  0.14656527334E+03 -0.12965636618E+04  0.13395723390E+04  0.92436780798E+02 0.  0.
          5    1    3    3  502    0 -0.13344798551E+03 -0.63281648795E+02 -0.16912825206E+04  0.16977240556E+04  0.41800000000E+01 0.  1.
         -5    1    3    3    0  502 -0.15525737411E+03 -0.83283624542E+02 -0.94286776030E+03  0.95919659098E+03  0.41800000000E+01 0.  1.
        -11    1    4    4    0    0  0.18558004925E+03  0.13964872479E+03 -0.84556824206E+03  0.87688503978E+03  0.00000000000E+00 0. -1.
         11    1    4    4    0    0  0.10312531037E+03  0.69165485467E+01 -0.45099541973E+03  0.46268729927E+03  0.00000000000E+00 0.  1.
</event>
<event>
 8    1  0.3719512E-009  0.1499259E+03  0.7561462E-02  0.1200564E+00
         -2   -1    0    0    0  501 -0.00000000000E+00  0.00000000000E+00  0.18307833720E+03  0.18307833720E+03  0.00000000000E+00 0.  1.
          2   -1    0    0  501    0  0.00000000000E+00 -0.00000000000E+00 -0.30300845091E+03  0.30300845091E+03  0.00000000000E+00 0. -1.
         25    2    1    2    0    0 -0.71460093201E+02  0.84017262620E+02 -0.24118231455E+03  0.29322721739E+03  0.12509135393E+03 0.  0.
         23    2    1    2    0    0  0.71460093201E+02 -0.84017262620E+02  0.12125220084E+03  0.19285957071E+03  0.10162318864E+03 0.  0.
          5    1    3    3  502    0 -0.22323697659E+01  0.95220462582E+02 -0.12137489813E+03  0.15434136926E+03  0.41800000000E+01 0. -1.
         -5    1    3    3    0  502 -0.69227723435E+02 -0.11203199963E+02 -0.11980741642E+03  0.13888584813E+03  0.41800000000E+01 0. -1.
        -11    1    4    4    0    0  0.45937841139E+02  0.53433315928E+00  0.86511129331E+02  0.97952775655E+02  0.00000000000E+00 0.  1.
         11    1    4    4    0    0  0.25522252062E+02 -0.84551595779E+02  0.34741071507E+02  0.94906795060E+02  0.00000000000E+00 0. -1.
</event>
<event>
 8    1  0.3719512E-009  0.1443036E+03  0.7561462E-02  0.1207653E+00
         -2   -1    0    0    0  501 -0.00000000000E+00  0.00000000000E+00  0.42383664305E+02  0.42383664305E+02  0.00000000000E+00 0.  1.
          2   -1    0    0  501    0  0.00000000000E+00 -0.00000000000E+00 -0.78701933117E+03  0.78701933117E+03  0.00000000000E+00 0. -1.
         25    2    1    2    0    0  0.10179805921E+03  0.49947493081E+02 -0.60378142389E+03  0.62694279262E+03  0.12509060899E+03 0.  0.
         23    2    1    2    0    0 -0.10179805921E+03 -0.49947493081E+02 -0.14085424297E+03  0.20246020285E+03  0.91063818565E+02 0.  0.
          5    1    3    3  502    0  0.34937144652E+02  0.84590492154E+02 -0.28511066875E+03  0.29946906563E+03  0.41800000000E+01 0.  1.
         -5    1    3    3    0  502  0.66860914559E+02 -0.34642999072E+02 -0.31867075515E+03  0.32747372699E+03  0.41800000000E+01 0.  1.
        -11    1    4    4    0    0 -0.75753798964E+02 -0.56750724407E+02 -0.14701081272E+03  0.17484696690E+03  0.00000000000E+00 0. -1.
         11    1    4    4    0    0 -0.26044260247E+02  0.68032313258E+01  0.61565697536E+01  0.27613235946E+02  0.00000000000E+00 0.  1.
</event>
<event>
 8    1  0.3719512E-009  0.9027057E+02  0.7561462E-02  0.1302198E+00
         -1   -1    0    0    0  501 -0.00000000000E+00  0.00000000000E+00  0.50894905617E+02  0.50894905617E+02  0.00000000000E+00 0.  1.
          1   -1    0    0  501    0  0.00000000000E+00 -0.00000000000E+00 -0.25196764859E+03  0.25196764859E+03  0.00000000000E+00 0. -1.
         25    2    1    2    0    0  0.71635426315E+01 -0.17443142790E+02 -0.15328193072E+03  0.19874360101E+03  0.12509232224E+03 0.  0.
         23    2    1    2    0    0 -0.71635426315E+01  0.17443142790E+02 -0.47790812257E+02  0.10411895320E+03  0.90560560435E+02 0.  0.
          5    1    3    3  502    0  0.46457844205E+02  0.38895334778E+01 -0.14591250763E+03  0.15323639268E+03  0.41800000000E+01 0.  1.
         -5    1    3    3    0  502 -0.39294301573E+02 -0.21332676268E+02 -0.73694230866E+01  0.45507208325E+02  0.41800000000E+01 0.  1.
        -11    1    4    4    0    0  0.14944406888E+01 -0.35323437510E+02 -0.33649487039E+02  0.48808468205E+02  0.00000000000E+00 0. -1.
         11    1    4    4    0    0 -0.86579833203E+01  0.52766580300E+02 -0.14141325217E+02  0.55310484997E+02  0.00000000000E+00 0.  1.
</event>
<event>
 8    1  0.3719512E-009  0.1556263E+03  0.7561462E-02  0.1193725E+00
         -1   -1    0    0    0  501 -0.00000000000E+00  0.00000000000E+00  0.24678532853E+03  0.24678532853E+03  0.00000000000E+00 0.  1.
          1   -1    0    0  501    0  0.00000000000E+00 -0.00000000000E+00 -0.12856332143E+03  0.12856332143E+03  0.00000000000E+00 0. -1.
         25    2    1    2    0    0  0.10645932268E+03  0.84718025659E+02  0.94312832662E+02  0.20748991287E+03  0.12508565978E+03 0.  0.
         23    2    1    2    0    0 -0.10645932268E+03 -0.84718025659E+02  0.23909174441E+02  0.16785873709E+03  0.95363387827E+02 0.  0.
          5    1    3    3  502    0 -0.14830820384E+02  0.94469086021E+00 -0.16823761543E+02  0.22833243890E+02  0.41800000000E+01 0. -1.
         -5    1    3    3    0  502  0.12129014306E+03  0.83773334799E+02  0.11113659421E+03  0.18465666898E+03  0.41800000000E+01 0. -1.
        -11    1    4    4    0    0 -0.94752493510E+02 -0.41270772367E+02  0.51090899584E+02  0.11528916557E+03  0.00000000000E+00 0. -1.
         11    1    4    4    0    0 -0.11706829170E+02 -0.43447253292E+02 -0.27181725142E+02  0.52569571518E+02  0.00000000000E+00 0.  1.
</event>
<event>
 8    1  0.3719512E-009  0.9435728E+02  0.7561462E-02  0.1292630E+00
          2   -1    0    0  501    0  0.00000000000E+00  0.00000000000E+00  0.32453100366E+02  0.32453100366E+02  0.00000000000E+00 0. -1.
         -2   -1    0    0    0  501 -0.00000000000E+00 -0.00000000000E+00 -0.39860005587E+03  0.39860005587E+03  0.00000000000E+00 0.  1.
         25    2    1    2    0    0 -0.20222629170E+01 -0.17205053483E+02 -0.27112900481E+03  0.29909582973E+03  0.12508906707E+03 0.  0.
         23    2    1    2    0    0  0.20222629170E+01  0.17205053483E+02 -0.95017950696E+02  0.13195732651E+03  0.89912299781E+02 0.  0.
          5    1    3    3  502    0  0.47581666914E+02  0.25483566666E+02 -0.17132932527E+03  0.17967926229E+03  0.41800000000E+01 0. -1.
         -5    1    3    3    0  502 -0.49603929831E+02 -0.42688620149E+02 -0.99799679531E+02  0.11941656744E+03  0.41800000000E+01 0. -1.
        -11    1    4    4    0    0  0.18992291395E+02  0.37806562088E+02 -0.96353261772E+02  0.10523304768E+03  0.00000000000E+00 0.  1.
         11    1    4    4    0    0 -0.16970028478E+02 -0.20601508605E+02  0.13353110758E+01  0.26724278830E+02  0.00000000000E+00 0. -1.
</event>
<event>
 8    1  0.3719512E-009  0.8642305E+02  0.7561462E-02  0.1311753E+00
          3   -1    0    0  501    0  0.00000000000E+00  0.00000000000E+00  0.50699913879E+02  0.50699913879E+02  0.00000000000E+00 0. -1.
         -3   -1    0    0    0  501 -0.00000000000E+00 -0.00000000000E+00 -0.29821757151E+03  0.29821757151E+03  0.00000000000E+00 0.  1.
         25    2    1    2    0    0 -0.11174325200E+02 -0.26002343813E+02 -0.66889348940E+02  0.14464689421E+03  0.12509017378E+03 0.  0.
         23    2    1    2    0    0  0.11174325200E+02  0.26002343813E+02 -0.18062830869E+03  0.20427059118E+03  0.91098304550E+02 0.  0.
          5    1    3    3  502    0 -0.40092813493E+02  0.68159897496E+01 -0.87148068284E+02  0.96260841549E+02  0.41800000000E+01 0.  1.
         -5    1    3    3    0  502  0.28918488293E+02 -0.32818333562E+02  0.20258719344E+02  0.48386052664E+02  0.41800000000E+01 0.  1.
        -11    1    4    4    0    0  0.41117529020E+02 -0.88656028848E+01 -0.12624189791E+03  0.13306489731E+03  0.00000000000E+00 0.  1.
         11    1    4    4    0    0 -0.29943203820E+02  0.34867946697E+02 -0.54386410778E+02  0.71205693868E+02  0.00000000000E+00 0. -1.
</event>
<event>
 8    1  0.3719512E-009  0.8536253E+02  0.7561462E-02  0.1314487E+00
          2   -1    0    0  501    0  0.00000000000E+00  0.00000000000E+00  0.61577298737E+02  0.61577298737E+02  0.00000000000E+00 0. -1.
         -2   -1    0    0    0  501 -0.00000000000E+00 -0.00000000000E+00 -0.18771514207E+03  0.18771514207E+03  0.00000000000E+00 0.  1.
         25    2    1    2    0    0 -0.21713162398E+01  0.13073233030E+02 -0.66331274339E+02  0.14220768144E+03  0.12509021812E+03 0.  0.
         23    2    1    2    0    0  0.21713162398E+01 -0.13073233030E+02 -0.59806568995E+02  0.10708475937E+03  0.87833341951E+02 0.  0.
          5    1    3    3  502    0  0.58034590831E+02  0.21899808524E+02 -0.47925856327E+02  0.78498251261E+02  0.41800000000E+01 0. -1.
         -5    1    3    3    0  502 -0.60205907071E+02 -0.88265754939E+01 -0.18405418012E+02  0.63709430177E+02  0.41800000000E+01 0. -1.
        -11    1    4    4    0    0 -0.15389397379E+02  0.10158832096E+02 -0.72869829397E+02  0.75166797575E+02  0.00000000000E+00 0.  1.
         11    1    4    4    0    0  0.17560713619E+02 -0.23232065126E+02  0.13063260402E+02  0.31917961796E+02  0.00000000000E+00 0. -1.
</event>
<event>
 8    1  0.3719512E-009  0.1134528E+03  0.7561462E-02  0.1254306E+00
          1   -1    0    0  501    0  0.00000000000E+00  0.00000000000E+00  0.89999413747E+03  0.89999413747E+03  0.00000000000E+00 0. -1.
         -1   -1    0    0    0  501 -0.00000000000E+00 -0.00000000000E+00 -0.16413134852E+02  0.16413134852E+02  0.00000000000E+00 0.  1.
         25    2    1    2    0    0  0.45258601435E+02  0.28927317922E+02  0.51869764305E+03  0.53626406331E+03  0.12508704953E+03 0.  0.
         23    2    1    2    0    0 -0.45258601435E+02 -0.28927317922E+02  0.36488335956E+03  0.38014320901E+03  0.92107885368E+02 0.  0.
          5    1    3    3  502    0  0.44164966772E+02  0.67904509354E+02  0.44921030275E+03  0.45647446279E+03  0.41800000000E+01 0.  1.
         -5    1    3    3    0  502  0.10936346627E+01 -0.38977191432E+02  0.69487340302E+02  0.79789600518E+02  0.41800000000E+01 0.  1.
        -11    1    4    4    0    0 -0.51722507239E+02  0.21300216292E+02  0.18586145310E+03  0.19409635937E+03  0.00000000000E+00 0. -1.
         11    1    4    4    0    0  0.64639058047E+01 -0.50227534214E+02  0.17902190646E+03  0.18604684965E+03  0.00000000000E+00 0.  1.
</event>
<event>
 8    1  0.3719512E-009  0.1094711E+03  0.7561462E-02  0.1261553E+00
         -2   -1    0    0    0  501 -0.00000000000E+00  0.00000000000E+00  0.53767239088E+02  0.53767239088E+02  0.00000000000E+00 0.  1.
          2   -1    0    0  501    0  0.00000000000E+00 -0.00000000000E+00 -0.24568633181E+03  0.24568633181E+03  0.00000000000E+00 0. -1.
         25    2    1    2    0    0  0.28150870495E+02  0.21144564384E+02 -0.12386839813E+03  0.17952765355E+03  0.12508890527E+03 0.  0.
         23    2    1    2    0    0 -0.28150870495E+02 -0.21144564384E+02 -0.68050694592E+02  0.11992591735E+03  0.92259224497E+02 0.  0.
          5    1    3    3  502    0 -0.44805034238E+02  0.14426406282E+02 -0.83056539172E+02  0.95558743140E+02  0.41800000000E+01 0.  1.
         -5    1    3    3    0  502  0.72955904733E+02  0.67181581018E+01 -0.40811858958E+02  0.83968910409E+02  0.41800000000E+01 0.  1.
        -11    1    4    4    0    0 -0.37469495540E+02  0.28949066208E+02 -0.27101123386E+02  0.54557148195E+02  0.00000000000E+00 0. -1.
         11    1    4    4    0    0  0.93186250451E+01 -0.50093630592E+02 -0.40949571206E+02  0.65368769153E+02  0.00000000000E+00 0.  1.
</event>
<event>
 8    1  0.3719512E-009  0.2402435E+03  0.7561462E-02  0.1119631E+00
          2   -1    0    0  501    0  0.00000000000E+00  0.00000000000E+00  0.19344331330E+04  0.19344331330E+04  0.00000000000E+00 0. -1.
         -2   -1    0    0    0  501 -0.00000000000E+00 -0.00000000000E+00 -0.34577426528E+02  0.34577426528E+02  0.00000000000E+00 0.  1.
         25    2    1    2    0    0 -0.40634425955E+01  0.21448151775E+03  0.61683343711E+03  0.66494363268E+03  0.12509081694E+03 0.  0.
         23    2    1    2    0    0  0.40634425955E+01 -0.21448151775E+03  0.12830222693E+04  0.13040669268E+04  0.91790920028E+02 0.  0.
          5    1    3    3  502    0 -0.61204743234E+02  0.14627299430E+03  0.37180346194E+03  0.40422406678E+03  0.41800000000E+01 0.  1.
         -5    1    3    3    0  502  0.57141300639E+02  0.68208523444E+02  0.24502997517E+03  0.26071956590E+03  0.41800000000E+01 0.  1.
        -11    1    4    4    0    0  0.30231821571E+02 -0.19307717731E+02  0.16763144720E+03  0.17142652388E+03  0.00000000000E+00 0.  1.
         11    1    4    4    0    0 -0.26168378976E+02 -0.19517380001E+03  0.11153908221E+04  0.11326404029E+04  0.00000000000E+00 0. -1.
</event>
<event>
 8    1  0.3719512E-009  0.1185995E+03  0.7561462E-02  0.1245426E+00
          1   -1    0    0  501    0  0.00000000000E+00  0.00000000000E+00  0.12697790445E+03  0.12697790445E+03  0.00000000000E+00 0. -1.
         -1   -1    0    0    0  501 -0.00000000000E+00 -0.00000000000E+00 -0.15656717671E+03  0.15656717671E+03  0.00000000000E+00 0.  1.
         25    2    1    2    0    0 -0.78412853243E+02  0.35769543710E+02 -0.41555688248E+02  0.15748896028E+03  0.12509141287E+03 0.  0.
         23    2    1    2    0    0  0.78412853243E+02 -0.35769543710E+02  0.11966415987E+02  0.12605612088E+03  0.91208084560E+02 0.  0.
          5    1    3    3  502    0 -0.44397691202E+02  0.78319346492E+02 -0.48612887249E+02  0.10240000110E+03  0.41800000000E+01 0.  1.
         -5    1    3    3    0  502 -0.34015162040E+02 -0.42549802782E+02  0.70571990014E+01  0.55088959177E+02  0.41800000000E+01 0.  1.
        -11    1    4    4    0    0  0.44660790811E+02 -0.20179138388E+01 -0.36735594588E+02  0.57863305486E+02  0.00000000000E+00 0.  1.
         11    1    4    4    0    0  0.33752062432E+02 -0.33751629871E+02  0.48702010575E+02  0.68192815394E+02  0.00000000000E+00 0. -1.
</event>
<event>
 8    1  0.3719512E-009  0.1182473E+03  0.7561462E-02  0.1246017E+00
          3   -1    0    0  501    0  0.00000000000E+00  0.00000000000E+00  0.97966437453E+02  0.97966437453E+02  0.00000000000E+00 0. -1.
         -3   -1    0    0    0  501 -0.00000000000E+00 -0.00000000000E+00 -0.17531832822E+03  0.17531832822E+03  0.00000000000E+00 0.  1.
         25    2    1    2    0    0 -0.28350060668E+02 -0.46602305184E+02  0.10070656474E+02  0.13683696744E+03  0.12508971479E+03 0.  0.
         23    2    1    2    0    0  0.28350060668E+02  0.46602305184E+02 -0.87422547242E+02  0.13644779824E+03  0.89441595967E+02 0.  0.
          5    1    3    3  502    0  0.17675144484E+02  0.36608115456E+02  0.79401923803E+01  0.41630324342E+02  0.41800000000E+01 0. -1.
         -5    1    3    3    0  502 -0.46025205152E+02 -0.83210420640E+02  0.21304640932E+01  0.95206643096E+02  0.41800000000E+01 0. -1.
        -11    1    4    4    0    0  0.50741281424E+02  0.56521014051E+02 -0.81183480862E+02  0.11117580778E+03  0.00000000000E+00 0.  1.
         11    1    4    4    0    0 -0.22391220756E+02 -0.99187088673E+01 -0.62390663800E+01  0.25271990460E+02  0.00000000000E+00 0. -1.
</event>
<event>
 8    1  0.3719512E-009  0.1384070E+03  0.7561462E-02  0.1215489E+00
          2   -1    0    0  501    0  0.00000000000E+00  0.00000000000E+00  0.15302521911E+04  0.15302521911E+04  0.00000000000E+00 0. -1.
         -2   -1    0    0    0  501 -0.00000000000E+00 -0.00000000000E+00 -0.16520383384E+02  0.16520383384E+02  0.00000000000E+00 0.  1.
         25    2    1    2    0    0  0.78923350154E+01  0.89806475972E+02  0.11663874682E+04  0.11765350208E+04  0.12508971631E+03 0.  0.
         23    2    1    2    0    0 -0.78923350154E+01 -0.89806475972E+02  0.34734433949E+03  0.37023755365E+03  0.91105784017E+02 0.  0.
          5    1    3    3  502    0  0.66233653806E+02  0.43626777304E+02  0.56842423440E+03  0.57394579469E+03  0.41800000000E+01 0. -1.
         -5    1    3    3    0  502 -0.58341318790E+02  0.46179698668E+02  0.59796323382E+03  0.60258922613E+03  0.41800000000E+01 0. -1.
        -11    1    4    4    0    0  0.28244997093E+02 -0.24708130586E+01  0.42601962929E+02  0.51174329730E+02  0.00000000000E+00 0.  1.
         11    1    4    4    0    0 -0.36137332108E+02 -0.87335662913E+02  0.30474237656E+03  0.31906322392E+03  0.00000000000E+00 0. -1.
</event>
<event>
 8    1  0.3719512E-009  0.9497526E+02  0.7561462E-02  0.1291232E+00
          1   -1    0    0  501    0  0.00000000000E+00  0.00000000000E+00  0.33121981733E+03  0.33121981733E+03  0.00000000000E+00 0. -1.
         -1   -1    0    0    0  501 -0.00000000000E+00 -0.00000000000E+00 -0.10572746743E+03  0.10572746743E+03  0.00000000000E+00 0.  1.
         25    2    1    2    0    0  0.16913249002E+02  0.83406225120E+02  0.26785170040E+03  0.30762700816E+03  0.12508871396E+03 0.  0.
         23    2    1    2    0    0 -0.16913249002E+02 -0.83406225120E+02 -0.42359350509E+02  0.12932027660E+03  0.87674186529E+02 0.  0.
          5    1    3    3  502    0  0.29539611515E+00 -0.93823759225E+01  0.17481236849E+03  0.17511411369E+03  0.41800000000E+01 0.  1.
         -5    1    3    3    0  502  0.16617852887E+02  0.92788601043E+02  0.93039331913E+02  0.13251289447E+03  0.41800000000E+01 0.  1.
        -11    1    4    4    0    0 -0.99727561709E+01 -0.34210983301E+02 -0.65459232938E+02  0.74530251717E+02  0.00000000000E+00 0.  1.
         11    1    4    4    0    0 -0.69404928311E+01 -0.49195241819E+02  0.23099882429E+02  0.54790024882E+02  0.00000000000E+00 0. -1.
</event>
<event>
 8    1  0.3719512E-009  0.8252391E+02  0.7561462E-02  0.1322038E+00
          1   -1    0    0  501    0  0.00000000000E+00  0.00000000000E+00  0.50671761460E+03  0.50671761460E+03  0.00000000000E+00 0. -1.
         -1   -1    0    0    0  501 -0.00000000000E+00 -0.00000000000E+00 -0.25919813215E+02  0.25919813215E+02  0.00000000000E+00 0.  1.
         25    2    1    2    0    0 -0.23752059192E+02 -0.21498517808E+01  0.34560710738E+03  0.36832105275E+03  0.12508934027E+03 0.  0.
         23    2    1    2    0    0  0.23752059192E+02  0.21498517808E+01  0.13519069400E+03  0.16431637507E+03  0.90302631141E+02 0.  0.
          5    1    3    3  502    0  0.35971980653E+02 -0.31839919255E+02  0.22809061457E+03  0.23313207567E+03  0.41800000000E+01 0. -1.
         -5    1    3    3    0  502 -0.59724039845E+02  0.29690067474E+02  0.11751649281E+03  0.13518897708E+03  0.41800000000E+01 0. -1.
        -11    1    4    4    0    0  0.32689887074E+02  0.13657846075E+02  0.14331791280E+03  0.14763193965E+03  0.00000000000E+00 0. -1.
         11    1    4    4    0    0 -0.89378278822E+01 -0.11507994295E+02 -0.81272187909E+01  0.16684435418E+02  0.00000000000E+00 0.  1.
</event>
<event>
 8    1  0.3719512E-009  0.8585036E+02  0.7561462E-02  0.1313224E+00
         -4   -1    0    0    0  501 -0.00000000000E+00  0.00000000000E+00  0.19364105542E+03  0.19364105542E+03  0.00000000000E+00 0.  1.
          4   -1    0    0  501    0  0.00000000000E+00 -0.00000000000E+00 -0.60024185015E+02  0.60024185015E+02  0.00000000000E+00 0. -1.
         25    2    1    2    0    0  0.31569067330E+02  0.10721263167E+02  0.72930231940E+02  0.14858365084E+03  0.12508689408E+03 0.  0.
         23    2    1    2    0    0 -0.31569067330E+02 -0.10721263167E+02  0.60686638467E+02  0.10508158960E+03  0.79042525821E+02 0.  0.
          5    1    3    3  502    0  0.60965862833E+02 -0.32022991533E+02  0.67053042876E+02  0.96207543242E+02  0.41800000000E+01 0. -1.
         -5    1    3    3    0  502 -0.29396795504E+02  0.42744254699E+02  0.58771890638E+01  0.52376107597E+02  0.41800000000E+01 0. -1.
        -11    1    4    4    0    0 -0.27694043970E+01  0.13038048168E+02  0.66033550055E+02  0.67365347425E+02  0.00000000000E+00 0.  1.
         11    1    4    4    0    0 -0.28799662933E+02 -0.23759311335E+02 -0.53469115889E+01  0.37716242174E+02  0.00000000000E+00 0. -1.
</event>
<event>
 8    1  0.3719512E-009  0.8294513E+02  0.7561462E-02  0.1320895E+00
         -1   -1    0    0    0  501 -0.00000000000E+00  0.00000000000E+00  0.22745722098E+03  0.22745722098E+03  0.00000000000E+00 0.  1.
          1   -1    0    0  501    0  0.00000000000E+00 -0.00000000000E+00 -0.87404465096E+02  0.87404465096E+02  0.00000000000E+00 0. -1.
         25    2    1    2    0    0 -0.35749590045E+02  0.43624635032E+02  0.15285430103E+03  0.20540845642E+03  0.12508818752E+03 0.  0.
         23    2    1    2    0    0  0.35749590045E+02 -0.43624635032E+02 -0.12801545146E+02  0.10945322965E+03  0.92924635877E+02 0.  0.
          5    1    3    3  502    0  0.12069431379E+02  0.19002904928E+02  0.14962217354E+03  0.15136396131E+03  0.41800000000E+01 0. -1.
         -5    1    3    3    0  502 -0.47819021425E+02  0.24621730104E+02  0.32321274860E+01  0.54044495107E+02  0.41800000000E+01 0. -1.
        -11    1    4    4    0    0  0.25430682299E+02  0.14996748818E+02 -0.35122885110E+02  0.45882884998E+02  0.00000000000E+00 0. -1.
         11    1    4    4    0    0  0.10318907747E+02 -0.58621383850E+02  0.22321339964E+02  0.63570344653E+02  0.00000000000E+00 0.  1.
</event>
<event>
 8    1  0.3719512E-009  0.1361319E+03  0.7561462E-02  0.1218631E+00
          3   -1    0    0  501    0  0.00000000000E+00  0.00000000000E+00  0.51345027560E+02  0.51345027560E+02  0.00000000000E+00 0. -1.
         -3   -1    0    0    0  501 -0.00000000000E+00 -0.00000000000E+00 -0.39932635660E+03  0.39932635660E+03  0.00000000000E+00 0.  1.
         25    2    1    2    0    0 -0.84638036844E+02  0.28017703170E+02 -0.13889459009E+03  0.20709172314E+03  0.12508671259E+03 0.  0.
         23    2    1    2    0    0  0.84638036844E+02 -0.28017703170E+02 -0.20908673896E+03  0.24357966102E+03  0.87551115842E+02 0.  0.
          5    1    3    3  502    0 -0.51549128888E+02 -0.47914571978E+02 -0.68702300888E+02  0.98440832200E+02  0.41800000000E+01 0. -1.
         -5    1    3    3    0  502 -0.33088907956E+02  0.75932275148E+02 -0.70192289198E+02  0.10865089094E+03  0.41800000000E+01 0. -1.
        -11    1    4    4    0    0  0.14897852463E+02  0.26436917618E+02 -0.91635322755E+02  0.96529213182E+02  0.00000000000E+00 0.  1.
         11    1    4    4    0    0  0.69740184381E+02 -0.54454620789E+02 -0.11745141620E+03  0.14705044784E+03  0.00000000000E+00 0. -1.
</event>
<event>
 8    1  0.3719512E-009  0.1125379E+03  0.7561462E-02  0.1255941E+00
          3   -1    0    0  501    0  0.00000000000E+00  0.00000000000E+00  0.49181682029E+02  0.49181682029E+02  0.00000000000E+00 0. -1.
         -3   -1    0    0    0  501 -0.00000000000E+00 -0.00000000000E+00 -0.34558213841E+03  0.34558213841E+03  0.00000000000E+00 0.  1.
         25    2    1    2    0    0 -0.66327719790E+02 -0.16192288662E+02 -0.12696794388E+03  0.19086600692E+03  0.12508963666E+03 0.  0.
         23    2    1    2    0    0  0.66327719790E+02  0.16192288662E+02 -0.16943251250E+03  0.20389781352E+03  0.90583582624E+02 0.  0.
          5    1    3    3  502    0 -0.97046606512E+02  0.11606606661E+02 -0.10600334122E+03  0.14424610186E+03  0.41800000000E+01 0.  1.
         -5    1    3    3    0  502  0.30718886722E+02 -0.27798895323E+02 -0.20964602661E+02  0.46619905055E+02  0.41800000000E+01 0.  1.
        -11    1    4    4    0    0  0.65206282145E+02 -0.40526504147E+01 -0.48729550164E+02  0.81503694798E+02  0.00000000000E+00 0. -1.
         11    1    4    4    0    0  0.11214376451E+01  0.20244939077E+02 -0.12070296234E+03  0.12239411872E+03  0.00000000000E+00 0.  1.
</event>
<event>
 8    1  0.3719512E-009  0.1840811E+03  0.7561462E-02  0.1163911E+00
         -1   -1    0    0    0  501 -0.00000000000E+00  0.00000000000E+00  0.11942687439E+03  0.11942687439E+03  0.00000000000E+00 0.  1.
          1   -1    0    0  501    0  0.00000000000E+00 -0.00000000000E+00 -0.34243238768E+03  0.34243238768E+03  0.00000000000E+00 0. -1.
         25    2    1    2    0    0 -0.58280454003E+02  0.15861817901E+03 -0.14744793369E+03  0.25679538412E+03  0.12508652255E+03 0.  0.
         23    2    1    2    0    0  0.58280454003E+02 -0.15861817901E+03 -0.75557579594E+02  0.20506387796E+03  0.88237793363E+02 0.  0.
          5    1    3    3  502    0 -0.67124209405E+02  0.71759314862E+02 -0.13717137348E+03  0.16878541661E+03  0.41800000000E+01 0. -1.
         -5    1    3    3    0  502  0.88437554023E+01  0.86858864147E+02 -0.10276560210E+02  0.88009967506E+02  0.41800000000E+01 0. -1.
        -11    1    4    4    0    0 -0.15130996141E+02 -0.41593846833E+02 -0.45915557744E+02  0.63774866378E+02  0.00000000000E+00 0.  1.
         11    1    4    4    0    0  0.73411450144E+02 -0.11702433218E+03 -0.29642021850E+02  0.14128901158E+03  0.00000000000E+00 0. -1.
</event>
<event>
 8    1  0.3719512E-009  0.1375788E+03  0.7561462E-02  0.1216624E+00
         -1   -1    0    0    0  501 -0.00000000000E+00  0.00000000000E+00  0.55528157984E+03  0.55528157984E+03  0.00000000000E+00 0.  1.
          1   -1    0    0  501    0  0.00000000000E+00 -0.00000000000E+00 -0.39445630237E+02  0.39445630237E+02  0.00000000000E+00 0. -1.
         25    2    1    2    0    0  0.40210583260E+02 -0.91188530889E+02  0.24938366900E+03  0.29626384313E+03  0.12509121156E+03 0.  0.
         23    2    1    2    0    0 -0.40210583260E+02  0.91188530889E+02  0.26645228060E+03  0.29846336695E+03  0.90284685296E+02 0.  0.
          5    1    3    3  502    0 -0.95850024632E+01 -0.10348725909E+03  0.19733490015E+03  0.22306954136E+03  0.41800000000E+01 0. -1.
         -5    1    3    3    0  502  0.49795585724E+02  0.12298728196E+02  0.52048768852E+02  0.73194301771E+02  0.41800000000E+01 0. -1.
        -11    1    4    4    0    0 -0.58793046199E+02  0.72254395593E+02  0.25107765030E+03  0.26780087088E+03  0.00000000000E+00 0.  1.
         11    1    4    4    0    0  0.18582462938E+02  0.18934135296E+02  0.15374630309E+02  0.30662496073E+02  0.00000000000E+00 0. -1.
</event>
<event>
 8    1  0.3719512E-009  0.1057841E+03  0.7561462E-02  0.1268582E+00
         -1   -1    0    0    0  501 -0.00000000000E+00  0.00000000000E+00  0.99835082984E+02  0.99835082984E+02  0.00000000000E+00 0.  1.
          1   -1    0    0  501    0  0.00000000000E+00 -0.00000000000E+00 -0.12438114905E+03  0.12438114905E+03  0.00000000000E+00 0. -1.
         25    2    1    2    0    0 -0.13272769198E+02 -0.78774452936E+00  0.64334372906E+01  0.12596127517E+03  0.12509223310E+03 0.  0.
         23    2    1    2    0    0  0.13272769198E+02  0.78774452936E+00 -0.30979503357E+02  0.98254956867E+02  0.92290411078E+02 0.  0.
          5    1    3    3  502    0 -0.65743005796E+02  0.64844209159E+01 -0.16291336871E+02  0.68169425572E+02  0.41800000000E+01 0.  1.
         -5    1    3    3    0  502  0.52470236598E+02 -0.72721654453E+01  0.22724774161E+02  0.57791849595E+02  0.41800000000E+01 0.  1.
        -11    1    4    4    0    0 -0.35506653119E+02 -0.18192121324E+02 -0.63131561466E+01  0.40392222451E+02  0.00000000000E+00 0.  1.
         11    1    4    4    0    0  0.48779422317E+02  0.18979865853E+02 -0.24666347210E+02  0.57862734416E+02  0.00000000000E+00 0. -1.
</event>
<event>
 8    1  0.3719512E-009  0.8981774E+02  0.7561462E-02  0.1303294E+00
         -1   -1    0    0    0  501 -0.00000000000E+00  0.00000000000E+00  0.13736769457E+03  0.13736769457E+03  0.00000000000E+00 0.  1.
          1   -1    0    0  501    0  0.00000000000E+00 -0.00000000000E+00 -0.12681467616E+03  0.12681467616E+03  0.00000000000E+00 0. -1.
         25    2    1    2    0    0 -0.18501907687E+02  0.60543289498E+02  0.44632589451E+02  0.14713114484E+03  0.12509074806E+03 0.  0.
         23    2    1    2    0    0  0.18501907687E+02 -0.60543289498E+02 -0.34079571043E+02  0.11705122589E+03  0.92367536664E+02 0.  0.
          5    1    3    3  502    0 -0.23863465645E+02  0.46392582990E+02  0.87233560751E+02  0.10172955947E+03  0.41800000000E+01 0. -1.
         -5    1    3    3    0  502  0.53615579583E+01  0.14150706508E+02 -0.42600971300E+02  0.45401585371E+02  0.41800000000E+01 0. -1.
        -11    1    4    4    0    0 -0.25952741714E+02  0.10333676273E+02 -0.12773779156E+02  0.30716430485E+02  0.00000000000E+00 0. -1.
         11    1    4    4    0    0  0.44454649401E+02 -0.70876965771E+02 -0.21305791887E+02  0.86334795409E+02  0.00000000000E+00 0.  1.
</event>
<event>
 8    1  0.3719512E-009  0.1882195E+03  0.7561462E-02  0.1160077E+00
          2   -1    0    0  501    0  0.00000000000E+00  0.00000000000E+00  0.12156911809E+04  0.12156911809E+04  0.00000000000E+00 0. -1.
         -2   -1    0    0    0  501 -0.00000000000E+00 -0.00000000000E+00 -0.39168228731E+02  0.39168228731E+02  0.00000000000E+00 0.  1.
         25    2    1    2    0    0 -0.15861584818E+03  0.65724356317E+02  0.83855926317E+03  0.86504833103E+03  0.12509316076E+03 0.  0.
         23    2    1    2    0    0  0.15861584818E+03 -0.65724356317E+02  0.33796368904E+03  0.38981107864E+03  0.90854518934E+02 0.  0.
          5    1    3    3  502    0  0.80712624621E+01 -0.14437931149E+02  0.22258923713E+02  0.28045163905E+02  0.41800000000E+01 0. -1.
         -5    1    3    3    0  502 -0.16668711065E+03  0.80162287466E+02  0.81630033945E+03  0.83700316713E+03  0.41800000000E+01 0. -1.
        -11    1    4    4    0    0  0.68809052506E+02 -0.44955318351E+02  0.24696625134E+03  0.26028445143E+03  0.00000000000E+00 0.  1.
         11    1    4    4    0    0  0.89806795678E+02 -0.20769037966E+02  0.90997437700E+02  0.12952662721E+03  0.00000000000E+00 0. -1.
</event>
<event>
 8    1  0.3719512E-009  0.1181630E+03  0.7561462E-02  0.1246159E+00
          1   -1    0    0  501    0  0.00000000000E+00  0.00000000000E+00  0.86066554997E+03  0.86066554997E+03  0.00000000000E+00 0. -1.
         -1   -1    0    0    0  501 -0.00000000000E+00 -0.00000000000E+00 -0.18983789828E+02  0.18983789828E+02  0.00000000000E+00 0.  1.
         25    2    1    2    0    0  0.16813050041E+02  0.60532017974E+02  0.38419402436E+03  0.40890082599E+03  0.12509209925E+03 0.  0.
         23    2    1    2    0    0 -0.16813050041E+02 -0.60532017974E+02  0.45748773578E+03  0.47074851380E+03  0.91445781761E+02 0.  0.
          5    1    3    3  502    0  0.31580842895E+02  0.88332767921E+02  0.18792408092E+03  0.21007846181E+03  0.41800000000E+01 0. -1.
         -5    1    3    3    0  502 -0.14767792854E+02 -0.27800749947E+02  0.19626994344E+03  0.19882236419E+03  0.41800000000E+01 0. -1.
        -11    1    4    4    0    0 -0.49296776318E+02 -0.95438902443E+01  0.22425547785E+03  0.22980813159E+03  0.00000000000E+00 0. -1.
         11    1    4    4    0    0  0.32483726276E+02 -0.50988127730E+02  0.23323225793E+03  0.24094038221E+03  0.00000000000E+00 0.  1.
</event>
<event>
 8    1  0.3719512E-009  0.1288252E+03  0.7561462E-02  0.1229209E+00
         -1   -1    0    0    0  501 -0.00000000000E+00  0.00000000000E+00  0.64214481299E+03  0.64214481299E+03  0.00000000000E+00 0.  1.
          1   -1    0    0  501    0  0.00000000000E+00 -0.00000000000E+00 -0.44578946411E+02  0.44578946411E+02  0.00000000000E+00 0. -1.
         25    2    1    2    0    0  0.93701207403E+01 -0.11220676221E+03  0.44622891330E+03  0.47691006409E+03  0.12507921298E+03 0.  0.
         23    2    1    2    0    0 -0.93701207403E+01  0.11220676221E+03  0.15133695329E+03  0.20981369531E+03  0.91873590668E+02 0.  0.
          5    1    3    3  502    0  0.32099723386E+02 -0.83419040154E+02  0.42501536390E+03  0.43433243081E+03  0.41800000000E+01 0.  1.
         -5    1    3    3    0  502 -0.22729602646E+02 -0.28787722061E+02  0.21213549399E+02  0.42577633283E+02  0.41800000000E+01 0.  1.
        -11    1    4    4    0    0 -0.36717042180E+02  0.41326795899E+02  0.11051050539E+03  0.12356624559E+03  0.00000000000E+00 0.  1.
         11    1    4    4    0    0  0.27346921440E+02  0.70879966315E+02  0.40826447891E+02  0.86247449727E+02  0.00000000000E+00 0. -1.
</event>
<event>
 8    1  0.3719512E-009  0.1156882E+03  0.7561462E-02  0.1250385E+00
          1   -1    0    0  501    0  0.00000000000E+00  0.00000000000E+00  0.19648497982E+03  0.19648497982E+03  0.00000000000E+00 0. -1.
         -1   -1    0    0    0  501 -0.00000000000E+00 -0.00000000000E+00 -0.13974146303E+03  0.13974146303E+03  0.00000000000E+00 0.  1.
         25    2    1    2    0    0 -0.72136989021E+02 -0.37502572025E+02 -0.66979422496E+02  0.16353859122E+03  0.12509372361E+03 0.  0.
         23    2    1    2    0    0  0.72136989021E+02  0.37502572025E+02  0.12372293929E+03  0.17268785163E+03  0.88901857687E+02 0.  0.
          5    1    3    3  502    0 -0.68032711261E+02  0.48242357427E+01 -0.91556547975E+02  0.11424446126E+03  0.41800000000E+01 0.  1.
         -5    1    3    3    0  502 -0.41042777605E+01 -0.42326807768E+02  0.24577125478E+02  0.49294129960E+02  0.41800000000E+01 0.  1.
        -11    1    4    4    0    0  0.32839213013E+02 -0.28511252169E+02  0.40512671045E+02  0.59435527480E+02  0.00000000000E+00 0.  1.
         11    1    4    4    0    0  0.39297776008E+02  0.66013824194E+02  0.83210268244E+02  0.11325232415E+03  0.00000000000E+00 0. -1.
</event>
<event>
 8    1  0.3719512E-009  0.5968001E+02  0.7561462E-02  0.1399180E+00
         -1   -1    0    0    0  501 -0.00000000000E+00  0.00000000000E+00  0.22478635477E+03  0.22478635477E+03  0.00000000000E+00 0.  1.
          1   -1    0    0  501    0  0.00000000000E+00 -0.00000000000E+00 -0.75359258241E+02  0.75359258241E+02  0.00000000000E+00 0. -1.
         25    2    1    2    0    0  0.82395379449E+01 -0.32093039528E+02  0.93367911657E+01  0.12973917980E+03  0.12508887214E+03 0.  0.
         23    2    1    2    0    0 -0.82395379449E+01  0.32093039528E+02  0.14009030536E+03  0.17040643321E+03  0.91187749465E+02 0.  0.
          5    1    3    3  502    0 -0.44108803193E+01  0.59817937051E+01  0.62458286120E+02  0.63037668312E+02  0.41800000000E+01 0.  1.
         -5    1    3    3    0  502  0.12650418264E+02 -0.38074833233E+02 -0.53121494955E+02  0.66701511484E+02  0.41800000000E+01 0.  1.
        -11    1    4    4    0    0  0.12068641422E+02 -0.14974587281E+02 -0.20150944367E+01  0.19337812069E+02  0.00000000000E+00 0. -1.
         11    1    4    4    0    0 -0.20308179367E+02  0.47067626809E+02  0.14210539980E+03  0.15106862114E+03  0.00000000000E+00 0.  1.
</event>
<event>
 8    1  0.3719512E-009  0.2112348E+03  0.7561462E-02  0.1140592E+00
         -1   -1    0    0    0  501 -0.00000000000E+00  0.00000000000E+00  0.12033339736E+03  0.12033339736E+03  0.00000000000E+00 0.  1.
          1   -1    0    0  501    0  0.00000000000E+00 -0.00000000000E+00 -0.42658723622E+03  0.42658723622E+03  0.00000000000E+00 0. -1.
         25    2    1    2    0    0  0.13276983327E+03  0.12632486831E+03 -0.73627814763E+02  0.23378184072E+03  0.12508834064E+03 0.  0.
         23    2    1    2    0    0 -0.13276983327E+03 -0.12632486831E+03 -0.23262602409E+03  0.31313879286E+03  0.10176067771E+03 0.  0.
          5    1    3    3  502    0  0.10045735792E+03  0.17222299628E+02 -0.61888754299E+02  0.11931462054E+03  0.41800000000E+01 0. -1.
         -5    1    3    3    0  502  0.32312475344E+02  0.10910256868E+03 -0.11739060464E+02  0.11446722018E+03  0.41800000000E+01 0. -1.
        -11    1    4    4    0    0  0.22634536549E+01 -0.52792518350E+02 -0.84350985721E+02  0.99535229986E+02  0.00000000000E+00 0. -1.
         11    1    4    4    0    0 -0.13503328692E+03 -0.73532349961E+02 -0.14827503837E+03  0.21360356287E+03  0.00000000000E+00 0.  1.
</event>
<event>
 8    1  0.3719512E-009  0.1022171E+03  0.7561462E-02  0.1275702E+00
         -1   -1    0    0    0  501 -0.00000000000E+00  0.00000000000E+00  0.97333907280E+03  0.97333907280E+03  0.00000000000E+00 0.  1.
          1   -1    0    0  501    0  0.00000000000E+00 -0.00000000000E+00 -0.12542955494E+02  0.12542955494E+02  0.00000000000E+00 0. -1.
         25    2    1    2    0    0 -0.34105271074E+02  0.11346134977E+02  0.52686180335E+03  0.54269961609E+03  0.12509040403E+03 0.  0.
         23    2    1    2    0    0  0.34105271074E+02 -0.11346134977E+02  0.43393431396E+03  0.44318241220E+03  0.82581822239E+02 0.  0.
          5    1    3    3  502    0  0.16776740893E+02  0.48844184273E+02  0.11683808389E+03  0.12781167247E+03  0.41800000000E+01 0.  1.
         -5    1    3    3    0  502 -0.50882011967E+02 -0.37498049296E+02  0.41002371945E+03  0.41488794361E+03  0.41800000000E+01 0.  1.
        -11    1    4    4    0    0 -0.11280665955E+02 -0.35929914612E+02  0.21255708431E+03  0.21586738123E+03  0.00000000000E+00 0. -1.
         11    1    4    4    0    0  0.45385937030E+02  0.24583779635E+02  0.22137722964E+03  0.22731503097E+03  0.00000000000E+00 0.  1.
</event>
<event>
 8    1  0.3719512E-009  0.1074623E+03  0.7561462E-02  0.1265343E+00
         -1   -1    0    0    0  501 -0.00000000000E+00  0.00000000000E+00  0.57302389776E+03  0.57302389776E+03  0.00000000000E+00 0.  1.
          1   -1    0    0  501    0  0.00000000000E+00 -0.00000000000E+00 -0.38842741506E+02  0.38842741506E+02  0.00000000000E+00 0. -1.
         25    2    1    2    0    0 -0.85679348419E+02 -0.10998425834E+02  0.39949756989E+03  0.42744280320E+03  0.12508847086E+03 0.  0.
         23    2    1    2    0    0  0.85679348419E+02  0.10998425834E+02  0.13468358637E+03  0.18442383607E+03  0.91709142169E+02 0.  0.
          5    1    3    3  502    0  0.85963975787E+01 -0.14827728454E+02  0.24992802737E+03  0.25054989692E+03  0.41800000000E+01 0. -1.
         -5    1    3    3    0  502 -0.94275745997E+02  0.38293026199E+01  0.14956954252E+03  0.17689290628E+03  0.41800000000E+01 0. -1.
        -11    1    4    4    0    0  0.89979012617E+02 -0.11118995414E+01  0.14311467991E+03  0.16905404650E+03  0.00000000000E+00 0.  1.
         11    1    4    4    0    0 -0.42996641981E+01  0.12110325376E+02 -0.84310935467E+01  0.15369789566E+02  0.00000000000E+00 0. -1.
</event>
<event>
 8    1  0.3719512E-009  0.9415834E+02  0.7561462E-02  0.1293083E+00
          2   -1    0    0  501    0  0.00000000000E+00  0.00000000000E+00  0.61388304906E+03  0.61388304906E+03  0.00000000000E+00 0. -1.
         -2   -1    0    0    0  501 -0.00000000000E+00 -0.00000000000E+00 -0.43955696273E+02  0.43955696273E+02  0.00000000000E+00 0.  1.
         25    2    1    2    0    0  0.58876137272E+02  0.24138114914E+01  0.86769474116E+02  0.16324005601E+03  0.12508456429E+03 0.  0.
         23    2    1    2    0    0 -0.58876137272E+02 -0.24138114914E+01  0.48315787867E+03  0.49459868932E+03  0.87829959176E+02 0.  0.
          5    1    3    3  502    0  0.69285875716E+02  0.97324311490E+01  0.11346777864E+03  0.13337039394E+03  0.41800000000E+01 0. -1.
         -5    1    3    3    0  502 -0.10409738444E+02 -0.73186196576E+01 -0.26698304523E+02  0.29869662076E+02  0.41800000000E+01 0. -1.
        -11    1    4    4    0    0 -0.77145020531E+02 -0.19764601779E+02  0.39293867311E+03  0.40092741800E+03  0.00000000000E+00 0.  1.
         11    1    4    4    0    0  0.18268883259E+02  0.17350790288E+02  0.90219205564E+02  0.93671271325E+02  0.00000000000E+00 0. -1.
</event>
<event>
 8    1  0.3719512E-009  0.1094802E+03  0.7561462E-02  0.1261536E+00
          2   -1    0    0  501    0  0.00000000000E+00  0.00000000000E+00  0.33764912051E+03  0.33764912051E+03  0.00000000000E+00 0. -1.
         -2   -1    0    0    0  501 -0.00000000000E+00 -0.00000000000E+00 -0.57985270027E+02  0.57985270027E+02  0.00000000000E+00 0.  1.
         25    2    1    2    0    0  0.12711534699E+00  0.86937933046E+02  0.17964899052E+03  0.23554923261E+03  0.12510579854E+03 0.  0.
         23    2    1    2    0    0 -0.12711534699E+00 -0.86937933046E+02  0.10001485996E+03  0.16008515793E+03  0.89811275541E+02 0.  0.
          5    1    3    3  502    0  0.18529949427E+02  0.65750853275E+02  0.19257172101E+03  0.20437190087E+03  0.41800000000E+01 0.  1.
         -5    1    3    3    0  502 -0.18402834080E+02  0.21187079771E+02 -0.12922730488E+02  0.31177331744E+02  0.41800000000E+01 0.  1.
        -11    1    4    4    0    0 -0.21495347461E+01 -0.10447353627E+03  0.96181436459E+02  0.14202186099E+03  0.00000000000E+00 0. -1.
         11    1    4    4    0    0  0.20224193991E+01  0.17535603220E+02  0.38334235059E+01  0.18063296938E+02  0.00000000000E+00 0.  1.
</event>
<event>
 8    1  0.3719512E-009  0.8211523E+02  0.7561462E-02  0.1323154E+00
         -4   -1    0    0    0  501 -0.00000000000E+00  0.00000000000E+00  0.33566975870E+02  0.33566975870E+02  0.00000000000E+00 0.  1.
          4   -1    0    0  501    0  0.00000000000E+00 -0.00000000000E+00 -0.36923119882E+03  0.36923119882E+03  0.00000000000E+00 0. -1.
         25    2    1    2    0    0  0.14761692624E+02 -0.16858578748E+02 -0.21289810791E+03  0.24794173194E+03  0.12508948332E+03 0.  0.
         23    2    1    2    0    0 -0.14761692624E+02  0.16858578748E+02 -0.12276611504E+03  0.15485644276E+03  0.91689037589E+02 0.  0.
          5    1    3    3  502    0 -0.36279333713E+02 -0.25617609623E+02 -0.18222903510E+03  0.18760955629E+03  0.41800000000E+01 0. -1.
         -5    1    3    3    0  502  0.51041026337E+02  0.87590308754E+01 -0.30669072813E+02  0.60332175649E+02  0.41800000000E+01 0. -1.
        -11    1    4    4    0    0 -0.43256230378E+01  0.41072264706E+02 -0.12164624542E+03  0.12846575796E+03  0.00000000000E+00 0. -1.
         11    1    4    4    0    0 -0.10436069586E+02 -0.24213685959E+02 -0.11198696216E+01  0.26390684798E+02  0.00000000000E+00 0.  1.
</event>
<event>
 8    1  0.3719512E-009  0.9660996E+02  0.7561462E-02  0.1287591E+00
         -2   -1    0    0    0  501 -0.00000000000E+00  0.00000000000E+00  0.10008733965E+03  0.10008733965E+03  0.00000000000E+00 0.  1.
          2   -1    0    0  501    0  0.00000000000E+00 -0.00000000000E+00 -0.17910379177E+03  0.17910379177E+03  0.00000000000E+00 0. -1.
         25    2    1    2    0    0 -0.83002791619E+01 -0.84625875767E+01  0.40001537495E+02  0.13186505065E+03  0.12509100111E+03 0.  0.
         23    2    1    2    0    0  0.83002791619E+01  0.84625875767E+01 -0.11901798961E+03  0.14732608077E+03  0.86018499179E+02 0.  0.
          5    1    3    3  502    0  0.43964784188E+02  0.29645872764E+02 -0.42840596188E+01  0.53362960820E+02  0.41800000000E+01 0. -1.
         -5    1    3    3    0  502 -0.52265063350E+02 -0.38108460341E+02  0.44285597114E+02  0.78502089833E+02  0.41800000000E+01 0. -1.
        -11    1    4    4    0    0  0.82170202032E+01  0.41433406937E+02 -0.28409596988E+02  0.50905322241E+02  0.00000000000E+00 0.  1.
         11    1    4    4    0    0  0.83258958677E-01 -0.32970819361E+02 -0.90608392624E+02  0.96420758529E+02  0.00000000000E+00 0. -1.
</event>
<event>
 8    1  0.3719512E-009  0.4802699E+03  0.7561462E-02  0.1019061E+00
         -1   -1    0    0    0  501 -0.00000000000E+00  0.00000000000E+00  0.17112379639E+03  0.17112379639E+03  0.00000000000E+00 0.  1.
          1   -1    0    0  501    0  0.00000000000E+00 -0.00000000000E+00 -0.14321296210E+04  0.14321296210E+04  0.00000000000E+00 0. -1.
         25    2    1    2    0    0 -0.10955333031E+03 -0.45987721140E+03 -0.47690179765E+03  0.68306009365E+03  0.12508711041E+03 0.  0.
         23    2    1    2    0    0  0.10955333031E+03  0.45987721140E+03 -0.78410402699E+03  0.92019332376E+03  0.91911077737E+02 0.  0.
          5    1    3    3  502    0 -0.12818029736E+03 -0.35828993833E+03 -0.33167853684E+03  0.50480688658E+03  0.41800000000E+01 0. -1.
         -5    1    3    3    0  502  0.18626967045E+02 -0.10158727307E+03 -0.14522326080E+03  0.17825320707E+03  0.41800000000E+01 0. -1.
        -11    1    4    4    0    0 -0.63954087402E+01  0.87783528538E+01 -0.39017786993E+01  0.11540563626E+02  0.00000000000E+00 0.  1.
         11    1    4    4    0    0  0.11594873905E+03  0.45109885854E+03 -0.78020224829E+03  0.90865276014E+03  0.00000000000E+00 0. -1.
</event>
<event>
 8    1  0.3719512E-009  0.1118441E+03  0.7561462E-02  0.1257193E+00
          2   -1    0    0  501    0  0.00000000000E+00  0.00000000000E+00  0.13214960287E+03  0.13214960287E+03  0.00000000000E+00 0. -1.
         -2   -1    0    0    0  501 -0.00000000000E+00 -0.00000000000E+00 -0.12105347697E+03  0.12105347697E+03  0.00000000000E+00 0.  1.
         25    2    1    2    0    0  0.20717898890E+02  0.55450439972E+02  0.32404415815E+02  0.14212990205E+03  0.12508749044E+03 0.  0.
         23    2    1    2    0    0 -0.20717898890E+02 -0.55450439972E+02 -0.21308289914E+02  0.11107317779E+03  0.91538106699E+02 0.  0.
          5    1    3    3  502    0  0.34690294516E+02 -0.33098044836E+02  0.17198513599E+02  0.51109278763E+02  0.41800000000E+01 0.  1.
         -5    1    3    3    0  502 -0.13972395626E+02  0.88548484808E+02  0.15205902215E+02  0.91020623287E+02  0.41800000000E+01 0.  1.
        -11    1    4    4    0    0 -0.24749382155E+02 -0.68144184373E+02 -0.43967423110E+02  0.84789716805E+02  0.00000000000E+00 0.  1.
         11    1    4    4    0    0  0.40314832653E+01  0.12693744401E+02  0.22659133196E+02  0.26283460986E+02  0.00000000000E+00 0. -1.
</event>
<event>
 8    1  0.3719512E-009  0.1386632E+03  0.7561462E-02  0.1215139E+00
         -2   -1    0    0    0  501 -0.00000000000E+00  0.00000000000E+00  0.21078851549E+03  0.21078851549E+03  0.00000000000E+00 0.  1.
          2   -1    0    0  501    0  0.00000000000E+00 -0.00000000000E+00 -0.11288888863E+03  0.11288888863E+03  0.00000000000E+00 0. -1.
         25    2    1    2    0    0 -0.46483773623E+02 -0.91287335275E+02  0.15340124234E+02  0.16241692907E+03  0.12509924318E+03 0.  0.
         23    2    1    2    0    0  0.46483773623E+02  0.91287335275E+02  0.82559502627E+02  0.16126047505E+03  0.93245646262E+02 0.  0.
          5    1    3    3  502    0 -0.48311882031E+02 -0.10548268121E+01 -0.34228106675E+02  0.59364857378E+02  0.41800000000E+01 0.  1.
         -5    1    3    3    0  502  0.18281084077E+01 -0.90232508463E+02  0.49568230909E+02  0.10305207169E+03  0.41800000000E+01 0.  1.
        -11    1    4    4    0    0  0.55861060452E+01 -0.19550159004E+02  0.10621949792E+02  0.22939902249E+02  0.00000000000E+00 0.  1.
         11    1    4    4    0    0  0.40897667578E+02  0.11083749428E+03  0.71937552835E+02  0.13832057280E+03  0.00000000000E+00 0. -1.
</event>
<event>
 8    1  0.3719512E-009  0.1573087E+03  0.7561462E-02  0.1191769E+00
         -2   -1    0    0    0  501 -0.00000000000E+00  0.00000000000E+00  0.21989629208E+03  0.21989629208E+03  0.00000000000E+00 0.  1.
          2   -1    0    0  501    0  0.00000000000E+00 -0.00000000000E+00 -0.16552418743E+03  0.16552418743E+03  0.00000000000E+00 0. -1.
         25    2    1    2    0    0 -0.12044773136E+03 -0.18133781671E+02 -0.70775170013E+02  0.18839681410E+03  0.12509094630E+03 0.  0.
         23    2    1    2    0    0  0.12044773136E+03  0.18133781671E+02  0.12514727466E+03  0.19702366541E+03  0.91214003034E+02 0.  0.
          5    1    3    3  502    0 -0.13159054432E+03 -0.49485021294E+02 -0.62164010353E+02  0.15377475499E+03  0.41800000000E+01 0.  1.
         -5    1    3    3    0  502  0.11142812964E+02  0.31351239623E+02 -0.86111596600E+01  0.34622059114E+02  0.41800000000E+01 0.  1.
        -11    1    4    4    0    0  0.79644046662E+02 -0.22589248129E+02  0.10953242190E+03  0.13729821466E+03  0.00000000000E+00 0.  1.
         11    1    4    4    0    0  0.40803684698E+02  0.40723029801E+02  0.15614852754E+02  0.59725450752E+02  0.00000000000E+00 0. -1.
</event>
<event>
 8    1  0.3719512E-009  0.8734835E+02  0.7561462E-02  0.1309403E+00
          3   -1    0    0  501    0  0.00000000000E+00  0.00000000000E+00  0.54729501537E+02  0.54729501537E+02  0.00000000000E+00 0. -1.
         -3   -1    0    0    0  501 -0.00000000000E+00 -0.00000000000E+00 -0.25844639718E+03  0.25844639718E+03  0.00000000000E+00 0.  1.
         25    2    1    2    0    0  0.26211030663E+02 -0.26958072785E+02 -0.13045902047E+03  0.18461078453E+03  0.12509128637E+03 0.  0.
         23    2    1    2    0    0 -0.26211030663E+02  0.26958072785E+02 -0.73257875173E+02  0.12856511419E+03  0.98734575981E+02 0.  0.
          5    1    3    3  502    0 -0.13501157271E+02  0.20216808250E+02 -0.11927735615E+03  0.12180131639E+03  0.41800000000E+01 0.  1.
         -5    1    3    3    0  502  0.39712187935E+02 -0.47174881035E+02 -0.11181664315E+02  0.62809468140E+02  0.41800000000E+01 0.  1.
        -11    1    4    4    0    0  0.28061171761E+02  0.10411126413E+01  0.63529373923E+01  0.28790156124E+02  0.00000000000E+00 0. -1.
         11    1    4    4    0    0 -0.54272202424E+02  0.25916960144E+02 -0.79610812565E+02  0.99774958063E+02  0.00000000000E+00 0.  1.
</event>
<event>
 8    1  0.3719512E-009  0.1139638E+03  0.7561462E-02  0.1253401E+00
         -2   -1    0    0    0  501 -0.00000000000E+00  0.00000000000E+00  0.88174600318E+02  0.88174600318E+02  0.00000000000E+00 0.  1.
          2   -1    0    0  501    0  0.00000000000E+00 -0.00000000000E+00 -0.16428191688E+03  0.16428191688E+03  0.00000000000E+00 0. -1.
         25    2    1    2    0    0 -0.22445413504E+02  0.43049644585E+02 -0.60682636623E+02  0.14726615682E+03  0.12509144683E+03 0.  0.
         23    2    1    2    0    0  0.22445413504E+02 -0.43049644585E+02 -0.15424679937E+02  0.10519036038E+03  0.92032726129E+02 0.  0.
          5    1    3    3  502    0  0.45360915507E+02  0.31386984107E+02  0.16950910755E+00  0.55319585685E+02  0.41800000000E+01 0.  1.
         -5    1    3    3    0  502 -0.67806329011E+02  0.11662660478E+02 -0.60852145731E+02  0.91946571135E+02  0.41800000000E+01 0.  1.
        -11    1    4    4    0    0  0.15419311601E+02  0.28170060611E+02 -0.67667713962E+00  0.32121104853E+02  0.00000000000E+00 0.  1.
         11    1    4    4    0    0  0.70261019028E+01 -0.71219705196E+02 -0.14748002797E+02  0.73069255523E+02  0.00000000000E+00 0. -1.
</event>
<event>
 8    1  0.3719512E-009  0.1001889E+03  0.7561462E-02  0.1279899E+00
         -2   -1    0    0    0  501 -0.00000000000E+00  0.00000000000E+00  0.14272204663E+02  0.14272204663E+02  0.00000000000E+00 0.  1.
          2   -1    0    0  501    0  0.00000000000E+00 -0.00000000000E+00 -0.16059819948E+04  0.16059819948E+04  0.00000000000E+00 0. -1.
         25    2    1    2    0    0 -0.28696569257E+02  0.35536071664E+02 -0.13600981946E+04  0.13666018017E+04  0.12508828841E+03 0.  0.
         23    2    1    2    0    0  0.28696569257E+02 -0.35536071664E+02 -0.23161159547E+03  0.25365239772E+03  0.92786325710E+02 0.  0.
          5    1    3    3  502    0 -0.67236534752E+02  0.27842493255E+02 -0.11785243986E+04  0.11807765184E+04  0.41800000000E+01 0.  1.
         -5    1    3    3    0  502  0.38539965495E+02  0.76935784094E+01 -0.18157379604E+03  0.18582528326E+03  0.41800000000E+01 0.  1.
        -11    1    4    4    0    0 -0.25199628348E+02 -0.39921451898E+01 -0.18328307503E+02  0.31414731386E+02  0.00000000000E+00 0.  1.
         11    1    4    4    0    0  0.53896197606E+02 -0.31543926475E+02 -0.21328328796E+03  0.22223766634E+03  0.00000000000E+00 0. -1.
</event>
<event>
 8    1  0.3719512E-009  0.1123681E+03  0.7561462E-02  0.1256246E+00
          2   -1    0    0  501    0  0.00000000000E+00  0.00000000000E+00  0.13403978242E+04  0.13403978242E+04  0.00000000000E+00 0. -1.
         -2   -1    0    0    0  501 -0.00000000000E+00 -0.00000000000E+00 -0.11150038339E+02  0.11150038339E+02  0.00000000000E+00 0.  1.
         25    2    1    2    0    0 -0.25652352260E+02  0.39679481875E+02  0.93714833294E+03  0.94663924645E+03  0.12508541295E+03 0.  0.
         23    2    1    2    0    0  0.25652352260E+02 -0.39679481875E+02  0.39209945294E+03  0.40490861611E+03  0.89311264368E+02 0.  0.
          5    1    3    3  502    0 -0.15574959024E+02  0.80173267638E+02  0.76915864749E+03  0.77349391052E+03  0.41800000000E+01 0.  1.
         -5    1    3    3    0  502 -0.10077393235E+02 -0.40493785764E+02  0.16798968545E+03  0.17314533594E+03  0.41800000000E+01 0.  1.
        -11    1    4    4    0    0 -0.13429428268E+02 -0.56789919492E+02  0.23049145751E+03  0.23776407736E+03  0.00000000000E+00 0.  1.
         11    1    4    4    0    0  0.39081780527E+02  0.17110437617E+02  0.16160799543E+03  0.16714453874E+03  0.00000000000E+00 0. -1.
</event>
<event>
 8    1  0.3719512E-009  0.1351727E+03  0.7561462E-02  0.1219976E+00
          2   -1    0    0  501    0  0.00000000000E+00  0.00000000000E+00  0.62962349936E+03  0.62962349936E+03  0.00000000000E+00 0. -1.
         -2   -1    0    0    0  501 -0.00000000000E+00 -0.00000000000E+00 -0.33908576442E+02  0.33908576442E+02  0.00000000000E+00 0.  1.
         25    2    1    2    0    0 -0.27897420720E+02 -0.92155034083E+02  0.38976120616E+03  0.42051478577E+03  0.12509224929E+03 0.  0.
         23    2    1    2    0    0  0.27897420720E+02  0.92155034083E+02  0.20595371676E+03  0.24301729003E+03  0.85846685551E+02 0.  0.
          5    1    3    3  502    0 -0.51615327695E+02 -0.42688199977E+01  0.23708010177E+03  0.24270725563E+03  0.41800000000E+01 0. -1.
         -5    1    3    3    0  502  0.23717906976E+02 -0.87886214086E+02  0.15268110439E+03  0.17780753014E+03  0.41800000000E+01 0. -1.
        -11    1    4    4    0    0  0.21176890092E+02  0.10799540986E+03  0.16229081857E+03  0.19608615203E+03  0.00000000000E+00 0.  1.
         11    1    4    4    0    0  0.67205306281E+01 -0.15840375776E+02  0.43662898185E+02  0.46931138007E+02  0.00000000000E+00 0. -1.
</event>
<event>
 8    1  0.3719512E-009  0.1824920E+03  0.7561462E-02  0.1165413E+00
         -1   -1    0    0    0  501 -0.00000000000E+00  0.00000000000E+00  0.12822475322E+03  0.12822475322E+03  0.00000000000E+00 0.  1.
          1   -1    0    0  501    0  0.00000000000E+00 -0.00000000000E+00 -0.32782405104E+03  0.32782405104E+03  0.00000000000E+00 0. -1.
         25    2    1    2    0    0  0.15637984998E+03 -0.31205328040E+02 -0.18170851117E+03  0.27220146679E+03  0.12508887046E+03 0.  0.
         23    2    1    2    0    0 -0.15637984998E+03  0.31205328040E+02 -0.17890786647E+02  0.18384733747E+03  0.89729221939E+02 0.  0.
          5    1    3    3  502    0  0.69202981853E+02  0.48182724966E+02 -0.82645125971E+02  0.11814532123E+03  0.41800000000E+01 0. -1.
         -5    1    3    3    0  502  0.87176868123E+02 -0.79388053006E+02 -0.99063385200E+02  0.15405614555E+03  0.41800000000E+01 0. -1.
        -11    1    4    4    0    0 -0.11955744656E+03  0.97439999702E+01  0.25923536308E+02  0.12272309602E+03  0.00000000000E+00 0.  1.
         11    1    4    4    0    0 -0.36822403420E+02  0.21461328069E+02 -0.43814322954E+02  0.61124241444E+02  0.00000000000E+00 0. -1.
</event>
<event>
 8    1  0.3719512E-009  0.1105876E+03  0.7561462E-02  0.1259486E+00
         -1   -1    0    0    0  501 -0.00000000000E+00  0.00000000000E+00  0.12475789282E+04  0.12475789282E+04  0.00000000000E+00 0.  1.
          1   -1    0    0  501    0  0.00000000000E+00 -0.00000000000E+00 -0.11115509268E+02  0.11115509268E+02  0.00000000000E+00 0. -1.
         25    2    1    2    0    0 -0.48458940221E+02  0.53423813076E+01  0.68227962391E+03  0.69536317092E+03  0.12509054457E+03 0.  0.
         23    2    1    2    0    0  0.48458940221E+02 -0.53423813076E+01  0.55418379503E+03  0.56333126656E+03  0.88575545627E+02 0.  0.
          5    1    3    3  502    0 -0.44512355010E+02 -0.48490359133E+02  0.52281677361E+03  0.52696063975E+03  0.41800000000E+01 0. -1.
         -5    1    3    3    0  502 -0.39465852113E+01  0.53832740440E+02  0.15946285030E+03  0.16840253117E+03  0.41800000000E+01 0. -1.
        -11    1    4    4    0    0  0.52693806581E+02  0.33216903321E+02  0.33534964668E+03  0.34108559841E+03  0.00000000000E+00 0.  1.
         11    1    4    4    0    0 -0.42348663595E+01 -0.38559284629E+02  0.21883414836E+03  0.22224566815E+03  0.00000000000E+00 0. -1.
</event>
<event>
 8    1  0.3719512E-009  0.7210563E+02  0.7561462E-02  0.1353076E+00
          1   -1    0    0  501    0  0.00000000000E+00  0.00000000000E+00  0.90556598006E+02  0.90556598006E+02  0.00000000000E+00 0. -1.
         -1   -1    0    0    0  501 -0.00000000000E+00 -0.00000000000E+00 -0.16132771339E+03  0.16132771339E+03  0.00000000000E+00 0.  1.
         25    2    1    2    0    0 -0.37504471777E+01  0.19111885233E+02  0.11664349469E+02  0.12713393787E+03  0.12509057158E+03 0.  0.
         23    2    1    2    0    0  0.37504471777E+01 -0.19111885233E+02 -0.82435464849E+02  0.12475037352E+03  0.91584495510E+02 0.  0.
          5    1    3    3  502    0 -0.22956258852E+02  0.20432806239E+02  0.64051256715E+02  0.71165478134E+02  0.41800000000E+01 0. -1.
         -5    1    3    3    0  502  0.19205811675E+02 -0.13209210062E+01 -0.52386907246E+02  0.55968459736E+02  0.41800000000E+01 0. -1.
        -11    1    4    4    0    0 -0.26073295437E+02 -0.46301809555E+02 -0.50171214405E+02  0.73080948666E+02  0.00000000000E+00 0.  1.
         11    1    4    4    0    0  0.29823742615E+02  0.27189924322E+02 -0.32264250444E+02  0.51669424856E+02  0.00000000000E+00 0. -1.
</event>
<event>
 8    1  0.3719512E-009  0.2084336E+03  0.7561462E-02  0.1142812E+00
         -2   -1    0    0    0  501 -0.00000000000E+00  0.00000000000E+00  0.25744349230E+02  0.25744349230E+02  0.00000000000E+00 0.  1.
          2   -1    0    0  501    0  0.00000000000E+00 -0.00000000000E+00 -0.20576051993E+04  0.20576051993E+04  0.00000000000E+00 0. -1.
         25    2    1    2    0    0 -0.19060266965E+03  0.65191295260E+02 -0.11529478043E+04  0.11770789367E+04  0.12508757421E+03 0.  0.
         23    2    1    2    0    0  0.19060266965E+03 -0.65191295260E+02 -0.87891304579E+03  0.90627061181E+03  0.90879024600E+02 0.  0.
          5    1    3    3  502    0 -0.50863702750E+02  0.14402265099E+01 -0.93358404106E+02  0.10640702292E+03  0.41800000000E+01 0.  1.
         -5    1    3    3    0  502 -0.13973896690E+03  0.63751068750E+02 -0.10595894002E+04  0.10706719138E+04  0.41800000000E+01 0.  1.
        -11    1    4    4    0    0  0.11486310613E+03 -0.42396759385E+01 -0.59971295732E+03  0.61062847884E+03  0.00000000000E+00 0. -1.
         11    1    4    4    0    0  0.75739563524E+02 -0.60951619321E+02 -0.27920008848E+03  0.29564213297E+03  0.00000000000E+00 0.  1.
</event>
<event>
 8    1  0.3719512E-009  0.1092402E+03  0.7561462E-02  0.1261983E+00
         -3   -1    0    0    0  501 -0.00000000000E+00  0.00000000000E+00  0.56050008336E+02  0.56050008336E+02  0.00000000000E+00 0.  1.
          3   -1    0    0  501    0  0.00000000000E+00 -0.00000000000E+00 -0.28844462238E+03  0.28844462238E+03  0.00000000000E+00 0. -1.
         25    2    1    2    0    0  0.53797643828E+02  0.33134548536E+02 -0.15804425448E+03  0.21122679903E+03  0.12508672778E+03 0.  0.
         23    2    1    2    0    0 -0.53797643828E+02 -0.33134548536E+02 -0.74350359564E+02  0.13326783168E+03  0.90775845943E+02 0.  0.
          5    1    3    3  502    0  0.86671173152E+02  0.39147092847E+02 -0.14819801683E+03  0.17613776349E+03  0.41800000000E+01 0.  1.
         -5    1    3    3    0  502 -0.32873529324E+02 -0.60125443106E+01 -0.98462376450E+01  0.35089035539E+02  0.41800000000E+01 0.  1.
        -11    1    4    4    0    0 -0.68376671317E+02 -0.24331734341E+02 -0.86076900941E+02  0.11259056511E+03  0.00000000000E+00 0. -1.
         11    1    4    4    0    0  0.14579027489E+02 -0.88028141952E+01  0.11726541377E+02  0.20677266574E+02  0.00000000000E+00 0.  1.
</event>
<event>
 8    1  0.3719512E-009  0.1549045E+03  0.7561462E-02  0.1194573E+00
         -1   -1    0    0    0  501 -0.00000000000E+00  0.00000000000E+00  0.93720373068E+02  0.93720373068E+02  0.00000000000E+00 0.  1.
          1   -1    0    0  501    0  0.00000000000E+00 -0.00000000000E+00 -0.59373398949E+03  0.59373398949E+03  0.00000000000E+00 0. -1.
         25    2    1    2    0    0  0.12954091080E+03 -0.67037095685E+02 -0.39361099286E+02  0.19614396689E+03  0.12509332453E+03 0.  0.
         23    2    1    2    0    0 -0.12954091080E+03  0.67037095685E+02 -0.46065251714E+03  0.49131039567E+03  0.88940112311E+02 0.  0.
          5    1    3    3  502    0  0.13808460614E+03 -0.63384524623E+02  0.35536062387E+01  0.15203636714E+03  0.41800000000E+01 0. -1.
         -5    1    3    3    0  502 -0.85436953444E+01 -0.36525710621E+01 -0.42914705525E+02  0.44107599751E+02  0.41800000000E+01 0. -1.
        -11    1    4    4    0    0 -0.77699045080E+02  0.52537508742E+02 -0.15668510525E+03  0.18261312559E+03  0.00000000000E+00 0.  1.
         11    1    4    4    0    0 -0.51841865721E+02  0.14499586943E+02 -0.30396741190E+03  0.30869727008E+03  0.00000000000E+00 0. -1.
</event>
<event>
 8    1  0.3719512E-009  0.7664886E+02  0.7561462E-02  0.1338840E+00
         -3   -1    0    0    0  501 -0.00000000000E+00  0.00000000000E+00  0.46213132579E+02  0.46213132579E+02  0.00000000000E+00 0.  1.
          3   -1    0    0  501    0  0.00000000000E+00 -0.00000000000E+00 -0.28328794421E+03  0.28328794421E+03  0.00000000000E+00 0. -1.
         25    2    1    2    0    0 -0.17743967790E+02 -0.30263959247E+02 -0.14673515648E+03  0.19598161326E+03  0.12508729338E+03 0.  0.
         23    2    1    2    0    0  0.17743967790E+02  0.30263959247E+02 -0.90339655148E+02  0.13351946353E+03  0.91844641797E+02 0.  0.
          5    1    3    3  502    0 -0.28639250018E+02 -0.49387070913E+02 -0.10850058073E+02  0.58262213957E+02  0.41800000000E+01 0. -1.
         -5    1    3    3    0  502  0.10895282229E+02  0.19123111666E+02 -0.13588509841E+03  0.13771939930E+03  0.41800000000E+01 0. -1.
        -11    1    4    4    0    0  0.37985885416E+02  0.36287609195E+02 -0.14076728232E+02  0.54386325025E+02  0.00000000000E+00 0.  1.
         11    1    4    4    0    0 -0.20241917627E+02 -0.60236499486E+01 -0.76262926916E+02  0.79133138505E+02  0.00000000000E+00 0. -1.
</event>
<event>
 8    1  0.3719512E-009  0.9144460E+02  0.7561462E-02  0.1299391E+00
          2   -1    0    0  501    0  0.00000000000E+00  0.00000000000E+00  0.83030239067E+03  0.83030239067E+03  0.00000000000E+00 0. -1.
         -2   -1    0    0    0  501 -0.00000000000E+00 -0.00000000000E+00 -0.19582088072E+02  0.19582088072E+02  0.00000000000E+00 0.  1.
         25    2    1    2    0    0 -0.55167255880E+02 -0.28527820336E+02  0.51536528435E+03  0.53395301477E+03  0.12508870057E+03 0.  0.
         23    2    1    2    0    0  0.55167255880E+02  0.28527820336E+02  0.29535501825E+03  0.31593146397E+03  0.93385440357E+02 0.  0.
          5    1    3    3  502    0 -0.47305872637E+02 -0.35615975017E+02  0.51870649658E+03  0.52209218080E+03  0.41800000000E+01 0.  1.
         -5    1    3    3    0  502 -0.78613832430E+01  0.70881546803E+01 -0.33412122253E+01  0.11860833967E+02  0.41800000000E+01 0.  1.
        -11    1    4    4    0    0  0.81754556947E+02  0.23743792091E+02  0.22549889126E+03  0.24103386734E+03  0.00000000000E+00 0. -1.
         11    1    4    4    0    0 -0.26587301066E+02  0.47840282452E+01  0.69856126988E+02  0.74897596637E+02  0.00000000000E+00 0.  1.
</event>
<event>
 8    1  0.3719512E-009  0.1675081E+03  0.7561462E-02  0.1180472E+00
         -2   -1    0    0    0  501 -0.00000000000E+00  0.00000000000E+00  0.63422209427E+02  0.63422209427E+02  0.00000000000E+00 0.  1.
          2   -1    0    0  501    0  0.00000000000E+00 -0.00000000000E+00 -0.52187779053E+03  0.52187779053E+03  0.00000000000E+00 0. -1.
         25    2    1    2    0    0  0.14407747554E+03 -0.66290321411E+00 -0.27421859673E+03  0.33407166825E+03  0.12509709162E+03 0.  0.
         23    2    1    2    0    0 -0.14407747554E+03  0.66290321411E+00 -0.18423698437E+03  0.25122833171E+03  0.91725949686E+02 0.  0.
          5    1    3    3  502    0  0.91690378489E+02  0.42184650506E+02 -0.23487668857E+03  0.25567792529E+03  0.41800000000E+01 0.  1.
         -5    1    3    3    0  502  0.52387097051E+02 -0.42847553720E+02 -0.39341908164E+02  0.78393742960E+02  0.41800000000E+01 0.  1.
        -11    1    4    4    0    0 -0.10984299888E+03  0.37345393108E+02 -0.99937519302E+02  0.15312632221E+03  0.00000000000E+00 0.  1.
         11    1    4    4    0    0 -0.34234476656E+02 -0.36682489894E+02 -0.84299465072E+02  0.98102009501E+02  0.00000000000E+00 0. -1.
</event>
<event>
 8    1  0.3719512E-009  0.7260543E+02  0.7561462E-02  0.1351451E+00
         -3   -1    0    0    0  501 -0.00000000000E+00  0.00000000000E+00  0.49603215192E+02  0.49603215192E+02  0.00000000000E+00 0.  1.
          3   -1    0    0  501    0  0.00000000000E+00 -0.00000000000E+00 -0.25295860404E+03  0.25295860404E+03  0.00000000000E+00 0. -1.
         25    2    1    2    0    0 -0.23836290597E+02  0.53197161857E+01 -0.14699624059E+03  0.19455011402E+03  0.12508150938E+03 0.  0.
         23    2    1    2    0    0  0.23836290597E+02 -0.53197161857E+01 -0.56359148259E+02  0.10801170521E+03  0.88846534768E+02 0.  0.
          5    1    3    3  502    0 -0.47054693803E+02 -0.26945983133E+02 -0.14462145035E+03  0.15450911468E+03  0.41800000000E+01 0. -1.
         -5    1    3    3    0  502  0.23218403206E+02  0.32265699319E+02 -0.23747902362E+01  0.40040999346E+02  0.41800000000E+01 0. -1.
        -11    1    4    4    0    0  0.17461070939E+02  0.18946750928E+02 -0.73327551919E+02  0.77722572265E+02  0.00000000000E+00 0. -1.
         11    1    4    4    0    0  0.63752196586E+01 -0.24266467114E+02  0.16968403660E+02  0.30289132946E+02  0.00000000000E+00 0.  1.
</event>
<event>
 8    1  0.3719512E-009  0.1395098E+03  0.7561462E-02  0.1213990E+00
          3   -1    0    0  501    0  0.00000000000E+00  0.00000000000E+00  0.62720468840E+02  0.62720468840E+02  0.00000000000E+00 0. -1.
         -3   -1    0    0    0  501 -0.00000000000E+00 -0.00000000000E+00 -0.44468058487E+03  0.44468058487E+03  0.00000000000E+00 0.  1.
         25    2    1    2    0    0 -0.12335455159E+03 -0.12212059951E+02 -0.16795527043E+03  0.24335620949E+03  0.12509113488E+03 0.  0.
         23    2    1    2    0    0  0.12335455159E+03  0.12212059951E+02 -0.21400484560E+03  0.26404484423E+03  0.92499329813E+02 0.  0.
          5    1    3    3  502    0 -0.11505237692E+03  0.18895656659E+02 -0.17481664355E+03  0.21017237339E+03  0.41800000000E+01 0.  1.
         -5    1    3    3    0  502 -0.83021746719E+01 -0.31107716610E+02  0.68613731190E+01  0.33183836096E+02  0.41800000000E+01 0.  1.
        -11    1    4    4    0    0  0.37520005111E+01  0.95404991703E+01  0.72238785670E+01  0.12541254076E+02  0.00000000000E+00 0. -1.
         11    1    4    4    0    0  0.11960255108E+03  0.26715607804E+01 -0.22122872417E+03  0.25150359015E+03  0.00000000000E+00 0.  1.
</event>
<event>
 8    1  0.3719512E-009  0.8480851E+02  0.7561462E-02  0.1315934E+00
          1   -1    0    0  501    0  0.00000000000E+00  0.00000000000E+00  0.42057943291E+03  0.42057943291E+03  0.00000000000E+00 0. -1.
         -1   -1    0    0    0  501 -0.00000000000E+00 -0.00000000000E+00 -0.29715499870E+02  0.29715499870E+02  0.00000000000E+00 0.  1.
         25    2    1    2    0    0  0.11607346668E+02  0.26472872260E+02  0.22658110951E+03  0.26042790615E+03  0.12509257234E+03 0.  0.
         23    2    1    2    0    0 -0.11607346668E+02 -0.26472872260E+02  0.16428282353E+03  0.18986702662E+03  0.90692327299E+02 0.  0.
          5    1    3    3  502    0 -0.22809267169E+02  0.38839534023E+02  0.18099939996E+02  0.48722195145E+02  0.41800000000E+01 0. -1.
         -5    1    3    3    0  502  0.34416613837E+02 -0.12366661763E+02  0.20848116952E+03  0.21170571101E+03  0.41800000000E+01 0. -1.
        -11    1    4    4    0    0 -0.36466353979E+01 -0.56444233482E+02  0.66586335817E+02  0.87366982096E+02  0.00000000000E+00 0.  1.
         11    1    4    4    0    0 -0.79607112705E+01  0.29971361222E+02  0.97696487709E+02  0.10250004453E+03  0.00000000000E+00 0. -1.
</event>
<event>
 8    1  0.3719512E-009  0.9206597E+02  0.7561462E-02  0.1297924E+00
          1   -1    0    0  501    0  0.00000000000E+00  0.00000000000E+00  0.15536016673E+03  0.15536016673E+03  0.00000000000E+00 0. -1.
         -1   -1    0    0    0  501 -0.00000000000E+00 -0.00000000000E+00 -0.89089561756E+02  0.89089561756E+02  0.00000000000E+00 0.  1.
         25    2    1    2    0    0  0.45398979824E+02 -0.12068104740E+02  0.44947895873E+02  0.14097616917E+03  0.12508900995E+03 0.  0.
         23    2    1    2    0    0 -0.45398979824E+02  0.12068104740E+02  0.21322709098E+02  0.10347355931E+03  0.89696226409E+02 0.  0.
          5    1    3    3  502    0 -0.41319256514E+02 -0.18275899543E+02  0.24501599453E+02  0.51566367321E+02  0.41800000000E+01 0. -1.
         -5    1    3    3    0  502  0.86718236338E+02  0.62077948026E+01  0.20446296420E+02  0.89409801852E+02  0.41800000000E+01 0. -1.
        -11    1    4    4    0    0 -0.19627668359E+02  0.16409280160E+02 -0.33846353749E+02  0.42427414518E+02  0.00000000000E+00 0.  1.
         11    1    4    4    0    0 -0.25771311465E+02 -0.43411754197E+01  0.55169062847E+02  0.61046144792E+02  0.00000000000E+00 0. -1.
</event>
<event>
 8    1  0.3719512E-009  0.1125746E+03  0.7561462E-02  0.1255875E+00
          1   -1    0    0  501    0  0.00000000000E+00  0.00000000000E+00  0.31015695277E+02  0.31015695277E+02  0.00000000000E+00 0. -1.
         -1   -1    0    0    0  501 -0.00000000000E+00 -0.00000000000E+00 -0.45321283798E+03  0.45321283798E+03  0.00000000000E+00 0.  1.
         25    2    1    2    0    0  0.35898470723E+02  0.28586512121E+02 -0.26032180213E+03  0.29243715761E+03  0.12508461780E+03 0.  0.
         23    2    1    2    0    0 -0.35898470723E+02 -0.28586512121E+02 -0.16187534058E+03  0.19179137565E+03  0.92056596790E+02 0.  0.
          5    1    3    3  502    0  0.52415828317E+01  0.73595436960E+02 -0.18649367971E+03  0.20060191301E+03  0.41800000000E+01 0.  1.
         -5    1    3    3    0  502  0.30656887891E+02 -0.45008924839E+02 -0.73828122426E+02  0.91835244603E+02  0.41800000000E+01 0.  1.
        -11    1    4    4    0    0  0.21662801814E+02 -0.32365231240E+02 -0.99400834020E+02  0.10675818929E+03  0.00000000000E+00 0.  1.
         11    1    4    4    0    0 -0.57561272537E+02  0.37787191197E+01 -0.62474506555E+02  0.85033186366E+02  0.00000000000E+00 0. -1.
</event>
<event>
 8    1  0.3719512E-009  0.1162479E+03  0.7561462E-02  0.1249418E+00
         -1   -1    0    0    0  501 -0.00000000000E+00  0.00000000000E+00  0.14339514219E+03  0.14339514219E+03  0.00000000000E+00 0.  1.
          1   -1    0    0  501    0  0.00000000000E+00 -0.00000000000E+00 -0.14326125750E+03  0.14326125750E+03  0.00000000000E+00 0. -1.
         25    2    1    2    0    0  0.70977617220E+02 -0.19642933650E+02  0.56613777748E+02  0.15580817269E+03  0.12508956734E+03 0.  0.
         23    2    1    2    0    0 -0.70977617220E+02  0.19642933650E+02 -0.56479893056E+02  0.13084822700E+03  0.92236723714E+02 0.  0.
          5    1    3    3  502    0  0.10069291625E+03 -0.28520544691E+02  0.65180704886E+02  0.12336320984E+03  0.41800000000E+01 0. -1.
         -5    1    3    3    0  502 -0.29715299025E+02  0.88776110406E+01 -0.85669271376E+01  0.32444962853E+02  0.41800000000E+01 0. -1.
        -11    1    4    4    0    0 -0.76293966869E+02  0.32213681752E+02 -0.11216917243E+02  0.83572183800E+02  0.00000000000E+00 0.  1.
         11    1    4    4    0    0  0.53163496491E+01 -0.12570748102E+02 -0.45262975813E+02  0.47276043203E+02  0.00000000000E+00 0. -1.
</event>
<event>
 8    1  0.3719512E-009  0.1416283E+03  0.7561462E-02  0.1211155E+00
         -1   -1    0    0    0  501 -0.00000000000E+00  0.00000000000E+00  0.36375168414E+02  0.36375168414E+02  0.00000000000E+00 0.  1.
          1   -1    0    0  501    0  0.00000000000E+00 -0.00000000000E+00 -0.77349365669E+03  0.77349365669E+03  0.00000000000E+00 0. -1.
         25    2    1    2    0    0 -0.73115724728E+02 -0.53954570984E+02 -0.17676146242E+03  0.23483929334E+03  0.12509146321E+03 0.  0.
         23    2    1    2    0    0  0.73115724728E+02  0.53954570984E+02 -0.56035702586E+03  0.57502953176E+03  0.91662211618E+02 0.  0.
          5    1    3    3  502    0 -0.26344057655E+02 -0.90818992243E+02 -0.11492597436E+03  0.14888771175E+03  0.41800000000E+01 0. -1.
         -5    1    3    3    0  502 -0.46771667073E+02  0.36864421259E+02 -0.61835488054E+02  0.85951581594E+02  0.41800000000E+01 0. -1.
        -11    1    4    4    0    0  0.94562928692E+02  0.36926538582E+02 -0.42890279779E+03  0.44075313577E+03  0.00000000000E+00 0. -1.
         11    1    4    4    0    0 -0.21447203964E+02  0.17028032402E+02 -0.13145422806E+03  0.13427639599E+03  0.00000000000E+00 0.  1.
</event>
<event>
 8    1  0.3719512E-009  0.1058462E+03  0.7561462E-02  0.1268461E+00
          1   -1    0    0  501    0  0.00000000000E+00  0.00000000000E+00  0.14364652361E+03  0.14364652361E+03  0.00000000000E+00 0. -1.
         -1   -1    0    0    0  501 -0.00000000000E+00 -0.00000000000E+00 -0.12612936249E+03  0.12612936249E+03  0.00000000000E+00 0.  1.
         25    2    1    2    0    0 -0.12773477880E+02 -0.76667535946E+02  0.28462181147E+02  0.14999485504E+03  0.12508912014E+03 0.  0.
         23    2    1    2    0    0  0.12773477880E+02  0.76667535946E+02 -0.10945020026E+02  0.11978103106E+03  0.90479992999E+02 0.  0.
          5    1    3    3  502    0  0.45260035638E+02 -0.41472187978E+02 -0.21969598149E+02  0.65334132309E+02  0.41800000000E+01 0. -1.
         -5    1    3    3    0  502 -0.58033513518E+02 -0.35195347967E+02  0.50431779296E+02  0.84660722727E+02  0.41800000000E+01 0. -1.
        -11    1    4    4    0    0  0.20654162583E+02  0.63933970172E+02  0.31913573242E+02  0.74381604790E+02  0.00000000000E+00 0. -1.
         11    1    4    4    0    0 -0.78806847034E+01  0.12733565773E+02 -0.42858593268E+02  0.45399426270E+02  0.00000000000E+00 0.  1.
</event>
<event>
 8    1  0.3719512E-009  0.2145081E+03  0.7561462E-02  0.1138045E+00
          1   -1    0    0  501    0  0.00000000000E+00  0.00000000000E+00  0.12009545499E+04  0.12009545499E+04  0.00000000000E+00 0. -1.
         -1   -1    0    0    0  501 -0.00000000000E+00 -0.00000000000E+00 -0.45466619035E+02  0.45466619035E+02  0.00000000000E+00 0.  1.
         25    2    1    2    0    0 -0.31199079066E+02  0.19614156955E+03  0.45131581768E+03  0.50870006767E+03  0.12507954959E+03 0.  0.
         23    2    1    2    0    0  0.31199079066E+02 -0.19614156955E+03  0.70417211319E+03  0.73772110126E+03  0.94494234834E+02 0.  0.
          5    1    3    3  502    0  0.20141635735E+02  0.12855997861E+03  0.16580830981E+03  0.21081561041E+03  0.41800000000E+01 0.  1.
         -5    1    3    3    0  502 -0.51340714801E+02  0.67581590933E+02  0.28550750786E+03  0.29788445726E+03  0.41800000000E+01 0.  1.
        -11    1    4    4    0    0  0.30214824084E+02 -0.16934431393E+02  0.62080054109E+02  0.71088984233E+02  0.00000000000E+00 0.  1.
         11    1    4    4    0    0  0.98425498170E+00 -0.17920713815E+03  0.64209205908E+03  0.66663211703E+03  0.00000000000E+00 0. -1.
</event>
<event>
 8    1  0.3719512E-009  0.1070609E+03  0.7561462E-02  0.1266112E+00
         -1   -1    0    0    0  501 -0.00000000000E+00  0.00000000000E+00  0.53009314907E+02  0.53009314907E+02  0.00000000000E+00 0.  1.
          1   -1    0    0  501    0  0.00000000000E+00 -0.00000000000E+00 -0.35739289922E+03  0.35739289922E+03  0.00000000000E+00 0. -1.
         25    2    1    2    0    0 -0.18309501864E+02 -0.80258002022E+02 -0.19486347595E+03  0.24575653524E+03  0.12509162885E+03 0.  0.
         23    2    1    2    0    0  0.18309501864E+02  0.80258002022E+02 -0.10952010836E+03  0.16464567888E+03  0.91306958620E+02 0.  0.
          5    1    3    3  502    0 -0.35178549166E+02  0.11621909517E+02 -0.12094007283E+03  0.12655659887E+03  0.41800000000E+01 0. -1.
         -5    1    3    3    0  502  0.16869047302E+02 -0.91879911539E+02 -0.73923403118E+02  0.11919993637E+03  0.41800000000E+01 0. -1.
        -11    1    4    4    0    0  0.46485843441E+01  0.48951348537E+02  0.77999438634E+00  0.49177761755E+02  0.00000000000E+00 0.  1.
         11    1    4    4    0    0  0.13660917520E+02  0.31306653485E+02 -0.11030010275E+03  0.11546791713E+03  0.00000000000E+00 0. -1.
</event>
<event>
 8    1  0.3719512E-009  0.1123608E+03  0.7561462E-02  0.1256259E+00
         -1   -1    0    0    0  501 -0.00000000000E+00  0.00000000000E+00  0.89240556602E+02  0.89240556602E+02  0.00000000000E+00 0.  1.
          1   -1    0    0  501    0  0.00000000000E+00 -0.00000000000E+00 -0.18266361147E+03  0.18266361147E+03  0.00000000000E+00 0. -1.
         25    2    1    2    0    0  0.55594814582E+02  0.14921898864E+02 -0.12133731788E+02  0.13823018970E+03  0.12508761499E+03 0.  0.
         23    2    1    2    0    0 -0.55594814582E+02 -0.14921898864E+02 -0.81289323084E+02  0.13367397837E+03  0.89147809693E+02 0.  0.
          5    1    3    3  502    0  0.93094673561E+02  0.24354511926E+02  0.33289712915E+01  0.96375904387E+02  0.41800000000E+01 0. -1.
         -5    1    3    3    0  502 -0.37499858978E+02 -0.94326130615E+01 -0.15462703080E+02  0.41854285313E+02  0.41800000000E+01 0. -1.
        -11    1    4    4    0    0  0.16298503719E+02 -0.41040290653E+01  0.79296908081E+01  0.18583978970E+02  0.00000000000E+00 0.  1.
         11    1    4    4    0    0 -0.71893318301E+02 -0.10817869799E+02 -0.89219013892E+02  0.11508999941E+03  0.00000000000E+00 0. -1.
</event>
<event>
 8    1  0.3719512E-009  0.7483183E+02  0.7561462E-02  0.1344393E+00
         -1   -1    0    0    0  501 -0.00000000000E+00  0.00000000000E+00  0.13574734317E+03  0.13574734317E+03  0.00000000000E+00 0.  1.
          1   -1    0    0  501    0  0.00000000000E+00 -0.00000000000E+00 -0.11125524080E+03  0.11125524080E+03  0.00000000000E+00 0. -1.
         25    2    1    2    0    0 -0.34968042288E+02 -0.19132604751E+02  0.61085072374E+02  0.14480409533E+03  0.12509204375E+03 0.  0.
         23    2    1    2    0    0  0.34968042288E+02  0.19132604751E+02 -0.36592970001E+02  0.10219848864E+03  0.86698702880E+02 0.  0.
          5    1    3    3  502    0  0.26823436026E+02  0.74770003745E+01  0.71270869759E+02  0.76631661414E+02  0.41800000000E+01 0. -1.
         -5    1    3    3    0  502 -0.61791478314E+02 -0.26609605126E+02 -0.10185797385E+02  0.68172433913E+02  0.41800000000E+01 0. -1.
        -11    1    4    4    0    0  0.67244706469E+01  0.24450699399E+02 -0.59996129693E+02  0.65135173176E+02  0.00000000000E+00 0. -1.
         11    1    4    4    0    0  0.28243571641E+02 -0.53180946472E+01  0.23403159692E+02  0.37063315465E+02  0.00000000000E+00 0.  1.
</event>
<event>
 8    1  0.3719512E-009  0.9316721E+02  0.7561462E-02  0.1295358E+00
         -3   -1    0    0    0  501 -0.00000000000E+00  0.00000000000E+00  0.85136626775E+02  0.85136626775E+02  0.00000000000E+00 0.  1.
          3   -1    0    0  501    0  0.00000000000E+00 -0.00000000000E+00 -0.17606198779E+03  0.17606198779E+03  0.00000000000E+00 0. -1.
         25    2    1    2    0    0 -0.52932547028E+02  0.18768753300E+02 -0.60581027223E+02  0.14990631450E+03  0.12509085352E+03 0.  0.
         23    2    1    2    0    0  0.52932547028E+02 -0.18768753300E+02 -0.30344333789E+02  0.11129230006E+03  0.91165107492E+02 0.  0.
          5    1    3    3  502    0 -0.26803719221E+02  0.42205268432E+02 -0.90578660873E+02  0.10354559504E+03  0.41800000000E+01 0. -1.
         -5    1    3    3    0  502 -0.26128827806E+02 -0.23436515132E+02  0.29997633651E+02  0.46360719459E+02  0.41800000000E+01 0. -1.
        -11    1    4    4    0    0  0.44768011939E+02  0.28353025322E+02 -0.34588328632E+02  0.63280497907E+02  0.00000000000E+00 0. -1.
         11    1    4    4    0    0  0.81645350887E+01 -0.47121778622E+02  0.42439948422E+01  0.48011802152E+02  0.00000000000E+00 0.  1.
</event>
<event>
 8    1  0.3719512E-009  0.2457791E+03  0.7561462E-02  0.1116002E+00
          2   -1    0    0  501    0  0.00000000000E+00  0.00000000000E+00  0.86886002644E+03  0.86886002644E+03  0.00000000000E+00 0. -1.
         -2   -1    0    0    0  501 -0.00000000000E+00 -0.00000000000E+00 -0.10714606192E+03  0.10714606192E+03  0.00000000000E+00 0.  1.
         25    2    1    2    0    0 -0.52122692853E+02 -0.23413080264E+03  0.14238216681E+03  0.30570626159E+03  0.12509847760E+03 0.  0.
         23    2    1    2    0    0  0.52122692853E+02  0.23413080264E+03  0.61933179771E+03  0.67029982677E+03  0.90531620222E+02 0.  0.
          5    1    3    3  502    0 -0.85807516181E+01 -0.17173653651E+03  0.37460336991E+02  0.17603356645E+03  0.41800000000E+01 0. -1.
         -5    1    3    3    0  502 -0.43541941235E+02 -0.62394266129E+02  0.10492182982E+03  0.12967269514E+03  0.41800000000E+01 0. -1.
        -11    1    4    4    0    0  0.33564105856E+02  0.64468346916E+02  0.29476535424E+03  0.30359402335E+03  0.00000000000E+00 0. -1.
         11    1    4    4    0    0  0.18558586997E+02  0.16966245572E+03  0.32456644347E+03  0.36670580342E+03  0.00000000000E+00 0.  1.
</event>
<event>
 8    1  0.3719512E-009  0.7515703E+02  0.7561462E-02  0.1343385E+00
         -2   -1    0    0    0  501 -0.00000000000E+00  0.00000000000E+00  0.48632100472E+02  0.48632100472E+02  0.00000000000E+00 0.  1.
          2   -1    0    0  501    0  0.00000000000E+00 -0.00000000000E+00 -0.26188409627E+03  0.26188409627E+03  0.00000000000E+00 0. -1.
         25    2    1    2    0    0 -0.26781810647E+02  0.84533200968E+01 -0.13572855648E+03  0.18670432865E+03  0.12509013268E+03 0.  0.
         23    2    1    2    0    0  0.26781810647E+02 -0.84533200968E+01 -0.77523439320E+02  0.12381186809E+03  0.92362173172E+02 0.  0.
          5    1    3    3  502    0 -0.57777064899E+01 -0.24277042564E+02 -0.14443356401E+03  0.14663315962E+03  0.41800000000E+01 0. -1.
         -5    1    3    3    0  502 -0.21004104157E+02  0.32730362661E+02  0.87050075350E+01  0.40071169031E+02  0.41800000000E+01 0. -1.
        -11    1    4    4    0    0  0.55755898961E+02 -0.10930859355E+02 -0.21609349573E+02  0.60787893072E+02  0.00000000000E+00 0.  1.
         11    1    4    4    0    0 -0.28974088314E+02  0.24775392585E+01 -0.55914089747E+02  0.63023975015E+02  0.00000000000E+00 0. -1.
</event>
<event>
 8    1  0.3719512E-009  0.1146339E+03  0.7561462E-02  0.1252221E+00
          1   -1    0    0  501    0  0.00000000000E+00  0.00000000000E+00  0.34919400173E+02  0.34919400173E+02  0.00000000000E+00 0. -1.
         -1   -1    0    0    0  501 -0.00000000000E+00 -0.00000000000E+00 -0.40307214908E+03  0.40307214908E+03  0.00000000000E+00 0.  1.
         25    2    1    2    0    0  0.41892247982E+02  0.12269395742E+02 -0.16991862330E+03  0.21546546861E+03  0.12509009195E+03 0.  0.
         23    2    1    2    0    0 -0.41892247982E+02 -0.12269395742E+02 -0.19823412561E+03  0.22252608065E+03  0.91189854148E+02 0.  0.
          5    1    3    3  502    0  0.79075139761E+02  0.37224427396E+02 -0.11075478456E+03  0.14114754842E+03  0.41800000000E+01 0. -1.
         -5    1    3    3    0  502 -0.37182891779E+02 -0.24955031654E+02 -0.59163838745E+02  0.74317920187E+02  0.41800000000E+01 0. -1.
        -11    1    4    4    0    0  0.25434854931E+02 -0.14784731520E+02 -0.93266289569E+02  0.97796323558E+02  0.00000000000E+00 0.  1.
         11    1    4    4    0    0 -0.67327102913E+02  0.25153357778E+01 -0.10496783604E+03  0.12472975709E+03  0.00000000000E+00 0. -1.
</event>
<event>
 8    1  0.3719512E-009  0.1241829E+03  0.7561462E-02  0.1236352E+00
         -1   -1    0    0    0  501 -0.00000000000E+00  0.00000000000E+00  0.14285135520E+03  0.14285135520E+03  0.00000000000E+00 0.  1.
          1   -1    0    0  501    0  0.00000000000E+00 -0.00000000000E+00 -0.15264033919E+03  0.15264033919E+03  0.00000000000E+00 0. -1.
         25    2    1    2    0    0 -0.50166437387E+02  0.89242506945E+02 -0.14494161459E+02  0.16229140458E+03  0.12509005875E+03 0.  0.
         23    2    1    2    0    0  0.50166437387E+02 -0.89242506945E+02  0.47051774654E+01  0.13320028981E+03  0.85083970430E+02 0.  0.
          5    1    3    3  502    0  0.21671595160E+02  0.59017619441E+02  0.32795379051E+02  0.71033419799E+02  0.41800000000E+01 0. -1.
         -5    1    3    3    0  502 -0.71838032546E+02  0.30224887504E+02 -0.47289540510E+02  0.91257984782E+02  0.41800000000E+01 0. -1.
        -11    1    4    4    0    0  0.31924668394E+02 -0.25069795086E+02 -0.36665170895E+02  0.54699303784E+02  0.00000000000E+00 0. -1.
         11    1    4    4    0    0  0.18241768993E+02 -0.64172711859E+02  0.41370348360E+02  0.78500986024E+02  0.00000000000E+00 0.  1.
</event>
<event>
 8    1  0.3719512E-009  0.2537910E+03  0.7561462E-02  0.1110932E+00
         -2   -1    0    0    0  501 -0.00000000000E+00  0.00000000000E+00  0.19825275744E+03  0.19825275744E+03  0.00000000000E+00 0.  1.
          2   -1    0    0  501    0  0.00000000000E+00 -0.00000000000E+00 -0.41956729918E+03  0.41956729918E+03  0.00000000000E+00 0. -1.
         25    2    1    2    0    0  0.96988853969E+02  0.21686896672E+03  0.17266916355E+02  0.26904450000E+03  0.12509120697E+03 0.  0.
         23    2    1    2    0    0 -0.96988853969E+02 -0.21686896672E+03 -0.23858145810E+03  0.34877555662E+03  0.91018076357E+02 0.  0.
          5    1    3    3  502    0  0.25366720438E+02  0.17074518320E+03  0.46604420253E+02  0.17884863007E+03  0.41800000000E+01 0. -1.
         -5    1    3    3    0  502  0.71622133531E+02  0.46123783528E+02 -0.29337503898E+02  0.90195869935E+02  0.41800000000E+01 0. -1.
        -11    1    4    4    0    0 -0.74956533346E+01 -0.10988800768E+03 -0.72349691560E+02  0.13178025998E+03  0.00000000000E+00 0. -1.
         11    1    4    4    0    0 -0.89493200634E+02 -0.10698095904E+03 -0.16623176654E+03  0.21699529664E+03  0.00000000000E+00 0.  1.
</event>
<event>
 8    1  0.3719512E-009  0.2221881E+03  0.7561462E-02  0.1132262E+00
          2   -1    0    0  501    0  0.00000000000E+00  0.00000000000E+00  0.15445106218E+03  0.15445106218E+03  0.00000000000E+00 0. -1.
         -2   -1    0    0    0  501 -0.00000000000E+00 -0.00000000000E+00 -0.35002161459E+03  0.35002161459E+03  0.00000000000E+00 0.  1.
         25    2    1    2    0    0 -0.13972090082E+03  0.14385451589E+03 -0.64061985512E+02  0.24488239639E+03  0.12508956074E+03 0.  0.
         23    2    1    2    0    0  0.13972090082E+03 -0.14385451589E+03 -0.13150856690E+03  0.25959028038E+03  0.99380876578E+02 0.  0.
          5    1    3    3  502    0 -0.10986762187E+03  0.15837887474E+03 -0.26558776899E+02  0.19462169286E+03  0.41800000000E+01 0.  1.
         -5    1    3    3    0  502 -0.29853278943E+02 -0.14524358844E+02 -0.37503208613E+02  0.50260703534E+02  0.41800000000E+01 0.  1.
        -11    1    4    4    0    0 -0.59739679156E+01 -0.36888788133E+02 -0.47053885505E+02  0.60087761846E+02  0.00000000000E+00 0.  1.
         11    1    4    4    0    0  0.14569486873E+03 -0.10696572776E+03 -0.84454681396E+02  0.19950251853E+03  0.00000000000E+00 0. -1.
</event>
<event>
 8    1  0.3719512E-009  0.9547845E+02  0.7561462E-02  0.1290102E+00
          2   -1    0    0  501    0  0.00000000000E+00  0.00000000000E+00  0.13377436546E+03  0.13377436546E+03  0.00000000000E+00 0. -1.
         -2   -1    0    0    0  501 -0.00000000000E+00 -0.00000000000E+00 -0.10165848249E+03  0.10165848249E+03  0.00000000000E+00 0.  1.
         25    2    1    2    0    0 -0.15004340266E+02  0.22075738318E+02  0.49314803038E+02  0.13708239503E+03  0.12508862770E+03 0.  0.
         23    2    1    2    0    0  0.15004340266E+02 -0.22075738318E+02 -0.17198920065E+02  0.98350452921E+02  0.93083512446E+02 0.  0.
          5    1    3    3  502    0 -0.67609877557E+02  0.45975409527E+01  0.44726399380E+02  0.81302866662E+02  0.41800000000E+01 0.  1.
         -5    1    3    3    0  502  0.52605537291E+02  0.17478197365E+02  0.45884036589E+01  0.55779528368E+02  0.41800000000E+01 0.  1.
        -11    1    4    4    0    0 -0.21400673897E+02  0.51505761782E+01 -0.41372014362E+02  0.46863214258E+02  0.00000000000E+00 0.  1.
         11    1    4    4    0    0  0.36405014163E+02 -0.27226314496E+02  0.24173094297E+02  0.51487238663E+02  0.00000000000E+00 0. -1.
</event>
<event>
 8    1  0.3719512E-009  0.1662572E+03  0.7561462E-02  0.1181808E+00
         -2   -1    0    0    0  501 -0.00000000000E+00  0.00000000000E+00  0.30427042745E+02  0.30427042745E+02  0.00000000000E+00 0.  1.
          2   -1    0    0  501    0  0.00000000000E+00 -0.00000000000E+00 -0.11837864026E+04  0.11837864026E+04  0.00000000000E+00 0. -1.
         25    2    1    2    0    0 -0.14329966255E+02 -0.13743535746E+03 -0.82324111319E+03  0.84407694791E+03  0.12508452397E+03 0.  0.
         23    2    1    2    0    0  0.14329966255E+02  0.13743535746E+03 -0.33011824666E+03  0.37013649743E+03  0.94494150802E+02 0.  0.
          5    1    3    3  502    0  0.25453530847E+02  0.14222592510E+02 -0.13977808066E+03  0.14284799125E+03  0.41800000000E+01 0. -1.
         -5    1    3    3    0  502 -0.39783497103E+02 -0.15165794997E+03 -0.68346303252E+03  0.70122895666E+03  0.41800000000E+01 0. -1.
        -11    1    4    4    0    0  0.31356542964E+02  0.70717493981E+02 -0.82380149227E+02  0.11300745873E+03  0.00000000000E+00 0.  1.
         11    1    4    4    0    0 -0.17026576709E+02  0.66717863481E+02 -0.24773809744E+03  0.25712903870E+03  0.00000000000E+00 0. -1.
</event>
<event>
 8    1  0.3719512E-009  0.2097168E+03  0.7561462E-02  0.1141790E+00
         -1   -1    0    0    0  501 -0.00000000000E+00  0.00000000000E+00  0.11909551486E+04  0.11909551486E+04  0.00000000000E+00 0. -1.
          1   -1    0    0  501    0  0.00000000000E+00 -0.00000000000E+00 -0.69370915196E+02  0.69370915196E+02  0.00000000000E+00 0.  1.
         25    2    1    2    0    0  0.17797157413E+03  0.23528172976E+02  0.10041457036E+04  0.10277083948E+04  0.12509394330E+03 0.  0.
         23    2    1    2    0    0 -0.17797157413E+03 -0.23528172976E+02  0.11743852986E+03  0.23261766901E+03  0.89953963316E+02 0.  0.
          5    1    3    3  502    0  0.19719909409E+03  0.16605614534E+02  0.91058018425E+03  0.93184600311E+03  0.41800000000E+01 0. -1.
         -5    1    3    3    0  502 -0.19227519964E+02  0.69225584419E+01  0.93565519331E+02  0.95862391724E+02  0.41800000000E+01 0. -1.
        -11    1    4    4    0    0 -0.13243010115E+03  0.24245146471E+02  0.74372223524E+02  0.15380762806E+03  0.00000000000E+00 0.  1.
         11    1    4    4    0    0 -0.45541472977E+02 -0.47773319447E+02  0.43066306334E+02  0.78810040941E+02  0.00000000000E+00 0. -1.
</event>
<event>
 8    1  0.3719512E-009  0.1732165E+03  0.7561462E-02  0.1174534E+00
         -2   -1    0    0    0  501 -0.00000000000E+00  0.00000000000E+00  0.42076912524E+03  0.42076912524E+03  0.00000000000E+00 0.  1.
          2   -1    0    0  501    0  0.00000000000E+00 -0.00000000000E+00 -0.84469760214E+02  0.84469760214E+02  0.00000000000E+00 0. -1.
         25    2    1    2    0    0  0.10466357474E+03  0.11276468592E+03  0.18892134401E+03  0.27387688095E+03  0.12508770294E+03 0.  0.
         23    2    1    2    0    0 -0.10466357474E+03 -0.11276468592E+03  0.14737802101E+03  0.23136200451E+03  0.90209521586E+02 0.  0.
          5    1    3    3  502    0  0.10683276791E+03  0.33111599086E+02  0.74766903910E+02  0.13460007657E+03  0.41800000000E+01 0. -1.
         -5    1    3    3    0  502 -0.21691931715E+01  0.79653086832E+02  0.11415444010E+03  0.13927680437E+03  0.41800000000E+01 0. -1.
        -11    1    4    4    0    0 -0.33848752615E+01 -0.94581484086E+01 -0.12308278174E+02  0.15887342870E+02  0.00000000000E+00 0. -1.
         11    1    4    4    0    0 -0.10127869948E+03 -0.10330653751E+03  0.15968629919E+03  0.21547466164E+03  0.00000000000E+00 0.  1.
</event>
<event>
 8    1  0.3719512E-009  0.1155474E+03  0.7561462E-02  0.1250629E+00
          1   -1    0    0  501    0  0.00000000000E+00  0.00000000000E+00  0.62279532213E+03  0.62279532213E+03  0.00000000000E+00 0. -1.
         -1   -1    0    0    0  501 -0.00000000000E+00 -0.00000000000E+00 -0.24312299805E+02  0.24312299805E+02  0.00000000000E+00 0.  1.
         25    2    1    2    0    0  0.57010774164E+02  0.87678690237E+01  0.33851597381E+03  0.36547184448E+03  0.12509796435E+03 0.  0.
         23    2    1    2    0    0 -0.57010774164E+02 -0.87678690237E+01  0.25996704852E+03  0.28163577746E+03  0.91699187187E+02 0.  0.
          5    1    3    3  502    0 -0.32853626855E+02 -0.13688065970E+01  0.17911766097E+03  0.18215884085E+03  0.41800000000E+01 0.  1.
         -5    1    3    3    0  502  0.89864401019E+02  0.10136675621E+02  0.15939831283E+03  0.18331300362E+03  0.41800000000E+01 0.  1.
        -11    1    4    4    0    0 -0.34200444385E+02 -0.49834275580E+02  0.16412350160E+03  0.17489896854E+03  0.00000000000E+00 0.  1.
         11    1    4    4    0    0 -0.22810329779E+02  0.41066406557E+02  0.95843546917E+02  0.10673680892E+03  0.00000000000E+00 0. -1.
</event>
<event>
 8    1  0.3719512E-009  0.2332565E+03  0.7561462E-02  0.1124368E+00
         -1   -1    0    0    0  501 -0.00000000000E+00  0.00000000000E+00  0.13114693165E+03  0.13114693165E+03  0.00000000000E+00 0.  1.
          1   -1    0    0  501    0  0.00000000000E+00 -0.00000000000E+00 -0.61582365847E+03  0.61582365847E+03  0.00000000000E+00 0. -1.
         25    2    1    2    0    0  0.17035873072E+02  0.21497890958E+03 -0.44455101804E+03  0.50968613548E+03  0.12509275169E+03 0.  0.
         23    2    1    2    0    0 -0.17035873072E+02 -0.21497890958E+03 -0.40125708783E+02  0.23728445464E+03  0.90485840719E+02 0.  0.
          5    1    3    3  502    0 -0.18346123976E+02  0.21265981675E+03 -0.37531911228E+03  0.43179009527E+03  0.41800000000E+01 0. -1.
         -5    1    3    3    0  502  0.35381997048E+02  0.23190928357E+01 -0.69231905752E+02  0.77896040213E+02  0.41800000000E+01 0. -1.
        -11    1    4    4    0    0  0.72178659900E+01 -0.63783647182E+02  0.27568731271E+02  0.69860476532E+02  0.00000000000E+00 0.  1.
         11    1    4    4    0    0 -0.24253739062E+02 -0.15119526240E+03 -0.67694440053E+02  0.16742397811E+03  0.00000000000E+00 0. -1.
</event>
<event>
 8    1  0.3719512E-009  0.1207730E+03  0.7561462E-02  0.1241827E+00
         -1   -1    0    0    0  501 -0.00000000000E+00  0.00000000000E+00  0.16425125098E+03  0.16425125098E+03  0.00000000000E+00 0.  1.
          1   -1    0    0  501    0  0.00000000000E+00 -0.00000000000E+00 -0.11680549564E+03  0.11680549564E+03  0.00000000000E+00 0. -1.
         25    2    1    2    0    0 -0.73965301088E+01 -0.84791008578E+02  0.41615064594E+02  0.15690349087E+03  0.12507065225E+03 0.  0.
         23    2    1    2    0    0  0.73965301088E+01  0.84791008578E+02  0.58306907482E+01  0.12415325574E+03  0.90198725957E+02 0.  0.
          5    1    3    3  502    0  0.77549036560E+01  0.24956385802E+02 -0.17039566180E+02  0.31476641158E+02  0.41800000000E+01 0. -1.
         -5    1    3    3    0  502 -0.15151433765E+02 -0.10974739438E+03  0.58654630773E+02  0.12542684971E+03  0.41800000000E+01 0. -1.
        -11    1    4    4    0    0 -0.26452635376E+02  0.32227478446E+02  0.35677440082E+02  0.54874693768E+02  0.00000000000E+00 0.  1.
         11    1    4    4    0    0  0.33849165484E+02  0.52563530131E+02 -0.29846749333E+02  0.69278561977E+02  0.00000000000E+00 0. -1.
</event>
<event>
 8    1  0.3719512E-009  0.2807372E+03  0.7561462E-02  0.1095287E+00
         -1   -1    0    0    0  501 -0.00000000000E+00  0.00000000000E+00  0.99803103553E+02  0.99803103553E+02  0.00000000000E+00 0.  1.
          1   -1    0    0  501    0  0.00000000000E+00 -0.00000000000E+00 -0.10040718145E+04  0.10040718145E+04  0.00000000000E+00 0. -1.
         25    2    1    2    0    0  0.25366838047E+03 -0.87400709923E+02 -0.68152194361E+03  0.74303851839E+03  0.12509016284E+03 0.  0.
         23    2    1    2    0    0 -0.25366838047E+03  0.87400709923E+02 -0.22274676738E+03  0.36083639971E+03  0.92737552423E+02 0.  0.
          5    1    3    3  502    0  0.21243334318E+03 -0.11244439453E+03 -0.49430801250E+03  0.54966312481E+03  0.41800000000E+01 0.  1.
         -5    1    3    3    0  502  0.41235037294E+02  0.25043684610E+02 -0.18721393111E+03  0.19337539358E+03  0.41800000000E+01 0.  1.
        -11    1    4    4    0    0 -0.22097298163E+03  0.57458039918E+02 -0.21895295568E+03  0.31633982007E+03  0.00000000000E+00 0. -1.
         11    1    4    4    0    0 -0.32695398844E+02  0.29942670006E+02 -0.37938117070E+01  0.44496579643E+02  0.00000000000E+00 0.  1.
</event>
<event>
 8    1  0.3719512E-009  0.9847913E+02  0.7561462E-02  0.1283527E+00
          2   -1    0    0  501    0  0.00000000000E+00  0.00000000000E+00  0.26870565125E+03  0.26870565125E+03  0.00000000000E+00 0. -1.
         -2   -1    0    0    0  501 -0.00000000000E+00 -0.00000000000E+00 -0.77424102262E+02  0.77424102262E+02  0.00000000000E+00 0.  1.
         25    2    1    2    0    0  0.31556591561E+02 -0.89292247358E+02  0.92599088238E+02  0.18218435693E+03  0.12509046670E+03 0.  0.
         23    2    1    2    0    0 -0.31556591561E+02  0.89292247358E+02  0.98682460747E+02  0.16394539658E+03  0.90393257994E+02 0.  0.
          5    1    3    3  502    0  0.23942470871E+02 -0.51727575506E+02 -0.22024671521E+02  0.61249837018E+02  0.41800000000E+01 0. -1.
         -5    1    3    3    0  502  0.76141206900E+01 -0.37564671851E+02  0.11462375976E+03  0.12093451991E+03  0.41800000000E+01 0. -1.
        -11    1    4    4    0    0 -0.30644246763E+02  0.33317263487E+02 -0.55742773126E+01  0.45609017458E+02  0.00000000000E+00 0.  1.
         11    1    4    4    0    0 -0.91234479844E+00  0.55974983870E+02  0.10425673806E+03  0.11833637912E+03  0.00000000000E+00 0. -1.
</event>
<event>
 8    1  0.3719512E-009  0.1477618E+03  0.7561462E-02  0.1203251E+00
          1   -1    0    0  501    0  0.00000000000E+00  0.00000000000E+00  0.10925379436E+04  0.10925379436E+04  0.00000000000E+00 0. -1.
         -1   -1    0    0    0  501 -0.00000000000E+00 -0.00000000000E+00 -0.21801470340E+02  0.21801470340E+02  0.00000000000E+00 0.  1.
         25    2    1    2    0    0  0.55660552751E+02  0.91975420784E+02  0.62441370943E+03  0.64583107963E+03  0.12509087790E+03 0.  0.
         23    2    1    2    0    0 -0.55660552751E+02 -0.91975420784E+02  0.44632276384E+03  0.46850833432E+03  0.93479808734E+02 0.  0.
          5    1    3    3  502    0  0.58078268971E+02 -0.10056237534E+02  0.16685011242E+03  0.17700464868E+03  0.41800000000E+01 0.  1.
         -5    1    3    3    0  502 -0.24177162202E+01  0.10203165832E+03  0.45756359701E+03  0.46882643095E+03  0.41800000000E+01 0.  1.
        -11    1    4    4    0    0  0.21040608561E+02 -0.17323448724E+02  0.40560280715E+02  0.48866608804E+02  0.00000000000E+00 0.  1.
         11    1    4    4    0    0 -0.76701161312E+02 -0.74651972060E+02  0.40576248313E+03  0.41964172552E+03  0.00000000000E+00 0. -1.
</event>
<event>
 8    1  0.3719512E-009  0.1471848E+03  0.7561462E-02  0.1203976E+00
         -2   -1    0    0    0  501 -0.00000000000E+00  0.00000000000E+00  0.10618587769E+04  0.10618587769E+04  0.00000000000E+00 0.  1.
          2   -1    0    0  501    0  0.00000000000E+00 -0.00000000000E+00 -0.21332771178E+02  0.21332771178E+02  0.00000000000E+00 0. -1.
         25    2    1    2    0    0 -0.82514676473E+02 -0.62512234771E+02  0.52550975555E+03  0.55002321495E+03  0.12509429435E+03 0.  0.
         23    2    1    2    0    0  0.82514676473E+02  0.62512234771E+02  0.51501625018E+03  0.53316833314E+03  0.91160749113E+02 0.  0.
          5    1    3    3  502    0  0.31143506202E+02 -0.29988088505E+02  0.12039733232E+03  0.12799294301E+03  0.41800000000E+01 0. -1.
         -5    1    3    3    0  502 -0.11365818267E+03 -0.32524146266E+02  0.40511242323E+03  0.42203027194E+03  0.41800000000E+01 0. -1.
        -11    1    4    4    0    0 -0.94098085772E+01  0.35649647740E+02  0.21794280184E+03  0.22103960450E+03  0.00000000000E+00 0.  1.
         11    1    4    4    0    0  0.91924485050E+02  0.26862587031E+02  0.29707344834E+03  0.31212872864E+03  0.00000000000E+00 0. -1.
</event>
<event>
 8    1  0.3719512E-009  0.1545125E+03  0.7561462E-02  0.1195035E+00
          1   -1    0    0  501    0  0.00000000000E+00  0.00000000000E+00  0.12318420620E+03  0.12318420620E+03  0.00000000000E+00 0. -1.
         -1   -1    0    0    0  501 -0.00000000000E+00 -0.00000000000E+00 -0.21954902054E+03  0.21954902054E+03  0.00000000000E+00 0.  1.
         25    2    1    2    0    0 -0.31296394167E+01  0.11445518745E+03 -0.46934565107E+01  0.16964468151E+03  0.12508998702E+03 0.  0.
         23    2    1    2    0    0  0.31296394167E+01 -0.11445518745E+03 -0.91671357833E+02  0.17308854523E+03  0.91903329998E+02 0.  0.
          5    1    3    3  502    0  0.72064080345E+01  0.13813449098E+03 -0.19215184866E+02  0.13971315487E+03  0.41800000000E+01 0. -1.
         -5    1    3    3    0  502 -0.10336047451E+02 -0.23679303526E+02  0.14521728356E+02  0.29931526637E+02  0.41800000000E+01 0. -1.
        -11    1    4    4    0    0  0.31396933131E+02 -0.54631133320E+01 -0.33926348216E+02  0.46546859406E+02  0.00000000000E+00 0.  1.
         11    1    4    4    0    0 -0.28267293715E+02 -0.10899207412E+03 -0.57745009617E+02  0.12654168582E+03  0.00000000000E+00 0. -1.
</event>
<event>
 8    1  0.3719512E-009  0.1017856E+03  0.7561462E-02  0.1276585E+00
          1   -1    0    0  501    0  0.00000000000E+00  0.00000000000E+00  0.18086927810E+04  0.18086927810E+04  0.00000000000E+00 0. -1.
         -1   -1    0    0    0  501 -0.00000000000E+00 -0.00000000000E+00 -0.89066137254E+01  0.89066137254E+01  0.00000000000E+00 0.  1.
         25    2    1    2    0    0  0.36486706901E+02  0.16126201028E+02  0.14015949222E+04  0.14077304463E+04  0.12508137105E+03 0.  0.
         23    2    1    2    0    0 -0.36486706901E+02 -0.16126201028E+02  0.39819124506E+03  0.40986894841E+03  0.88571739753E+02 0.  0.
          5    1    3    3  502    0  0.70304877322E+02  0.48307663822E+00  0.45734129140E+03  0.46273268564E+03  0.41800000000E+01 0.  1.
         -5    1    3    3    0  502 -0.33818170421E+02  0.15643124390E+02  0.94425363078E+03  0.94499776065E+03  0.41800000000E+01 0.  1.
        -11    1    4    4    0    0 -0.28819411300E+02 -0.51735254726E+02  0.27990936107E+03  0.28610547962E+03  0.00000000000E+00 0. -1.
         11    1    4    4    0    0 -0.76672956008E+01  0.35609053698E+02  0.11828188399E+03  0.12376346879E+03  0.00000000000E+00 0.  1.
</event>
<event>
 8    1  0.3719512E-009  0.1017789E+03  0.7561462E-02  0.1276599E+00
          1   -1    0    0  501    0  0.00000000000E+00  0.00000000000E+00  0.30810546681E+02  0.30810546681E+02  0.00000000000E+00 0. -1.
         -1   -1    0    0    0  501 -0.00000000000E+00 -0.00000000000E+00 -0.51193018085E+03  0.51193018085E+03  0.00000000000E+00 0.  1.
         25    2    1    2    0    0 -0.36756230617E+02  0.44454873161E+02 -0.20192504827E+03  0.24443371375E+03  0.12508740570E+03 0.  0.
         23    2    1    2    0    0  0.36756230617E+02 -0.44454873161E+02 -0.27919458590E+03  0.29830701377E+03  0.87807752709E+02 0.  0.
          5    1    3    3  502    0  0.26838108658E+02  0.53401985905E+02 -0.15072157890E+03  0.16219285718E+03  0.41800000000E+01 0. -1.
         -5    1    3    3    0  502 -0.63594339275E+02 -0.89471127436E+01 -0.51203469373E+02  0.82240856575E+02  0.41800000000E+01 0. -1.
        -11    1    4    4    0    0  0.50145736688E+02 -0.25991967221E+02 -0.26605819714E+03  0.27198739223E+03  0.00000000000E+00 0.  1.
         11    1    4    4    0    0 -0.13389506071E+02 -0.18462905940E+02 -0.13136388760E+02  0.26319621545E+02  0.00000000000E+00 0. -1.
</event>
<event>
 8    1  0.3719512E-009  0.1643680E+03  0.7561462E-02  0.1183852E+00
          2   -1    0    0  501    0  0.00000000000E+00  0.00000000000E+00  0.12856516237E+04  0.12856516237E+04  0.00000000000E+00 0.  1.
         -2   -1    0    0    0  501 -0.00000000000E+00 -0.00000000000E+00 -0.21787611178E+02  0.21787611178E+02  0.00000000000E+00 0. -1.
         25    2    1    2    0    0  0.97447586642E+02  0.80075343222E+02  0.72121368512E+03  0.74276819876E+03  0.12508926708E+03 0.  0.
         23    2    1    2    0    0 -0.97447586642E+02 -0.80075343222E+02  0.54265032739E+03  0.56467103611E+03  0.92064697222E+02 0.  0.
          5    1    3    3  502    0  0.61943350306E+02  0.11168609141E+03  0.57243234445E+03  0.58652111900E+03  0.41800000000E+01 0.  1.
         -5    1    3    3    0  502  0.35504236337E+02 -0.31610748190E+02  0.14878134068E+03  0.15624707976E+03  0.41800000000E+01 0.  1.
        -11    1    4    4    0    0 -0.91051660459E+02 -0.98257671847E+02  0.50375381919E+03  0.52126086109E+03  0.00000000000E+00 0.  1.
         11    1    4    4    0    0 -0.63959261833E+01  0.18182328625E+02  0.38896508195E+02  0.43410175025E+02  0.00000000000E+00 0. -1.
</event>
<event>
 8    1  0.3719512E-009  0.1262145E+03  0.7561462E-02  0.1233183E+00
         -2   -1    0    0    0  501 -0.00000000000E+00  0.00000000000E+00  0.52376286778E+03  0.52376286778E+03  0.00000000000E+00 0. -1.
          2   -1    0    0  501    0  0.00000000000E+00 -0.00000000000E+00 -0.35374552895E+02  0.35374552895E+02  0.00000000000E+00 0.  1.
         25    2    1    2    0    0  0.35055926644E+02 -0.73705748432E+02  0.30576961291E+03  0.34029980239E+03  0.12508974371E+03 0.  0.
         23    2    1    2    0    0 -0.35055926644E+02  0.73705748432E+02  0.18261870198E+03  0.21883761829E+03  0.88762928757E+02 0.  0.
          5    1    3    3  502    0 -0.29722316005E+02  0.19059700354E+02  0.86548780758E+02  0.93567366624E+02  0.41800000000E+01 0.  1.
         -5    1    3    3    0  502  0.64778242650E+02 -0.92765448786E+02  0.21922083215E+03  0.24673243577E+03  0.41800000000E+01 0.  1.
        -11    1    4    4    0    0  0.21113414041E+01  0.65571561868E+02  0.16367850463E+03  0.17633700793E+03  0.00000000000E+00 0. -1.
         11    1    4    4    0    0 -0.37167268049E+02  0.81341865644E+01  0.18940197349E+02  0.42500610359E+02  0.00000000000E+00 0.  1.
</event>
<event>
 8    1  0.3719512E-009  0.1323039E+03  0.7561462E-02  0.1224077E+00
         -1   -1    0    0    0  501 -0.00000000000E+00  0.00000000000E+00  0.34138882990E+02  0.34138882990E+02  0.00000000000E+00 0.  1.
          1   -1    0    0  501    0  0.00000000000E+00 -0.00000000000E+00 -0.58017161698E+03  0.58017161698E+03  0.00000000000E+00 0. -1.
         25    2    1    2    0    0  0.12993903728E+02 -0.86050762178E+02 -0.24953456903E+03  0.29238371823E+03  0.12508861794E+03 0.  0.
         23    2    1    2    0    0 -0.12993903728E+02  0.86050762178E+02 -0.29649816496E+03  0.32192678174E+03  0.90289067843E+02 0.  0.
          5    1    3    3  502    0  0.63173866926E+02 -0.63225239515E+02 -0.19585453884E+03  0.21532496640E+03  0.41800000000E+01 0. -1.
         -5    1    3    3    0  502 -0.50179963198E+02 -0.22825522663E+02 -0.53680030197E+02  0.77058751828E+02  0.41800000000E+01 0. -1.
        -11    1    4    4    0    0  0.19529114521E+02  0.85097699231E+02 -0.16751230940E+03  0.18890044608E+03  0.00000000000E+00 0. -1.
         11    1    4    4    0    0 -0.32523018249E+02  0.95306294620E+00 -0.12898585556E+03  0.13302633566E+03  0.00000000000E+00 0.  1.
</event>
<event>
 8    1  0.3719512E-009  0.1523329E+03  0.7561462E-02  0.1197635E+00
          3   -1    0    0  501    0  0.00000000000E+00  0.00000000000E+00  0.29362974721E+03  0.29362974721E+03  0.00000000000E+00 0. -1.
         -3   -1    0    0    0  501 -0.00000000000E+00 -0.00000000000E+00 -0.11806123535E+03  0.11806123535E+03  0.00000000000E+00 0.  1.
         25    2    1    2    0    0  0.11682333812E+02 -0.14149032066E+03  0.14756512275E+03  0.23995339654E+03  0.12508468850E+03 0.  0.
         23    2    1    2    0    0 -0.11682333812E+02  0.14149032066E+03  0.28003389107E+02  0.17173758602E+03  0.92485787474E+02 0.  0.
          5    1    3    3  502    0  0.30915521661E+02 -0.45187161605E+02  0.12861959249E+03  0.13985035225E+03  0.41800000000E+01 0.  1.
         -5    1    3    3    0  502 -0.19233187849E+02 -0.96303159058E+02  0.18945530258E+02  0.10010304429E+03  0.41800000000E+01 0.  1.
        -11    1    4    4    0    0  0.19669076195E+02  0.80709358795E+02  0.53433292544E+02  0.98772414710E+02  0.00000000000E+00 0.  1.
         11    1    4    4    0    0 -0.31351410007E+02  0.60780961868E+02 -0.25429903437E+02  0.72965171307E+02  0.00000000000E+00 0. -1.
</event>
<event>
 8    1  0.3719512E-009  0.1013618E+03  0.7561462E-02  0.1277458E+00
         -2   -1    0    0    0  501 -0.00000000000E+00  0.00000000000E+00  0.10467389147E+03  0.10467389147E+03  0.00000000000E+00 0. -1.
          2   -1    0    0  501    0  0.00000000000E+00 -0.00000000000E+00 -0.12452756374E+03  0.12452756374E+03  0.00000000000E+00 0.  1.
         25    2    1    2    0    0 -0.27259800924E+02  0.29854443712E+02  0.48147923529E+01  0.13155121586E+03  0.12509258816E+03 0.  0.
         23    2    1    2    0    0  0.27259800924E+02 -0.29854443712E+02 -0.24668464623E+02  0.97650239342E+02  0.85397023022E+02 0.  0.
          5    1    3    3  502    0 -0.30298134670E+01 -0.37268498743E+02  0.37346048812E+02  0.53012456367E+02  0.41800000000E+01 0.  1.
         -5    1    3    3    0  502 -0.24229987457E+02  0.67122942455E+02 -0.32531256459E+02  0.78538759493E+02  0.41800000000E+01 0.  1.
        -11    1    4    4    0    0  0.88507606248E+01 -0.58717343029E+02 -0.21953278230E+02  0.63308836359E+02  0.00000000000E+00 0.  1.
         11    1    4    4    0    0  0.18409040299E+02  0.28862899318E+02 -0.27151863935E+01  0.34341402984E+02  0.00000000000E+00 0. -1.
</event>
<event>
 8    1  0.3719512E-009  0.1098366E+03  0.7561462E-02  0.1260873E+00
          2   -1    0    0  501    0  0.00000000000E+00  0.00000000000E+00  0.50415402143E+03  0.50415402143E+03  0.00000000000E+00 0. -1.
         -2   -1    0    0    0  501 -0.00000000000E+00 -0.00000000000E+00 -0.30133679018E+02  0.30133679018E+02  0.00000000000E+00 0.  1.
         25    2    1    2    0    0 -0.38915509925E+02  0.16740233103E+02  0.16687457492E+03  0.21281465195E+03  0.12509316533E+03 0.  0.
         23    2    1    2    0    0  0.38915509925E+02 -0.16740233103E+02  0.30714576750E+03  0.32147304851E+03  0.84922000132E+02 0.  0.
          5    1    3    3  502    0 -0.12535442668E+02 -0.51238930924E+02  0.39675452160E+02  0.66137578344E+02  0.41800000000E+01 0.  1.
         -5    1    3    3    0  502 -0.26380067257E+02  0.67979164027E+02  0.12719912276E+03  0.14667707360E+03  0.41800000000E+01 0.  1.
        -11    1    4    4    0    0  0.57974741527E+02  0.12029615600E+02  0.21746372383E+03  0.22538024201E+03  0.00000000000E+00 0. -1.
         11    1    4    4    0    0 -0.19059231602E+02 -0.28769848704E+02  0.89682043673E+02  0.96092806500E+02  0.00000000000E+00 0.  1.
</event>
<event>
 8    1  0.3719512E-009  0.6171238E+02  0.7561462E-02  0.1390783E+00
         -1   -1    0    0    0  501 -0.00000000000E+00  0.00000000000E+00  0.19783676994E+02  0.19783676994E+02  0.00000000000E+00 0.  1.
          1   -1    0    0  501    0  0.00000000000E+00 -0.00000000000E+00 -0.69427992545E+03  0.69427992545E+03  0.00000000000E+00 0. -1.
         25    2    1    2    0    0  0.22994559134E+02  0.88950399760E+01 -0.26847782174E+03  0.29721298732E+03  0.12508935838E+03 0.  0.
         23    2    1    2    0    0 -0.22994559134E+02 -0.88950399760E+01 -0.40601842672E+03  0.41685061512E+03  0.91135070147E+02 0.  0.
          5    1    3    3  502    0  0.45048707180E+00 -0.82264859931E+00 -0.27202522855E+03  0.27205895879E+03  0.41800000000E+01 0.  1.
         -5    1    3    3    0  502  0.22544072062E+02  0.97176885753E+01  0.35474068078E+01  0.25154028533E+02  0.41800000000E+01 0.  1.
        -11    1    4    4    0    0 -0.35626221554E+02  0.34166806196E+02 -0.22523388454E+03  0.23057948966E+03  0.00000000000E+00 0.  1.
         11    1    4    4    0    0  0.12631662420E+02 -0.43061846172E+02 -0.18078454218E+03  0.18627112546E+03  0.00000000000E+00 0. -1.
</event>
<event>
 8    1  0.3719512E-009  0.1047815E+03  0.7561462E-02  0.1270551E+00
         -2   -1    0    0    0  501 -0.00000000000E+00  0.00000000000E+00  0.30888705441E+02  0.30888705441E+02  0.00000000000E+00 0.  1.
          2   -1    0    0  501    0  0.00000000000E+00 -0.00000000000E+00 -0.45535356292E+03  0.45535356292E+03  0.00000000000E+00 0. -1.
         25    2    1    2    0    0  0.17020546687E+02 -0.41769968652E+02 -0.22470946926E+03  0.26111367353E+03  0.12510625740E+03 0.  0.
         23    2    1    2    0    0 -0.17020546687E+02  0.41769968652E+02 -0.19975538822E+03  0.22512859483E+03  0.93521333364E+02 0.  0.
          5    1    3    3  502    0  0.48403769472E+02 -0.53229573385E+02 -0.62338516853E+02  0.95288380536E+02  0.41800000000E+01 0. -1.
         -5    1    3    3    0  502 -0.31383222786E+02  0.11459604732E+02 -0.16237095240E+03  0.16582529300E+03  0.41800000000E+01 0. -1.
        -11    1    4    4    0    0  0.38210056313E+02  0.26572108779E+02 -0.88411365913E+02  0.99913237317E+02  0.00000000000E+00 0. -1.
         11    1    4    4    0    0 -0.55230603000E+02  0.15197859873E+02 -0.11134402231E+03  0.12521535751E+03  0.00000000000E+00 0.  1.
</event>
<event>
 8    1  0.3719512E-009  0.1181526E+03  0.7561462E-02  0.1246176E+00
         -1   -1    0    0    0  501 -0.00000000000E+00  0.00000000000E+00  0.18979165765E+03  0.18979165765E+03  0.00000000000E+00 0.  1.
          1   -1    0    0  501    0  0.00000000000E+00 -0.00000000000E+00 -0.10024437429E+03  0.10024437429E+03  0.00000000000E+00 0. -1.
         25    2    1    2    0    0  0.75327515046E+02  0.40368846637E+02  0.44015634196E+02  0.15776130416E+03  0.12508946692E+03 0.  0.
         23    2    1    2    0    0 -0.75327515046E+02 -0.40368846637E+02  0.45531649160E+02  0.13227472778E+03  0.90108791088E+02 0.  0.
          5    1    3    3  502    0 -0.11157808368E+02  0.26833333384E+02  0.61725197923E+02  0.68352007482E+02  0.41800000000E+01 0. -1.
         -5    1    3    3    0  502  0.86485323413E+02  0.13535513252E+02 -0.17709563727E+02  0.89409296677E+02  0.41800000000E+01 0. -1.
        -11    1    4    4    0    0 -0.91561166558E+02 -0.45552094670E+02  0.51132182636E+02  0.11433696100E+03  0.00000000000E+00 0. -1.
         11    1    4    4    0    0  0.16233651512E+02  0.51832480339E+01 -0.56005334757E+01  0.17937766773E+02  0.00000000000E+00 0.  1.
</event>
<event>
 8    1  0.3719512E-009  0.1326241E+03  0.7561462E-02  0.1223613E+00
         -1   -1    0    0    0  501 -0.00000000000E+00  0.00000000000E+00  0.13947395426E+03  0.13947395426E+03  0.00000000000E+00 0.  1.
          1   -1    0    0  501    0  0.00000000000E+00 -0.00000000000E+00 -0.19001877442E+03  0.19001877442E+03  0.00000000000E+00 0. -1.
         25    2    1    2    0    0  0.78182949427E+02 -0.93218996279E+02 -0.45348233723E+02  0.18029707266E+03  0.12509283456E+03 0.  0.
         23    2    1    2    0    0 -0.78182949427E+02  0.93218996279E+02 -0.51965864439E+01  0.14919565602E+03  0.86197357363E+02 0.  0.
          5    1    3    3  502    0 -0.37665864739E+00 -0.56092259535E+02 -0.70076745671E+02  0.89859368656E+02  0.41800000000E+01 0.  1.
         -5    1    3    3    0  502  0.78559608074E+02 -0.37126736744E+02  0.24728511948E+02  0.90437704002E+02  0.41800000000E+01 0.  1.
        -11    1    4    4    0    0 -0.32099360346E+02  0.31412711976E+02 -0.44010212538E+02  0.62881048146E+02  0.00000000000E+00 0. -1.
         11    1    4    4    0    0 -0.46083589081E+02  0.61806284303E+02  0.38813626094E+02  0.86314607874E+02  0.00000000000E+00 0.  1.
</event>
<event>
 8    1  0.3719512E-009  0.1139074E+03  0.7561462E-02  0.1253500E+00
          3   -1    0    0  501    0  0.00000000000E+00  0.00000000000E+00  0.38810581181E+02  0.38810581181E+02  0.00000000000E+00 0. -1.
         -3   -1    0    0    0  501 -0.00000000000E+00 -0.00000000000E+00 -0.62669878554E+03  0.62669878554E+03  0.00000000000E+00 0.  1.
         25    2    1    2    0    0 -0.44235963175E+01 -0.98840344612E+02 -0.42511828474E+03  0.45405082162E+03  0.12509040998E+03 0.  0.
         23    2    1    2    0    0  0.44235963175E+01  0.98840344612E+02 -0.16276991961E+03  0.21145854509E+03  0.91824221394E+02 0.  0.
          5    1    3    3  502    0  0.15831589610E+02 -0.69420221176E+02 -0.80464403861E+02  0.10752580633E+03  0.41800000000E+01 0. -1.
         -5    1    3    3    0  502 -0.20255185928E+02 -0.29420123435E+02 -0.34465388088E+03  0.34652501530E+03  0.41800000000E+01 0. -1.
        -11    1    4    4    0    0 -0.11599314321E+02 -0.69555430679E+01 -0.65404066637E+02  0.66787840246E+02  0.00000000000E+00 0.  1.
         11    1    4    4    0    0  0.16022910638E+02  0.10579588768E+03 -0.97365852978E+02  0.14467070485E+03  0.00000000000E+00 0. -1.
</event>
<event>
 8    1  0.3719512E-009  0.1361922E+03  0.7561462E-02  0.1218546E+00
         -1   -1    0    0    0  501 -0.00000000000E+00  0.00000000000E+00  0.10187919856E+03  0.10187919856E+03  0.00000000000E+00 0.  1.
          1   -1    0    0  501    0  0.00000000000E+00 -0.00000000000E+00 -0.24709425495E+03  0.24709425495E+03  0.00000000000E+00 0. -1.
         25    2    1    2    0    0  0.69910353752E+02 -0.78830727462E+02 -0.13055951401E+03  0.20927157732E+03  0.12508822975E+03 0.  0.
         23    2    1    2    0    0 -0.69910353752E+02  0.78830727462E+02 -0.14655542377E+02  0.13970187619E+03  0.90554338025E+02 0.  0.
          5    1    3    3  502    0  0.33281615592E+01 -0.87603566744E+02 -0.10605428558E+03  0.13766061694E+03  0.41800000000E+01 0. -1.
         -5    1    3    3    0  502  0.66582192193E+02  0.87728392821E+01 -0.24505228425E+02  0.71610960379E+02  0.41800000000E+01 0. -1.
        -11    1    4    4    0    0 -0.48500709511E+02  0.16189269382E+02  0.30529275653E+02  0.59552060738E+02  0.00000000000E+00 0.  1.
         11    1    4    4    0    0 -0.21409644241E+02  0.62641458080E+02 -0.45184818029E+02  0.80149815454E+02  0.00000000000E+00 0. -1.
</event>
<event>
 8    1  0.3719512E-009  0.1127991E+03  0.7561462E-02  0.1255472E+00
          2   -1    0    0  501    0  0.00000000000E+00  0.00000000000E+00  0.33470570560E+03  0.33470570560E+03  0.00000000000E+00 0. -1.
         -2   -1    0    0    0  501 -0.00000000000E+00 -0.00000000000E+00 -0.69053182395E+02  0.69053182395E+02  0.00000000000E+00 0.  1.
         25    2    1    2    0    0 -0.18127517555E+02 -0.97376353051E+02  0.18896480822E+03  0.24731846386E+03  0.12509181746E+03 0.  0.
         23    2    1    2    0    0  0.18127517555E+02  0.97376353051E+02  0.76687714988E+02  0.15644042414E+03  0.93711470209E+02 0.  0.
          5    1    3    3  502    0  0.90363613644E+01 -0.82884688547E+02  0.19806838489E+03  0.21494205013E+03  0.41800000000E+01 0.  1.
         -5    1    3    3    0  502 -0.27163878919E+02 -0.14491664504E+02 -0.91035766652E+01  0.32376413731E+02  0.41800000000E+01 0.  1.
        -11    1    4    4    0    0 -0.16816433680E+02  0.45421419736E+02 -0.10048472460E+02  0.49465842875E+02  0.00000000000E+00 0.  1.
         11    1    4    4    0    0  0.34943951235E+02  0.51954933314E+02  0.86736187448E+02  0.10697458126E+03  0.00000000000E+00 0. -1.
</event>
<event>
 8    1  0.3719512E-009  0.9095990E+02  0.7561462E-02  0.1300544E+00
         -2   -1    0    0    0  501 -0.00000000000E+00  0.00000000000E+00  0.37239988095E+02  0.37239988095E+02  0.00000000000E+00 0.  1.
          2   -1    0    0  501    0  0.00000000000E+00 -0.00000000000E+00 -0.45978717938E+03  0.45978717938E+03  0.00000000000E+00 0. -1.
         25    2    1    2    0    0 -0.68773900453E+02 -0.65797853376E+01 -0.27869032312E+03  0.31318600957E+03  0.12507612655E+03 0.  0.
         23    2    1    2    0    0  0.68773900453E+02  0.65797853376E+01 -0.14385686817E+03  0.18384115790E+03  0.91266805914E+02 0.  0.
          5    1    3    3  502    0 -0.67363884000E+02  0.45799988927E+01 -0.28933924649E+03  0.29714229120E+03  0.41800000000E+01 0.  1.
         -5    1    3    3    0  502 -0.14100164533E+01 -0.11159784230E+02  0.10648923370E+02  0.16043718378E+02  0.41800000000E+01 0.  1.
        -11    1    4    4    0    0  0.63801383711E+02  0.35441360144E+02 -0.58301080006E+02  0.93411575846E+02  0.00000000000E+00 0.  1.
         11    1    4    4    0    0  0.49725167417E+01 -0.28861574806E+02 -0.85555788162E+02  0.90429582057E+02  0.00000000000E+00 0. -1.
</event>
<event>
 8    1  0.3719512E-009  0.1335059E+03  0.7561462E-02  0.1222344E+00
          2   -1    0    0  501    0  0.00000000000E+00  0.00000000000E+00  0.19267615221E+03  0.19267615221E+03  0.00000000000E+00 0. -1.
         -2   -1    0    0    0  501 -0.00000000000E+00 -0.00000000000E+00 -0.14322242863E+03  0.14322242863E+03  0.00000000000E+00 0.  1.
         25    2    1    2    0    0  0.11441313281E+02  0.10646446195E+03  0.91948654094E+02  0.18859409268E+03  0.12509033335E+03 0.  0.
         23    2    1    2    0    0 -0.11441313281E+02 -0.10646446195E+03 -0.42494930520E+02  0.14730448816E+03  0.91799824637E+02 0.  0.
          5    1    3    3  502    0  0.36765538892E+02  0.12292449029E+00 -0.10764355772E+02  0.38536524436E+02  0.41800000000E+01 0. -1.
         -5    1    3    3    0  502 -0.25324225610E+02  0.10634153746E+03  0.10271300987E+03  0.15005756825E+03  0.41800000000E+01 0. -1.
        -11    1    4    4    0    0  0.22547460805E+02 -0.38254934599E+02 -0.54345097917E+02  0.70179895110E+02  0.00000000000E+00 0.  1.
         11    1    4    4    0    0 -0.33988774086E+02 -0.68209527353E+02  0.11850167398E+02  0.77124593049E+02  0.00000000000E+00 0. -1.
</event>
<event>
 8    1  0.3719512E-009  0.1586957E+03  0.7561462E-02  0.1190177E+00
          2   -1    0    0  501    0  0.00000000000E+00  0.00000000000E+00  0.17226232979E+04  0.17226232979E+04  0.00000000000E+00 0. -1.
         -2   -1    0    0    0  501 -0.00000000000E+00 -0.00000000000E+00 -0.25860358146E+02  0.25860358146E+02  0.00000000000E+00 0.  1.
         25    2    1    2    0    0 -0.14262944383E+03 -0.33356245913E+01  0.13409389785E+04  0.13542963020E+04  0.12508734898E+03 0.  0.
         23    2    1    2    0    0  0.14262944383E+03  0.33356245913E+01  0.35582396128E+03  0.39418735409E+03  0.91753441694E+02 0.  0.
          5    1    3    3  502    0 -0.11594858907E+03  0.17751729056E+02  0.53928009596E+03  0.55190551138E+03  0.41800000000E+01 0.  1.
         -5    1    3    3    0  502 -0.26680854753E+02 -0.21087353647E+02  0.80165888252E+03  0.80239079059E+03  0.41800000000E+01 0.  1.
        -11    1    4    4    0    0  0.10037072149E+03  0.41689985663E+02  0.27070159921E+03  0.29170480361E+03  0.00000000000E+00 0. -1.
         11    1    4    4    0    0  0.42258722338E+02 -0.38354361072E+02  0.85122362070E+02  0.10248255047E+03  0.00000000000E+00 0.  1.
</event>
<event>
 8    1  0.3719512E-009  0.1076971E+03  0.7561462E-02  0.1264895E+00
          1   -1    0    0  501    0  0.00000000000E+00  0.00000000000E+00  0.58089413875E+03  0.58089413875E+03  0.00000000000E+00 0. -1.
         -1   -1    0    0    0  501 -0.00000000000E+00 -0.00000000000E+00 -0.25944665549E+02  0.25944665549E+02  0.00000000000E+00 0.  1.
         25    2    1    2    0    0  0.30215870182E+02  0.49592829485E+02  0.32796593224E+03  0.35578107999E+03  0.12508427807E+03 0.  0.
         23    2    1    2    0    0 -0.30215870182E+02 -0.49592829485E+02  0.22698354096E+03  0.25105772431E+03  0.90199808884E+02 0.  0.
          5    1    3    3  502    0 -0.15852785537E+02  0.72949652217E+02  0.11943842087E+03  0.14091121796E+03  0.41800000000E+01 0.  1.
         -5    1    3    3    0  502  0.46068655719E+02 -0.23356822732E+02  0.20852751137E+03  0.21486986203E+03  0.41800000000E+01 0.  1.
        -11    1    4    4    0    0 -0.53545449997E+01 -0.61153133565E+02  0.21004076087E+03  0.21882755339E+03  0.00000000000E+00 0. -1.
         11    1    4    4    0    0 -0.24861325182E+02  0.11560304080E+02  0.16942780086E+02  0.32230170916E+02  0.00000000000E+00 0.  1.
</event>
<event>
 8    1  0.3719512E-009  0.1894743E+03  0.7561462E-02  0.1158936E+00
          2   -1    0    0  501    0  0.00000000000E+00  0.00000000000E+00  0.27823323272E+03  0.27823323272E+03  0.00000000000E+00 0.  1.
         -2   -1    0    0    0  501 -0.00000000000E+00 -0.00000000000E+00 -0.13651703068E+03  0.13651703068E+03  0.00000000000E+00 0. -1.
         25    2    1    2    0    0  0.14103647465E+02 -0.15817576878E+03  0.10654205420E+03  0.22851024587E+03  0.12508891419E+03 0.  0.
         23    2    1    2    0    0 -0.14103647465E+02  0.15817576878E+03  0.35174147840E+02  0.18624001754E+03  0.90717345395E+02 0.  0.
          5    1    3    3  502    0  0.46263514641E+02 -0.15687565304E+03  0.65614635501E+02  0.17627545517E+03  0.41800000000E+01 0.  1.
         -5    1    3    3    0  502 -0.32159867175E+02 -0.13001157359E+01  0.40927418698E+02  0.52234790695E+02  0.41800000000E+01 0.  1.
        -11    1    4    4    0    0 -0.52790585292E+02  0.83656035923E+02  0.19692006257E+02  0.10086105964E+03  0.00000000000E+00 0. -1.
         11    1    4    4    0    0  0.38686937826E+02  0.74519732854E+02  0.15482141583E+02  0.85378957894E+02  0.00000000000E+00 0.  1.
</event>
<event>
 8    1  0.3719512E-009  0.1564488E+03  0.7561462E-02  0.1192765E+00
          2   -1    0    0  501    0  0.00000000000E+00  0.00000000000E+00  0.61255056620E+03  0.61255056620E+03  0.00000000000E+00 0. -1.
         -2   -1    0    0    0  501 -0.00000000000E+00 -0.00000000000E+00 -0.52370033812E+02  0.52370033812E+02  0.00000000000E+00 0.  1.
         25    2    1    2    0    0  0.13093949738E+03 -0.36170357453E+01  0.19458293711E+03  0.26583710336E+03  0.12509440908E+03 0.  0.
         23    2    1    2    0    0 -0.13093949738E+03  0.36170357453E+01  0.36559759527E+03  0.39908349665E+03  0.91911918213E+02 0.  0.
          5    1    3    3  502    0  0.14434744482E+03  0.14704146304E+02  0.19457332109E+03  0.24275223258E+03  0.41800000000E+01 0.  1.
         -5    1    3    3    0  502 -0.13407947441E+02 -0.18321182049E+02  0.96160261536E-02  0.23084870776E+02  0.41800000000E+01 0.  1.
        -11    1    4    4    0    0 -0.11134707381E+03 -0.20882099831E+02  0.34067743854E+03  0.35901998561E+03  0.00000000000E+00 0. -1.
         11    1    4    4    0    0 -0.19592423565E+02  0.24499135577E+02  0.24920156735E+02  0.40063511040E+02  0.00000000000E+00 0.  1.
</event>
<event>
 8    1  0.3719512E-009  0.9269403E+02  0.7561462E-02  0.1296456E+00
          1   -1    0    0  501    0  0.00000000000E+00  0.00000000000E+00  0.30055495844E+03  0.30055495844E+03  0.00000000000E+00 0. -1.
         -1   -1    0    0    0  501 -0.00000000000E+00 -0.00000000000E+00 -0.42625470751E+02  0.42625470751E+02  0.00000000000E+00 0.  1.
         25    2    1    2    0    0  0.31802738516E+02 -0.14844345424E+02  0.13564532180E+03  0.18782498754E+03  0.12508718500E+03 0.  0.
         23    2    1    2    0    0 -0.31802738516E+02  0.14844345424E+02  0.12228416589E+03  0.15535544164E+03  0.89163486100E+02 0.  0.
          5    1    3    3  502    0  0.67937335552E+02  0.82276257989E+01  0.12635723178E+03  0.14375951381E+03  0.41800000000E+01 0.  1.
         -5    1    3    3    0  502 -0.36134597036E+02 -0.23071971223E+02  0.92880900190E+01  0.44065473733E+02  0.41800000000E+01 0.  1.
        -11    1    4    4    0    0 -0.67025411210E+00  0.36067046817E+02  0.10993989082E+03  0.11570678761E+03  0.00000000000E+00 0.  1.
         11    1    4    4    0    0 -0.31132484404E+02 -0.21222701392E+02  0.12344275071E+02  0.39648654032E+02  0.00000000000E+00 0. -1.
</event>
<event>
 8    1  0.3719512E-009  0.1177883E+03  0.7561462E-02  0.1246791E+00
          4   -1    0    0  501    0  0.00000000000E+00  0.00000000000E+00  0.30410218860E+03  0.30410218860E+03  0.00000000000E+00 0. -1.
         -4   -1    0    0    0  501 -0.00000000000E+00 -0.00000000000E+00 -0.45945280177E+02  0.45945280177E+02  0.00000000000E+00 0.  1.
         25    2    1    2    0    0 -0.31353788044E+02  0.40722411753E+02  0.14695671388E+03  0.19971569908E+03  0.12509480348E+03 0.  0.
         23    2    1    2    0    0  0.31353788044E+02 -0.40722411753E+02  0.11120019453E+03  0.15033176970E+03  0.87136575969E+02 0.  0.
          5    1    3    3  502    0  0.14657303388E+02 -0.39419753147E+02  0.38540604203E+02  0.57197937490E+02  0.41800000000E+01 0.  1.
         -5    1    3    3    0  502 -0.46011091432E+02  0.80142164900E+02  0.10841610968E+03  0.14251776159E+03  0.41800000000E+01 0.  1.
        -11    1    4    4    0    0  0.21936710850E+02 -0.68263109028E+02  0.84646981236E+02  0.11093323564E+03  0.00000000000E+00 0.  1.
         11    1    4    4    0    0  0.94170771932E+01  0.27540697275E+02  0.26553213298E+02  0.39398534055E+02  0.00000000000E+00 0. -1.
</event>
<event>
 8    1  0.3719512E-009  0.1083902E+03  0.7561462E-02  0.1263580E+00
          1   -1    0    0  501    0  0.00000000000E+00  0.00000000000E+00  0.81362976195E+02  0.81362976195E+02  0.00000000000E+00 0. -1.
         -1   -1    0    0    0  501 -0.00000000000E+00 -0.00000000000E+00 -0.15468142830E+03  0.15468142830E+03  0.00000000000E+00 0.  1.
         25    2    1    2    0    0  0.22929275896E+02 -0.15159019523E+02 -0.42814768156E+02  0.13504256022E+03  0.12509133116E+03 0.  0.
         23    2    1    2    0    0 -0.22929275896E+02  0.15159019523E+02 -0.30503683951E+02  0.10100184428E+03  0.92278655425E+02 0.  0.
          5    1    3    3  502    0 -0.47807486190E+02 -0.28439796350E+02 -0.22405903703E+02  0.60115511085E+02  0.41800000000E+01 0. -1.
         -5    1    3    3    0  502  0.70736762087E+02  0.13280776828E+02 -0.20408864453E+02  0.74927049134E+02  0.41800000000E+01 0. -1.
        -11    1    4    4    0    0  0.49358183500E+01 -0.32943819139E+02 -0.30860872086E+02  0.45409811144E+02  0.00000000000E+00 0. -1.
         11    1    4    4    0    0 -0.27865094246E+02  0.48102838662E+02  0.35718813454E+00  0.55592033134E+02  0.00000000000E+00 0.  1.
</event>
<event>
 8    1  0.3719512E-009  0.1014910E+03  0.7561462E-02  0.1277191E+00
          3   -1    0    0  501    0  0.00000000000E+00  0.00000000000E+00  0.60896489463E+03  0.60896489463E+03  0.00000000000E+00 0. -1.
         -3   -1    0    0    0  501 -0.00000000000E+00 -0.00000000000E+00 -0.21998943299E+02  0.21998943299E+02  0.00000000000E+00 0.  1.
         25    2    1    2    0    0 -0.12761090521E+02  0.33543760453E+02  0.37338351443E+03  0.39541265423E+03  0.12509152243E+03 0.  0.
         23    2    1    2    0    0  0.12761090521E+02 -0.33543760453E+02  0.21358243690E+03  0.23555118369E+03  0.92622208413E+02 0.  0.
          5    1    3    3  502    0  0.41242635182E+02 -0.63156320925E+01  0.50689878543E+02  0.65785852219E+02  0.41800000000E+01 0.  1.
         -5    1    3    3    0  502 -0.54003725703E+02  0.39859392545E+02  0.32269363589E+03  0.32962680202E+03  0.41800000000E+01 0.  1.
        -11    1    4    4    0    0 -0.66267093851E+01  0.28259562165E+02  0.34338122888E+02  0.44962460058E+02  0.00000000000E+00 0. -1.
         11    1    4    4    0    0  0.19387799906E+02 -0.61803322617E+02  0.17924431401E+03  0.19058872364E+03  0.00000000000E+00 0.  1.
</event>
<event>
 8    1  0.3719512E-009  0.1297763E+03  0.7561462E-02  0.1227788E+00
          2   -1    0    0  501    0  0.00000000000E+00  0.00000000000E+00  0.16835375118E+03  0.16835375118E+03  0.00000000000E+00 0. -1.
         -2   -1    0    0    0  501 -0.00000000000E+00 -0.00000000000E+00 -0.14254956741E+03  0.14254956741E+03  0.00000000000E+00 0.  1.
         25    2    1    2    0    0 -0.10514805452E+03 -0.37583809856E+02  0.29596400538E+02  0.17027049402E+03  0.12508972010E+03 0.  0.
         23    2    1    2    0    0  0.10514805452E+03  0.37583809856E+02 -0.37922167735E+01  0.14063282457E+03  0.85408162992E+02 0.  0.
          5    1    3    3  502    0  0.17813302069E+02 -0.12897468703E+02  0.38430745922E+02  0.44475308450E+02  0.41800000000E+01 0.  1.
         -5    1    3    3    0  502 -0.12296135659E+03 -0.24686341153E+02 -0.88343453846E+01  0.12579518557E+03  0.41800000000E+01 0.  1.
        -11    1    4    4    0    0  0.14070654367E+02  0.42910967789E+01 -0.35647091427E+02  0.38563090554E+02  0.00000000000E+00 0.  1.
         11    1    4    4    0    0  0.91077400153E+02  0.33292713077E+02  0.31854874654E+02  0.10206973401E+03  0.00000000000E+00 0. -1.
</event>
<event>
 8    1  0.3719512E-009  0.1526055E+03  0.7561462E-02  0.1197307E+00
         -1   -1    0    0    0  501 -0.00000000000E+00  0.00000000000E+00  0.37752298932E+02  0.37752298932E+02  0.00000000000E+00 0.  1.
          1   -1    0    0  501    0  0.00000000000E+00 -0.00000000000E+00 -0.63054843969E+03  0.63054843969E+03  0.00000000000E+00 0. -1.
         25    2    1    2    0    0 -0.30390528632E+02  0.10370533962E+03 -0.32335974607E+03  0.36316392712E+03  0.12509248934E+03 0.  0.
         23    2    1    2    0    0  0.30390528632E+02 -0.10370533962E+03 -0.26943639468E+03  0.30513681150E+03  0.93990006136E+02 0.  0.
          5    1    3    3  502    0 -0.62141947319E+02  0.11483397700E+03 -0.27001738981E+03  0.29995887567E+03  0.41800000000E+01 0.  1.
         -5    1    3    3    0  502  0.31751418687E+02 -0.11128637379E+02 -0.53342356258E+02  0.63205051457E+02  0.41800000000E+01 0.  1.
        -11    1    4    4    0    0  0.56773473804E+02 -0.34086678613E+02 -0.15573747590E+03  0.16923146984E+03  0.00000000000E+00 0. -1.
         11    1    4    4    0    0 -0.26382945172E+02 -0.69618661006E+02 -0.11369891879E+03  0.13590534165E+03  0.00000000000E+00 0.  1.
</event>
<event>
 8    1  0.3719512E-009  0.1060884E+03  0.7561462E-02  0.1267990E+00
          3   -1    0    0  501    0  0.00000000000E+00  0.00000000000E+00  0.10515220586E+03  0.10515220586E+03  0.00000000000E+00 0. -1.
         -3   -1    0    0    0  501 -0.00000000000E+00 -0.00000000000E+00 -0.16963020522E+03  0.16963020522E+03  0.00000000000E+00 0.  1.
         25    2    1    2    0    0  0.28779824397E+02  0.10543650497E+02 -0.10244352255E+03  0.16456482805E+03  0.12508980958E+03 0.  0.
         23    2    1    2    0    0 -0.28779824397E+02 -0.10543650497E+02  0.37965523191E+02  0.11021758303E+03  0.98828577846E+02 0.  0.
          5    1    3    3  502    0  0.63519770936E+02 -0.29407537411E+02 -0.81403868516E+02  0.10744127124E+03  0.41800000000E+01 0. -1.
         -5    1    3    3    0  502 -0.34739946539E+02  0.39951187908E+02 -0.21039654033E+02  0.57123556810E+02  0.41800000000E+01 0. -1.
        -11    1    4    4    0    0  0.20574309524E+02 -0.29594941139E+02 -0.11456312520E+02  0.37820759511E+02  0.00000000000E+00 0.  1.
         11    1    4    4    0    0 -0.49354133921E+02  0.19051290642E+02  0.49421835712E+02  0.72396823517E+02  0.00000000000E+00 0. -1.
</event>
<event>
 8    1  0.3719512E-009  0.1044190E+03  0.7561462E-02  0.1271268E+00
         -2   -1    0    0    0  501 -0.00000000000E+00  0.00000000000E+00  0.10003507368E+03  0.10003507368E+03  0.00000000000E+00 0.  1.
          2   -1    0    0  501    0  0.00000000000E+00 -0.00000000000E+00 -0.12152865589E+03  0.12152865589E+03  0.00000000000E+00 0. -1.
         25    2    1    2    0    0 -0.11424935704E+02 -0.11014007361E+02  0.32157752078E+01  0.12613951170E+03  0.12509595392E+03 0.  0.
         23    2    1    2    0    0  0.11424935704E+02  0.11014007361E+02 -0.24709357421E+02  0.95424217874E+02  0.90793124733E+02 0.  0.
          5    1    3    3  502    0  0.51339084058E+02 -0.15975275003E+02 -0.21926498884E+02  0.58216447131E+02  0.41800000000E+01 0.  1.
         -5    1    3    3    0  502 -0.62764019762E+02  0.49612676416E+01  0.25142274092E+02  0.67923064564E+02  0.41800000000E+01 0.  1.
        -11    1    4    4    0    0  0.72880405232E+01 -0.39984982235E+02 -0.15131019293E+02  0.43368906879E+02  0.00000000000E+00 0.  1.
         11    1    4    4    0    0  0.41368951812E+01  0.50998989596E+02 -0.95783381277E+01  0.52055310996E+02  0.00000000000E+00 0. -1.
</event>
<event>
 8    1  0.3719512E-009  0.1583287E+03  0.7561462E-02  0.1190597E+00
         -2   -1    0    0    0  501 -0.00000000000E+00  0.00000000000E+00  0.50831660720E+02  0.50831660720E+02  0.00000000000E+00 0.  1.
          2   -1    0    0  501    0  0.00000000000E+00 -0.00000000000E+00 -0.68503759183E+03  0.68503759183E+03  0.00000000000E+00 0. -1.
         25    2    1    2    0    0 -0.51833695271E+02 -0.14162713084E+03 -0.35353153515E+03  0.40420193608E+03  0.12509869155E+03 0.  0.
         23    2    1    2    0    0  0.51833695271E+02  0.14162713084E+03 -0.28067439596E+03  0.33166731647E+03  0.92087545932E+02 0.  0.
          5    1    3    3  502    0 -0.40953168901E+02 -0.14416196182E+03 -0.19872031424E+03  0.24893185608E+03  0.41800000000E+01 0.  1.
         -5    1    3    3    0  502 -0.10880526370E+02  0.25348309862E+01 -0.15481122091E+03  0.15527008000E+03  0.41800000000E+01 0.  1.
        -11    1    4    4    0    0  0.10945870102E+02  0.80641484101E+02 -0.65988383986E+02  0.10477274384E+03  0.00000000000E+00 0.  1.
         11    1    4    4    0    0  0.40887825169E+02  0.60985646735E+02 -0.21468601197E+03  0.22689457263E+03  0.00000000000E+00 0. -1.
</event>
<event>
 8    1  0.3719512E-009  0.1754548E+03  0.7561462E-02  0.1172276E+00
          1   -1    0    0  501    0  0.00000000000E+00  0.00000000000E+00  0.11030556958E+03  0.11030556958E+03  0.00000000000E+00 0. -1.
         -1   -1    0    0    0  501 -0.00000000000E+00 -0.00000000000E+00 -0.32993259090E+03  0.32993259090E+03  0.00000000000E+00 0.  1.
         25    2    1    2    0    0  0.11113742208E+02  0.15475217662E+03 -0.92554268146E+02  0.21973976292E+03  0.12509004525E+03 0.  0.
         23    2    1    2    0    0 -0.11113742208E+02 -0.15475217662E+03 -0.12707275318E+03  0.22049839756E+03  0.91653190310E+02 0.  0.
          5    1    3    3  502    0 -0.28634214568E+02  0.97328513493E+02 -0.10784600065E+03  0.14812491364E+03  0.41800000000E+01 0.  1.
         -5    1    3    3    0  502  0.39747956776E+02  0.57423663126E+02  0.15291732508E+02  0.71614849283E+02  0.41800000000E+01 0.  1.
        -11    1    4    4    0    0  0.37159046308E+02 -0.38385350246E+02 -0.28609502039E+02  0.60603081134E+02  0.00000000000E+00 0. -1.
         11    1    4    4    0    0 -0.48272788517E+02 -0.11636682637E+03 -0.98463251140E+02  0.15989531643E+03  0.00000000000E+00 0.  1.
</event>
<event>
 8    1  0.3719512E-009  0.9186441E+02  0.7561462E-02  0.1298399E+00
         -2   -1    0    0    0  501 -0.00000000000E+00  0.00000000000E+00  0.17118068904E+03  0.17118068904E+03  0.00000000000E+00 0.  1.
          2   -1    0    0  501    0  0.00000000000E+00 -0.00000000000E+00 -0.77979639418E+02  0.77979639418E+02  0.00000000000E+00 0. -1.
         25    2    1    2    0    0  0.28208933024E+01  0.74278250881E+01  0.23129989863E+02  0.12745819067E+03  0.12508982338E+03 0.  0.
         23    2    1    2    0    0 -0.28208933024E+01 -0.74278250881E+01  0.70071059760E+02  0.12170213779E+03  0.99188340552E+02 0.  0.
          5    1    3    3  502    0  0.62931461077E+02  0.12890036851E+02  0.64376184437E+01  0.64694954784E+02  0.41800000000E+01 0.  1.
         -5    1    3    3    0  502 -0.60110567774E+02 -0.54622117634E+01  0.16692371419E+02  0.62763235888E+02  0.41800000000E+01 0.  1.
        -11    1    4    4    0    0 -0.43469916474E+01  0.25510644534E+02 -0.15384217195E+02  0.30105870850E+02  0.00000000000E+00 0. -1.
         11    1    4    4    0    0  0.15260983450E+01 -0.32938469622E+02  0.85455276955E+02  0.91596266937E+02  0.00000000000E+00 0.  1.
</event>
<event>
 8    1  0.3719512E-009  0.1612527E+03  0.7561462E-02  0.1187290E+00
          2   -1    0    0  501    0  0.00000000000E+00  0.00000000000E+00  0.39123186940E+03  0.39123186940E+03  0.00000000000E+00 0. -1.
         -2   -1    0    0    0  501 -0.00000000000E+00 -0.00000000000E+00 -0.10360584692E+03  0.10360584692E+03  0.00000000000E+00 0.  1.
         25    2    1    2    0    0  0.63776919789E+02 -0.14023341674E+03  0.23455064573E+03  0.30723870528E+03  0.12509480381E+03 0.  0.
         23    2    1    2    0    0 -0.63776919789E+02  0.14023341674E+03  0.53075376749E+02  0.18759901104E+03  0.92970353654E+02 0.  0.
          5    1    3    3  502    0  0.26360183650E+02 -0.12502839346E+03  0.23398196766E+03  0.26663081601E+03  0.41800000000E+01 0.  1.
         -5    1    3    3    0  502  0.37416736139E+02 -0.15205023277E+02  0.56867806708E+00  0.40607889270E+02  0.41800000000E+01 0.  1.
        -11    1    4    4    0    0 -0.44874911090E+02  0.99360215426E+02 -0.10677605091E+02  0.10954552161E+03  0.00000000000E+00 0.  1.
         11    1    4    4    0    0 -0.18902008700E+02  0.40873201310E+02  0.63752981840E+02  0.78053489427E+02  0.00000000000E+00 0. -1.
</event>
<event>
 8    1  0.3719512E-009  0.2147172E+03  0.7561462E-02  0.1137884E+00
         -2   -1    0    0    0  501 -0.00000000000E+00  0.00000000000E+00  0.43899890384E+02  0.43899890384E+02  0.00000000000E+00 0.  1.
          2   -1    0    0  501    0  0.00000000000E+00 -0.00000000000E+00 -0.11731789688E+04  0.11731789688E+04  0.00000000000E+00 0. -1.
         25    2    1    2    0    0 -0.17029383872E+03 -0.95149482229E+02 -0.63502069723E+03  0.67598231398E+03  0.12508951763E+03 0.  0.
         23    2    1    2    0    0  0.17029383872E+03  0.95149482229E+02 -0.49425838117E+03  0.54109654520E+03  0.10217978466E+03 0.  0.
          5    1    3    3  502    0 -0.23857199425E+02 -0.68414807996E+02 -0.12370695416E+03  0.14342466603E+03  0.41800000000E+01 0.  1.
         -5    1    3    3    0  502 -0.14643663929E+03 -0.26734674233E+02 -0.51131374307E+03  0.53255764795E+03  0.41800000000E+01 0.  1.
        -11    1    4    4    0    0  0.53712984584E+02  0.70761517107E+02 -0.30326271120E+03  0.31600719773E+03  0.00000000000E+00 0. -1.
         11    1    4    4    0    0  0.11658085413E+03  0.24387965122E+02 -0.19099566997E+03  0.22508934746E+03  0.00000000000E+00 0.  1.
</event>
<event>
 8    1  0.3719512E-009  0.9729770E+02  0.7561462E-02  0.1286083E+00
         -1   -1    0    0    0  501 -0.00000000000E+00  0.00000000000E+00  0.29358553793E+02  0.29358553793E+02  0.00000000000E+00 0.  1.
          1   -1    0    0  501    0  0.00000000000E+00 -0.00000000000E+00 -0.52775464188E+03  0.52775464188E+03  0.00000000000E+00 0. -1.
         25    2    1    2    0    0 -0.18626312091E+02  0.56676429372E+02 -0.25993604821E+03  0.29457447994E+03  0.12509283723E+03 0.  0.
         23    2    1    2    0    0  0.18626312091E+02 -0.56676429372E+02 -0.23846003988E+03  0.26253871573E+03  0.92218379350E+02 0.  0.
          5    1    3    3  502    0 -0.11677605132E+02  0.78798173769E+02 -0.79546433666E+02  0.11265267933E+03  0.41800000000E+01 0.  1.
         -5    1    3    3    0  502 -0.69487069585E+01 -0.22121744397E+02 -0.18038961454E+03  0.18192180061E+03  0.41800000000E+01 0.  1.
        -11    1    4    4    0    0  0.44127781669E+02 -0.45622203857E+02 -0.22048371177E+03  0.22943782111E+03  0.00000000000E+00 0. -1.
         11    1    4    4    0    0 -0.25501469578E+02 -0.11054225515E+02 -0.17976328107E+02  0.33100894619E+02  0.00000000000E+00 0.  1.
</event>
<event>
 8    1  0.3719512E-009  0.1992198E+03  0.7561462E-02  0.1150399E+00
          2   -1    0    0  501    0  0.00000000000E+00  0.00000000000E+00  0.13454736324E+04  0.13454736324E+04  0.00000000000E+00 0.  1.
         -2   -1    0    0    0  501 -0.00000000000E+00 -0.00000000000E+00 -0.34579819686E+02  0.34579819686E+02  0.00000000000E+00 0. -1.
         25    2    1    2    0    0  0.18355209977E+03  0.37864963413E+01  0.60215984234E+03  0.64183402256E+03  0.12509486762E+03 0.  0.
         23    2    1    2    0    0 -0.18355209977E+03 -0.37864963413E+01  0.70873397042E+03  0.73821942957E+03  0.94648689814E+02 0.  0.
          5    1    3    3  502    0  0.11867505355E+03 -0.31460960278E+02  0.50502866401E+03  0.51975473469E+03  0.41800000000E+01 0. -1.
         -5    1    3    3    0  502  0.64877046220E+02  0.35247456619E+02  0.97131178330E+02  0.12207928788E+03  0.41800000000E+01 0. -1.
        -11    1    4    4    0    0 -0.18280502640E+03 -0.21363644236E+02  0.68052467598E+03  0.70497369993E+03  0.00000000000E+00 0.  1.
         11    1    4    4    0    0 -0.74707337587E+00  0.17577147895E+02  0.28209294435E+02  0.33245729640E+02  0.00000000000E+00 0. -1.
</event>
<event>
 8    1  0.3719512E-009  0.1791343E+03  0.7561462E-02  0.1168644E+00
          1   -1    0    0  501    0  0.00000000000E+00  0.00000000000E+00  0.12945980989E+04  0.12945980989E+04  0.00000000000E+00 0. -1.
         -1   -1    0    0    0  501 -0.00000000000E+00 -0.00000000000E+00 -0.25039966628E+02  0.25039966628E+02  0.00000000000E+00 0.  1.
         25    2    1    2    0    0  0.14159774311E+03  0.23118724610E+02  0.66156412260E+03  0.68840385576E+03  0.12509350113E+03 0.  0.
         23    2    1    2    0    0 -0.14159774311E+03 -0.23118724610E+02  0.60799400970E+03  0.63123420980E+03  0.90639480974E+02 0.  0.
          5    1    3    3  502    0 -0.23382090205E+02  0.53324179663E+01  0.81616673426E+02  0.85169892596E+02  0.41800000000E+01 0.  1.
         -5    1    3    3    0  502  0.16497983332E+03  0.17786306643E+02  0.57994744918E+03  0.60323396316E+03  0.41800000000E+01 0.  1.
        -11    1    4    4    0    0 -0.12573077126E+02 -0.36131849758E+02  0.18023275452E+03  0.18424830701E+03  0.00000000000E+00 0. -1.
         11    1    4    4    0    0 -0.12902466599E+03  0.13013125148E+02  0.42776125518E+03  0.44698590279E+03  0.00000000000E+00 0.  1.
</event>
<event>
 8    1  0.3719512E-009  0.1100223E+03  0.7561462E-02  0.1260529E+00
          1   -1    0    0  501    0  0.00000000000E+00  0.00000000000E+00  0.42507539727E+03  0.42507539727E+03  0.00000000000E+00 0. -1.
         -1   -1    0    0    0  501 -0.00000000000E+00 -0.00000000000E+00 -0.43840583036E+02  0.43840583036E+02  0.00000000000E+00 0.  1.
         25    2    1    2    0    0  0.23477695219E+02 -0.40570391316E+02  0.93120637987E+02  0.16283733040E+03  0.12508950447E+03 0.  0.
         23    2    1    2    0    0 -0.23477695219E+02  0.40570391316E+02  0.28811417625E+03  0.30607864991E+03  0.92071725032E+02 0.  0.
          5    1    3    3  502    0 -0.31372323017E+02 -0.58006813138E+02  0.79810853802E+02  0.10361591483E+03  0.41800000000E+01 0.  1.
         -5    1    3    3    0  502  0.54850018237E+02  0.17436421821E+02  0.13309784185E+02  0.59221415565E+02  0.41800000000E+01 0.  1.
        -11    1    4    4    0    0  0.30831614161E+02  0.25190231238E+02  0.67583238616E+02  0.78438704243E+02  0.00000000000E+00 0.  1.
         11    1    4    4    0    0 -0.54309309381E+02  0.15380160078E+02  0.22053093763E+03  0.22763994566E+03  0.00000000000E+00 0. -1.
</event>
<event>
 8    1  0.3719512E-009  0.1937728E+03  0.7561462E-02  0.1155102E+00
         -1   -1    0    0    0  501 -0.00000000000E+00  0.00000000000E+00  0.44587240891E+02  0.44587240891E+02  0.00000000000E+00 0.  1.
          1   -1    0    0  501    0  0.00000000000E+00 -0.00000000000E+00 -0.10742522180E+04  0.10742522180E+04  0.00000000000E+00 0. -1.
         25    2    1    2    0    0 -0.13898094274E+03 -0.89438942940E+02 -0.29740804955E+03  0.36251214705E+03  0.12509389217E+03 0.  0.
         23    2    1    2    0    0  0.13898094274E+03  0.89438942940E+02 -0.73225692756E+03  0.75632731184E+03  0.92280917441E+02 0.  0.
          5    1    3    3  502    0 -0.13763043294E+03 -0.32504329254E+02 -0.25414357693E+03  0.29086955425E+03  0.41800000000E+01 0. -1.
         -5    1    3    3    0  502 -0.13505098048E+01 -0.56934613687E+02 -0.43264472620E+02  0.71642592803E+02  0.41800000000E+01 0. -1.
        -11    1    4    4    0    0 -0.12396364911E+02  0.17281605600E+02 -0.69317279796E+02  0.72506613722E+02  0.00000000000E+00 0.  1.
         11    1    4    4    0    0  0.15137730765E+03  0.72157337341E+02 -0.66293964776E+03  0.68382069812E+03  0.00000000000E+00 0. -1.
</event>
<event>
 8    1  0.3719512E-009  0.9256054E+02  0.7561462E-02  0.1296767E+00
         -1   -1    0    0    0  501 -0.00000000000E+00  0.00000000000E+00  0.46303908724E+02  0.46303908724E+02  0.00000000000E+00 0.  1.
          1   -1    0    0  501    0  0.00000000000E+00 -0.00000000000E+00 -0.37139652441E+03  0.37139652441E+03  0.00000000000E+00 0. -1.
         25    2    1    2    0    0 -0.14062327827E+02  0.35977269753E+02 -0.28082123299E+03  0.30983725748E+03  0.12508576347E+03 0.  0.
         23    2    1    2    0    0  0.14062327827E+02 -0.35977269753E+02 -0.44271382693E+02  0.10786317565E+03  0.90456599168E+02 0.  0.
          5    1    3    3  502    0  0.14372506091E+02  0.71510769478E+02 -0.10328667700E+03  0.12651469925E+03  0.41800000000E+01 0. -1.
         -5    1    3    3    0  502 -0.28434833918E+02 -0.35533499725E+02 -0.17753455600E+03  0.18332255823E+03  0.41800000000E+01 0. -1.
        -11    1    4    4    0    0 -0.17059033793E+02  0.20930085490E+01  0.20365517818E+02  0.26648557836E+02  0.00000000000E+00 0.  1.
         11    1    4    4    0    0  0.31121361620E+02 -0.38070278302E+02 -0.64636900512E+02  0.81214617815E+02  0.00000000000E+00 0. -1.
</event>
<event>
 8    1  0.3719512E-009  0.7776498E+02  0.7561462E-02  0.1335516E+00
          1   -1    0    0  501    0  0.00000000000E+00  0.00000000000E+00  0.11347608552E+04  0.11347608552E+04  0.00000000000E+00 0. -1.
         -1   -1    0    0    0  501 -0.00000000000E+00 -0.00000000000E+00 -0.20402157838E+02  0.20402157838E+02  0.00000000000E+00 0.  1.
         25    2    1    2    0    0 -0.46110431207E+01 -0.54138066456E+02  0.94895878718E+03  0.95870787827E+03  0.12508326876E+03 0.  0.
         23    2    1    2    0    0  0.46110431207E+01  0.54138066456E+02  0.16539991018E+03  0.19645513477E+03  0.91023610849E+02 0.  0.
          5    1    3    3  502    0  0.15039600339E+02  0.12091413916E+02  0.70081889313E+03  0.70109698704E+03  0.41800000000E+01 0. -1.
         -5    1    3    3    0  502 -0.19650643460E+02 -0.66229480372E+02  0.24813989406E+03  0.25761089123E+03  0.41800000000E+01 0. -1.
        -11    1    4    4    0    0  0.13237458729E+02  0.15999392235E+01 -0.76689791526E+01  0.15381916668E+02  0.00000000000E+00 0.  1.
         11    1    4    4    0    0 -0.86264156087E+01  0.52538127232E+02  0.17306888934E+03  0.18107321811E+03  0.00000000000E+00 0. -1.
</event>
<event>
 8    1  0.3719512E-009  0.1363926E+03  0.7561462E-02  0.1218267E+00
          1   -1    0    0  501    0  0.00000000000E+00  0.00000000000E+00  0.84502142465E+02  0.84502142465E+02  0.00000000000E+00 0. -1.
         -1   -1    0    0    0  501 -0.00000000000E+00 -0.00000000000E+00 -0.26453925670E+03  0.26453925670E+03  0.00000000000E+00 0.  1.
         25    2    1    2    0    0 -0.83804948389E+02  0.58320427667E+02 -0.10075882513E+03  0.19032298933E+03  0.12508380298E+03 0.  0.
         23    2    1    2    0    0  0.83804948389E+02 -0.58320427667E+02 -0.79278289110E+02  0.15871840984E+03  0.92097474664E+02 0.  0.
          5    1    3    3  502    0 -0.10910693311E+03  0.59275827623E+02 -0.10694091445E+03  0.16392613634E+03  0.41800000000E+01 0. -1.
         -5    1    3    3    0  502  0.25301984717E+02 -0.95539995561E+00  0.61820893163E+01  0.26396852994E+02  0.41800000000E+01 0. -1.
        -11    1    4    4    0    0  0.31072374164E+02 -0.62691753421E+02 -0.79365776463E+02  0.10580489051E+03  0.00000000000E+00 0.  1.
         11    1    4    4    0    0  0.52732574224E+02  0.43713257535E+01  0.87487353133E-01  0.52913519324E+02  0.00000000000E+00 0. -1.
</event>
<event>
 8    1  0.3719512E-009  0.1133775E+03  0.7561462E-02  0.1254440E+00
          2   -1    0    0  501    0  0.00000000000E+00  0.00000000000E+00  0.54256318959E+03  0.54256318959E+03  0.00000000000E+00 0.  1.
         -2   -1    0    0    0  501 -0.00000000000E+00 -0.00000000000E+00 -0.31470847597E+02  0.31470847597E+02  0.00000000000E+00 0. -1.
         25    2    1    2    0    0 -0.45432532891E+02  0.54752143971E+02  0.25301054074E+03  0.29107337617E+03  0.12508982483E+03 0.  0.
         23    2    1    2    0    0  0.45432532891E+02 -0.54752143971E+02  0.25808180125E+03  0.28296066102E+03  0.91643915402E+02 0.  0.
          5    1    3    3  502    0 -0.12574373057E+02 -0.26868027451E+02  0.16074181836E+03  0.16350966433E+03  0.41800000000E+01 0.  1.
         -5    1    3    3    0  502 -0.32858159834E+02  0.81620171422E+02  0.92268722376E+02  0.12756371184E+03  0.41800000000E+01 0.  1.
        -11    1    4    4    0    0 -0.22258777859E+02 -0.28373527454E+02  0.44014921245E+02  0.56901876455E+02  0.00000000000E+00 0. -1.
         11    1    4    4    0    0  0.67691310751E+02 -0.26378616517E+02  0.21406688001E+03  0.22605878456E+03  0.00000000000E+00 0.  1.
</event>
<event>
 8    1  0.3719512E-009  0.1114258E+03  0.7561462E-02  0.1257952E+00
         -2   -1    0    0    0  501 -0.00000000000E+00  0.00000000000E+00  0.65917608908E+02  0.65917608908E+02  0.00000000000E+00 0. -1.
          2   -1    0    0  501    0  0.00000000000E+00 -0.00000000000E+00 -0.21637838057E+03  0.21637838057E+03  0.00000000000E+00 0.  1.
         25    2    1    2    0    0 -0.28427482885E+01  0.33600766316E+02 -0.40219535641E+02  0.13565561361E+03  0.12509093389E+03 0.  0.
         23    2    1    2    0    0  0.28427482885E+01 -0.33600766316E+02 -0.11024123602E+03  0.14664037587E+03  0.90626579985E+02 0.  0.
          5    1    3    3  502    0 -0.39881674368E+02 -0.33703452300E+02 -0.20333866174E+02  0.56190828086E+02  0.41800000000E+01 0.  1.
         -5    1    3    3    0  502  0.37038926080E+02  0.67304218617E+02 -0.19885669468E+02  0.79464785528E+02  0.41800000000E+01 0.  1.
        -11    1    4    4    0    0  0.44828140845E+02 -0.22215301109E+02 -0.40160005525E+02  0.64155341623E+02  0.00000000000E+00 0. -1.
         11    1    4    4    0    0 -0.41985392557E+02 -0.11385465207E+02 -0.70081230499E+02  0.82485034245E+02  0.00000000000E+00 0.  1.
</event>
<event>
 8    1  0.3719512E-009  0.1627404E+03  0.7561462E-02  0.1185637E+00
          2   -1    0    0  501    0  0.00000000000E+00  0.00000000000E+00  0.15329379765E+04  0.15329379765E+04  0.00000000000E+00 0. -1.
         -2   -1    0    0    0  501 -0.00000000000E+00 -0.00000000000E+00 -0.30645668610E+02  0.30645668610E+02  0.00000000000E+00 0.  1.
         25    2    1    2    0    0  0.35557330799E+02 -0.14183066526E+03  0.12027747543E+04  0.12180701826E+04  0.12509036291E+03 0.  0.
         23    2    1    2    0    0 -0.35557330799E+02  0.14183066526E+03  0.29951755363E+03  0.34551346250E+03  0.91041344767E+02 0.  0.
          5    1    3    3  502    0 -0.14071147622E+02 -0.91924144044E+02  0.97983654545E+03  0.98424853246E+03  0.41800000000E+01 0. -1.
         -5    1    3    3    0  502  0.49628478421E+02 -0.49906521215E+02  0.22293820883E+03  0.23382165017E+03  0.41800000000E+01 0. -1.
        -11    1    4    4    0    0 -0.17711441402E+02 -0.11945497998E+01  0.63910273527E+01  0.18867096660E+02  0.00000000000E+00 0.  1.
         11    1    4    4    0    0 -0.17845889397E+02  0.14302521506E+03  0.29312652628E+03  0.32664636584E+03  0.00000000000E+00 0. -1.
</event>
<event>
 8    1  0.3719512E-009  0.1097601E+03  0.7561462E-02  0.1261015E+00
         -1   -1    0    0    0  501 -0.00000000000E+00  0.00000000000E+00  0.26219071140E+03  0.26219071140E+03  0.00000000000E+00 0.  1.
          1   -1    0    0  501    0  0.00000000000E+00 -0.00000000000E+00 -0.92204256016E+02  0.92204256016E+02  0.00000000000E+00 0. -1.
         25    2    1    2    0    0 -0.50958043871E+02 -0.10530195792E+02 -0.19834452496E+02  0.13692586996E+03  0.12509069150E+03 0.  0.
         23    2    1    2    0    0  0.50958043871E+02  0.10530195792E+02  0.18982090789E+03  0.21746909746E+03  0.92483641902E+02 0.  0.
          5    1    3    3  502    0 -0.30042579127E+01 -0.62610186653E+02  0.15924575450E+01  0.62841621234E+02  0.41800000000E+01 0. -1.
         -5    1    3    3    0  502 -0.47953785959E+02  0.52079990861E+02 -0.21426910041E+02  0.74084248729E+02  0.41800000000E+01 0. -1.
        -11    1    4    4    0    0  0.21653882510E+02 -0.29237090170E+02  0.14902794668E+03  0.15340478142E+03  0.00000000000E+00 0.  1.
         11    1    4    4    0    0  0.29304161361E+02  0.39767285962E+02  0.40792961202E+02  0.64064316038E+02  0.00000000000E+00 0. -1.
</event>
<event>
 8    1  0.3719512E-009  0.1365250E+03  0.7561462E-02  0.1218083E+00
          1   -1    0    0  501    0  0.00000000000E+00  0.00000000000E+00  0.28452356496E+03  0.28452356496E+03  0.00000000000E+00 0. -1.
         -1   -1    0    0    0  501 -0.00000000000E+00 -0.00000000000E+00 -0.92165044338E+02  0.92165044338E+02  0.00000000000E+00 0.  1.
         25    2    1    2    0    0 -0.63491571383E+02 -0.86722131476E+02  0.16481362536E+03  0.23315932000E+03  0.12509128537E+03 0.  0.
         23    2    1    2    0    0  0.63491571383E+02  0.86722131476E+02  0.27544895256E+02  0.14352928929E+03  0.91049590368E+02 0.  0.
          5    1    3    3  502    0 -0.39851357533E+02  0.27236815944E+02  0.49749682653E+02  0.69444065002E+02  0.41800000000E+01 0.  1.
         -5    1    3    3    0  502 -0.23640213850E+02 -0.11395894742E+03  0.11506394271E+03  0.16371525500E+03  0.41800000000E+01 0.  1.
        -11    1    4    4    0    0  0.18924336777E+02  0.35606441453E+02  0.56811758826E+02  0.69667245793E+02  0.00000000000E+00 0. -1.
         11    1    4    4    0    0  0.44567234606E+02  0.51115690023E+02 -0.29266863570E+02  0.73862043501E+02  0.00000000000E+00 0.  1.
</event>
<event>
 8    1  0.3719512E-009  0.1340348E+03  0.7561462E-02  0.1221589E+00
          2   -1    0    0  501    0  0.00000000000E+00  0.00000000000E+00  0.19461051349E+04  0.19461051349E+04  0.00000000000E+00 0.  1.
         -2   -1    0    0    0  501 -0.00000000000E+00 -0.00000000000E+00 -0.14026680734E+02  0.14026680734E+02  0.00000000000E+00 0. -1.
         25    2    1    2    0    0  0.50537122921E+02  0.70904531153E+02  0.15483434446E+04  0.15558264768E+04  0.12508857024E+03 0.  0.
         23    2    1    2    0    0 -0.50537122921E+02 -0.70904531153E+02  0.38373500963E+03  0.40430533882E+03  0.92891313089E+02 0.  0.
          5    1    3    3  502    0 -0.35549453190E+02  0.24060261594E+02  0.78827366763E+03  0.78945266311E+03  0.41800000000E+01 0. -1.
         -5    1    3    3    0  502  0.86086576110E+02  0.46844269559E+02  0.76006977693E+03  0.76637381373E+03  0.41800000000E+01 0. -1.
        -11    1    4    4    0    0 -0.65198437050E+02 -0.12190998859E+02  0.21801528158E+03  0.22788181070E+03  0.00000000000E+00 0. -1.
         11    1    4    4    0    0  0.14661314129E+02 -0.58713532295E+02  0.16571972806E+03  0.17642352812E+03  0.00000000000E+00 0.  1.
</event>
<event>
 8    1  0.3719512E-009  0.9482699E+02  0.7561462E-02  0.1291566E+00
          2   -1    0    0  501    0  0.00000000000E+00  0.00000000000E+00  0.87174927569E+02  0.87174927569E+02  0.00000000000E+00 0. -1.
         -2   -1    0    0    0  501 -0.00000000000E+00 -0.00000000000E+00 -0.14475575515E+03  0.14475575515E+03  0.00000000000E+00 0.  1.
         25    2    1    2    0    0 -0.13957280609E+02 -0.21883923437E+02 -0.50272433665E+02  0.13729038746E+03  0.12509045173E+03 0.  0.
         23    2    1    2    0    0  0.13957280609E+02  0.21883923437E+02 -0.73083939201E+01  0.94640295266E+02  0.90717479458E+02 0.  0.
          5    1    3    3  502    0 -0.42424716924E+02 -0.60549940261E+02 -0.49528021988E+02  0.89087873663E+02  0.41800000000E+01 0.  1.
         -5    1    3    3    0  502  0.28467436316E+02  0.38666016824E+02 -0.74441167636E+00  0.48202513795E+02  0.41800000000E+01 0.  1.
        -11    1    4    4    0    0  0.37297662681E+02  0.30645636490E+01  0.29150259241E+02  0.47436745310E+02  0.00000000000E+00 0. -1.
         11    1    4    4    0    0 -0.23340382072E+02  0.18819359788E+02 -0.36458653161E+02  0.47203549956E+02  0.00000000000E+00 0.  1.
</event>
<event>
 8    1  0.3719512E-009  0.1598465E+03  0.7561462E-02  0.1188870E+00
         -1   -1    0    0    0  501 -0.00000000000E+00  0.00000000000E+00  0.77842320826E+03  0.77842320826E+03  0.00000000000E+00 0.  1.
          1   -1    0    0  501    0  0.00000000000E+00 -0.00000000000E+00 -0.61484286856E+02  0.61484286856E+02  0.00000000000E+00 0. -1.
         25    2    1    2    0    0 -0.81300151133E+02  0.13264205042E+03  0.16438692139E+03  0.25860095783E+03  0.12509103626E+03 0.  0.
         23    2    1    2    0    0  0.81300151133E+02 -0.13264205042E+03  0.55255200002E+03  0.58130653729E+03  0.91651238155E+02 0.  0.
          5    1    3    3  502    0 -0.58090893539E+02  0.11759687715E+03  0.49333446890E+02  0.14019571609E+03  0.41800000000E+01 0.  1.
         -5    1    3    3    0  502 -0.23209257595E+02  0.15045173271E+02  0.11505347450E+03  0.11840524174E+03  0.41800000000E+01 0.  1.
        -11    1    4    4    0    0  0.79969727815E+01 -0.47378723486E+02  0.64271507217E+02  0.80246630164E+02  0.00000000000E+00 0. -1.
         11    1    4    4    0    0  0.73303178352E+02 -0.85263326938E+02  0.48828049280E+03  0.50105990712E+03  0.00000000000E+00 0.  1.
</event>
<event>
 8    1  0.3719512E-009  0.1059038E+03  0.7561462E-02  0.1268349E+00
          1   -1    0    0  501    0  0.00000000000E+00  0.00000000000E+00  0.34424712879E+03  0.34424712879E+03  0.00000000000E+00 0. -1.
         -1   -1    0    0    0  501 -0.00000000000E+00 -0.00000000000E+00 -0.36152898852E+02  0.36152898852E+02  0.00000000000E+00 0.  1.
         25    2    1    2    0    0 -0.20757986549E+02  0.78487364981E+01  0.13726197463E+03  0.18703118486E+03  0.12508923920E+03 0.  0.
         23    2    1    2    0    0  0.20757986549E+02 -0.78487364981E+01  0.17083225531E+03  0.19336884278E+03  0.87837083473E+02 0.  0.
          5    1    3    3  502    0 -0.48045275179E+01 -0.56613011464E+02  0.85449036412E+02  0.10269920533E+03  0.41800000000E+01 0. -1.
         -5    1    3    3    0  502 -0.15953459031E+02  0.64461747963E+02  0.51812938215E+02  0.84331979533E+02  0.41800000000E+01 0. -1.
        -11    1    4    4    0    0 -0.33578034458E+02 -0.42255007992E+01  0.87542861363E+02  0.93856762307E+02  0.00000000000E+00 0. -1.
         11    1    4    4    0    0  0.54336021007E+02 -0.36232356989E+01  0.83289393951E+02  0.99512080475E+02  0.00000000000E+00 0.  1.
</event>
<event>
 8    1  0.3719512E-009  0.9685723E+02  0.7561462E-02  0.1287047E+00
         -1   -1    0    0    0  501 -0.00000000000E+00  0.00000000000E+00  0.16951728966E+02  0.16951728966E+02  0.00000000000E+00 0.  1.
          1   -1    0    0  501    0  0.00000000000E+00 -0.00000000000E+00 -0.70646394558E+03  0.70646394558E+03  0.00000000000E+00 0. -1.
         25    2    1    2    0    0  0.96107918373E+01  0.74634957175E+01 -0.37507623716E+03  0.39556877156E+03  0.12507756898E+03 0.  0.
         23    2    1    2    0    0 -0.96107918373E+01 -0.74634957175E+01 -0.31443597945E+03  0.32784690298E+03  0.92008344930E+02 0.  0.
          5    1    3    3  502    0  0.42833353994E+02  0.42053799184E+02 -0.10318332130E+03  0.11944659239E+03  0.41800000000E+01 0. -1.
         -5    1    3    3    0  502 -0.33222562157E+02 -0.34590303467E+02 -0.27189291587E+03  0.27612217917E+03  0.41800000000E+01 0. -1.
        -11    1    4    4    0    0 -0.25563781373E+02  0.33093936848E+02 -0.21863823977E+03  0.22260142736E+03  0.00000000000E+00 0. -1.
         11    1    4    4    0    0  0.15952989536E+02 -0.40557432565E+02 -0.95797739681E+02  0.10524547562E+03  0.00000000000E+00 0.  1.
</event>
<event>
 8    1  0.3719512E-009  0.1121293E+03  0.7561462E-02  0.1256677E+00
          2   -1    0    0  501    0  0.00000000000E+00  0.00000000000E+00  0.42106147130E+03  0.42106147130E+03  0.00000000000E+00 0. -1.
         -2   -1    0    0    0  501 -0.00000000000E+00 -0.00000000000E+00 -0.42574971470E+02  0.42574971470E+02  0.00000000000E+00 0.  1.
         25    2    1    2    0    0 -0.77010050119E+02 -0.10356835267E+02  0.19415914894E+03  0.24368140324E+03  0.12508013156E+03 0.  0.
         23    2    1    2    0    0  0.77010050119E+02  0.10356835267E+02  0.18432735089E+03  0.21995503953E+03  0.91464940129E+02 0.  0.
          5    1    3    3  502    0 -0.92393602995E+02 -0.12970256260E+02  0.65644606193E+02  0.11415556116E+03  0.41800000000E+01 0.  1.
         -5    1    3    3    0  502  0.15383552876E+02  0.26134209934E+01  0.12851454275E+03  0.12952584208E+03  0.41800000000E+01 0.  1.
        -11    1    4    4    0    0 -0.52509206142E+00  0.33726658545E+02  0.27760694331E+02  0.43685459458E+02  0.00000000000E+00 0.  1.
         11    1    4    4    0    0  0.77535142181E+02 -0.23369823278E+02  0.15656665656E+03  0.17626958008E+03  0.00000000000E+00 0. -1.
</event>
<event>
 8    1  0.3719512E-009  0.1309166E+03  0.7561462E-02  0.1226102E+00
          1   -1    0    0  501    0  0.00000000000E+00  0.00000000000E+00  0.68687210702E+02  0.68687210702E+02  0.00000000000E+00 0. -1.
         -1   -1    0    0    0  501 -0.00000000000E+00 -0.00000000000E+00 -0.41872662952E+03  0.41872662952E+03  0.00000000000E+00 0.  1.
         25    2    1    2    0    0  0.12548258011E+03  0.63163340496E+01 -0.18416904711E+03  0.25564003972E+03  0.12509123874E+03 0.  0.
         23    2    1    2    0    0 -0.12548258011E+03 -0.63163340496E+01 -0.16587037171E+03  0.23177380050E+03  0.10208006857E+03 0.  0.
          5    1    3    3  502    0  0.10737796974E+03  0.19658241059E+02 -0.51071714049E+02  0.12059132308E+03  0.41800000000E+01 0.  1.
         -5    1    3    3    0  502  0.18104610373E+02 -0.13341907009E+02 -0.13309733306E+03  0.13504871664E+03  0.41800000000E+01 0.  1.
        -11    1    4    4    0    0 -0.27164843661E+02 -0.14972511409E+02  0.78302385092E+01  0.31990896582E+02  0.00000000000E+00 0. -1.
         11    1    4    4    0    0 -0.98317736449E+02  0.86561773597E+01 -0.17370061022E+03  0.19978290391E+03  0.00000000000E+00 0.  1.
</event>
<event>
 8    1  0.3719512E-009  0.1250537E+03  0.7561462E-02  0.1234985E+00
         -3   -1    0    0    0  501 -0.00000000000E+00  0.00000000000E+00  0.21048414032E+03  0.21048414032E+03  0.00000000000E+00 0.  1.
          3   -1    0    0  501    0  0.00000000000E+00 -0.00000000000E+00 -0.10938274964E+03  0.10938274964E+03  0.00000000000E+00 0. -1.
         25    2    1    2    0    0  0.72293177977E+02 -0.45928139481E+02  0.11694248220E+03  0.19146435477E+03  0.12508939773E+03 0.  0.
         23    2    1    2    0    0 -0.72293177977E+02  0.45928139481E+02 -0.15841091527E+02  0.12840253520E+03  0.94342849683E+02 0.  0.
          5    1    3    3  502    0  0.52619737637E+02  0.18324622431E+02  0.11050737589E+03  0.12383045305E+03  0.41800000000E+01 0.  1.
         -5    1    3    3    0  502  0.19673440340E+02 -0.64252761912E+02  0.64351063100E+01  0.67633901716E+02  0.41800000000E+01 0.  1.
        -11    1    4    4    0    0 -0.22101331099E+02 -0.29158027802E+02  0.64433125230E+00  0.36593368038E+02  0.00000000000E+00 0.  1.
         11    1    4    4    0    0 -0.50191846878E+02  0.75086167283E+02 -0.16485422779E+02  0.91809167159E+02  0.00000000000E+00 0. -1.
</event>
<event>
 8    1  0.3719512E-009  0.1067857E+03  0.7561462E-02  0.1266641E+00
          1   -1    0    0  501    0  0.00000000000E+00  0.00000000000E+00  0.61740127084E+03  0.61740127084E+03  0.00000000000E+00 0. -1.
         -1   -1    0    0    0  501 -0.00000000000E+00 -0.00000000000E+00 -0.23143156690E+02  0.23143156690E+02  0.00000000000E+00 0.  1.
         25    2    1    2    0    0 -0.43640698347E+02 -0.16775626112E+02  0.31057286142E+03  0.33806703951E+03  0.12509152156E+03 0.  0.
         23    2    1    2    0    0  0.43640698347E+02  0.16775626112E+02  0.28368525273E+03  0.30247738802E+03  0.93964437235E+02 0.  0.
          5    1    3    3  502    0  0.36409543471E+02  0.15458683170E+02  0.52172063214E+02  0.65605047986E+02  0.41800000000E+01 0.  1.
         -5    1    3    3    0  502 -0.80050241819E+02 -0.32234309282E+02  0.25840079821E+03  0.27246199152E+03  0.41800000000E+01 0.  1.
        -11    1    4    4    0    0  0.58490614810E+02  0.31544277201E+02  0.26851669096E+03  0.27661779908E+03  0.00000000000E+00 0. -1.
         11    1    4    4    0    0 -0.14849916463E+02 -0.14768651089E+02  0.15168561767E+02  0.25859588938E+02  0.00000000000E+00 0.  1.
</event>
<event>
 8    1  0.3719512E-009  0.1689967E+03  0.7561462E-02  0.1178898E+00
          3   -1    0    0  501    0  0.00000000000E+00  0.00000000000E+00  0.21770304158E+03  0.21770304158E+03  0.00000000000E+00 0. -1.
         -3   -1    0    0    0  501 -0.00000000000E+00 -0.00000000000E+00 -0.17423358557E+03  0.17423358557E+03  0.00000000000E+00 0.  1.
         25    2    1    2    0    0 -0.14233251403E+03  0.11553818016E+01  0.99348696610E+02  0.21395761850E+03  0.12509124485E+03 0.  0.
         23    2    1    2    0    0  0.14233251403E+03 -0.11553818016E+01 -0.55879240593E+02  0.17797900865E+03  0.91072270939E+02 0.  0.
          5    1    3    3  502    0 -0.73483911778E+01  0.40302136187E+02 -0.10365200681E+01  0.41192327052E+02  0.41800000000E+01 0. -1.
         -5    1    3    3    0  502 -0.13498412285E+03 -0.39146754386E+02  0.10038521668E+03  0.17276529145E+03  0.41800000000E+01 0. -1.
        -11    1    4    4    0    0  0.10491111643E+03  0.28210659385E+02 -0.68920700907E+02  0.12865553492E+03  0.00000000000E+00 0.  1.
         11    1    4    4    0    0  0.37421397603E+02 -0.29366041186E+02  0.13041460314E+02  0.49323473728E+02  0.00000000000E+00 0. -1.
</event>
<event>
 8    1  0.3719512E-009  0.3165241E+03  0.7561462E-02  0.1077260E+00
          2   -1    0    0  501    0  0.00000000000E+00  0.00000000000E+00  0.13991833628E+04  0.13991833628E+04  0.00000000000E+00 0.  1.
         -2   -1    0    0    0  501 -0.00000000000E+00 -0.00000000000E+00 -0.77606680897E+02  0.77606680897E+02  0.00000000000E+00 0. -1.
         25    2    1    2    0    0  0.30153045864E+03 -0.48983798257E+02  0.79981025568E+03  0.86525403621E+03  0.12509225437E+03 0.  0.
         23    2    1    2    0    0 -0.30153045864E+03  0.48983798257E+02  0.52176642618E+03  0.61153600744E+03  0.91739058925E+02 0.  0.
          5    1    3    3  502    0  0.10663565423E+03  0.32479604709E+02  0.36786641813E+03  0.38440767612E+03  0.41800000000E+01 0. -1.
         -5    1    3    3    0  502  0.19489480441E+03 -0.81463402966E+02  0.43194383755E+03  0.48084636009E+03  0.41800000000E+01 0. -1.
        -11    1    4    4    0    0 -0.17748706317E+03  0.55626508183E+02  0.37977025981E+03  0.42287281331E+03  0.00000000000E+00 0.  1.
         11    1    4    4    0    0 -0.12404339547E+03 -0.66427099262E+01  0.14199616637E+03  0.18866319413E+03  0.00000000000E+00 0. -1.
</event>
<event>
 8    1  0.3719512E-009  0.1365075E+03  0.7561462E-02  0.1218107E+00
          3   -1    0    0  501    0  0.00000000000E+00  0.00000000000E+00  0.22790648887E+03  0.22790648887E+03  0.00000000000E+00 0. -1.
         -3   -1    0    0    0  501 -0.00000000000E+00 -0.00000000000E+00 -0.93900192902E+02  0.93900192902E+02  0.00000000000E+00 0.  1.
         25    2    1    2    0    0  0.95853709332E+02 -0.12579206594E+01  0.98687619049E+02  0.18594516644E+03  0.12508734074E+03 0.  0.
         23    2    1    2    0    0 -0.95853709332E+02  0.12579206594E+01  0.35318676919E+02  0.13586151533E+03  0.89562416508E+02 0.  0.
          5    1    3    3  502    0  0.34992366313E+02  0.56829927707E+02  0.17886440530E+02  0.69220687212E+02  0.41800000000E+01 0. -1.
         -5    1    3    3    0  502  0.60861343019E+02 -0.58087848366E+02  0.80801178519E+02  0.11672447923E+03  0.41800000000E+01 0. -1.
        -11    1    4    4    0    0 -0.62853046524E+02  0.37262547083E+02  0.45355279598E+02  0.86000606160E+02  0.00000000000E+00 0.  1.
         11    1    4    4    0    0 -0.33000662807E+02 -0.36004626423E+02 -0.10036602680E+02  0.49860909167E+02  0.00000000000E+00 0. -1.
</event>
<event>
 8    1  0.3719512E-009  0.3122376E+03  0.7561462E-02  0.1079278E+00
         -1   -1    0    0    0  501 -0.00000000000E+00  0.00000000000E+00  0.83266949985E+02  0.83266949985E+02  0.00000000000E+00 0.  1.
          1   -1    0    0  501    0  0.00000000000E+00 -0.00000000000E+00 -0.13346353807E+04  0.13346353807E+04  0.00000000000E+00 0. -1.
         25    2    1    2    0    0 -0.53722635339E+02  0.30280157466E+03 -0.77928541053E+03  0.84705842701E+03  0.12508921834E+03 0.  0.
         23    2    1    2    0    0  0.53722635339E+02 -0.30280157466E+03 -0.47208302015E+03  0.57084390364E+03  0.91790354810E+02 0.  0.
          5    1    3    3  502    0  0.93456957639E+01  0.36798465926E+01 -0.11822929381E+03  0.11872877332E+03  0.41800000000E+01 0. -1.
         -5    1    3    3    0  502 -0.63068331103E+02  0.29912172807E+03 -0.66105611672E+03  0.72832965369E+03  0.41800000000E+01 0. -1.
        -11    1    4    4    0    0  0.37912749757E+02 -0.24616469787E+03 -0.30535759943E+03  0.39405291346E+03  0.00000000000E+00 0.  1.
         11    1    4    4    0    0  0.15809885582E+02 -0.56636876794E+02 -0.16672542072E+03  0.17679099018E+03  0.00000000000E+00 0. -1.
</event>
<event>
 8    1  0.3719512E-009  0.8826874E+02  0.7561462E-02  0.1307099E+00
          3   -1    0    0  501    0  0.00000000000E+00  0.00000000000E+00  0.39870094638E+02  0.39870094638E+02  0.00000000000E+00 0. -1.
         -3   -1    0    0    0  501 -0.00000000000E+00 -0.00000000000E+00 -0.33831216232E+03  0.33831216232E+03  0.00000000000E+00 0.  1.
         25    2    1    2    0    0  0.25235309917E+01 -0.71011747870E+01 -0.23739332514E+03  0.26844327710E+03  0.12509759113E+03 0.  0.
         23    2    1    2    0    0 -0.25235309917E+01  0.71011747870E+01 -0.61048742549E+02  0.10973897987E+03  0.90878489442E+02 0.  0.
          5    1    3    3  502    0  0.56627714814E+02 -0.30881984062E+02 -0.14401518624E+03  0.15785512754E+03  0.41800000000E+01 0. -1.
         -5    1    3    3    0  502 -0.54104183823E+02  0.23780809275E+02 -0.93378138901E+02  0.11058814955E+03  0.41800000000E+01 0. -1.
        -11    1    4    4    0    0 -0.27098904595E+02  0.95109579842E-01  0.13969397371E+02  0.30487763759E+02  0.00000000000E+00 0. -1.
         11    1    4    4    0    0  0.24575373604E+02  0.70060652072E+01 -0.75018139921E+02  0.79251216108E+02  0.00000000000E+00 0.  1.
</event>
<event>
 8    1  0.3719512E-009  0.1421573E+03  0.7561462E-02  0.1210455E+00
          1   -1    0    0  501    0  0.00000000000E+00  0.00000000000E+00  0.92862506049E+02  0.92862506049E+02  0.00000000000E+00 0. -1.
         -1   -1    0    0    0  501 -0.00000000000E+00 -0.00000000000E+00 -0.29483876259E+03  0.29483876259E+03  0.00000000000E+00 0.  1.
         25    2    1    2    0    0 -0.10520608163E+03  0.58009265152E+02 -0.13930781721E+03  0.22245731573E+03  0.12508874822E+03 0.  0.
         23    2    1    2    0    0  0.10520608163E+03 -0.58009265152E+02 -0.62668439326E+02  0.16524395291E+03  0.94577144330E+02 0.  0.
          5    1    3    3  502    0 -0.11920825094E+03  0.25455754892E+02 -0.60931493112E+02  0.13634046282E+03  0.41800000000E+01 0. -1.
         -5    1    3    3    0  502  0.14002169314E+02  0.32553510260E+02 -0.78376324099E+02  0.86116852909E+02  0.41800000000E+01 0. -1.
        -11    1    4    4    0    0  0.62794884498E+02 -0.56108920642E+02 -0.82941782706E+02  0.11819791797E+03  0.00000000000E+00 0.  1.
         11    1    4    4    0    0  0.42411197128E+02 -0.19003445096E+01  0.20273343379E+02  0.47046034932E+02  0.00000000000E+00 0. -1.
</event>
<event>
 8    1  0.3719512E-009  0.1533270E+03  0.7561462E-02  0.1196443E+00
         -1   -1    0    0    0  501 -0.00000000000E+00  0.00000000000E+00  0.53952748344E+02  0.53952748344E+02  0.00000000000E+00 0.  1.
          1   -1    0    0  501    0  0.00000000000E+00 -0.00000000000E+00 -0.63107396485E+03  0.63107396485E+03  0.00000000000E+00 0. -1.
         25    2    1    2    0    0 -0.14178938181E+03  0.34627180886E+02 -0.36440596135E+03  0.41199800766E+03  0.12508950076E+03 0.  0.
         23    2    1    2    0    0  0.14178938181E+03 -0.34627180886E+02 -0.21271525515E+03  0.27302870553E+03  0.89407068064E+02 0.  0.
          5    1    3    3  502    0 -0.95022046639E+02  0.76789012063E+01 -0.86261359289E+02  0.12863378008E+03  0.41800000000E+01 0.  1.
         -5    1    3    3    0  502 -0.46767335167E+02  0.26948279680E+02 -0.27814460206E+03  0.28336422758E+03  0.41800000000E+01 0.  1.
        -11    1    4    4    0    0  0.43219000500E+02  0.16242655127E+02 -0.11960399942E+03  0.12820617196E+03  0.00000000000E+00 0.  1.
         11    1    4    4    0    0  0.98570381307E+02 -0.50869836013E+02 -0.93111255725E+02  0.14482253357E+03  0.00000000000E+00 0. -1.
</event>
<event>
 8    1  0.3719512E-009  0.1007870E+03  0.7561462E-02  0.1278650E+00
         -2   -1    0    0    0  501 -0.00000000000E+00  0.00000000000E+00  0.13638550477E+03  0.13638550477E+03  0.00000000000E+00 0.  1.
          2   -1    0    0  501    0  0.00000000000E+00 -0.00000000000E+00 -0.13223691990E+03  0.13223691990E+03  0.00000000000E+00 0. -1.
         25    2    1    2    0    0  0.59043907299E+02 -0.34939645498E+02 -0.42521623211E+02  0.14887025648E+03  0.12508918021E+03 0.  0.
         23    2    1    2    0    0 -0.59043907299E+02  0.34939645498E+02  0.46670208086E+02  0.11975216819E+03  0.86345304717E+02 0.  0.
          5    1    3    3  502    0  0.44419210747E+02  0.27078027232E+02 -0.63001835875E+02  0.81810693469E+02  0.41800000000E+01 0. -1.
         -5    1    3    3    0  502  0.14624696551E+02 -0.62017672730E+02  0.20480212665E+02  0.67059563008E+02  0.41800000000E+01 0. -1.
        -11    1    4    4    0    0 -0.67533190588E+02  0.23976841280E+02  0.65012632108E+02  0.96758788140E+02  0.00000000000E+00 0.  1.
         11    1    4    4    0    0  0.84892832892E+01  0.10962804217E+02 -0.18342424022E+02  0.22993380049E+02  0.00000000000E+00 0. -1.
</event>
<event>
 8    1  0.3719512E-009  0.9083018E+02  0.7561462E-02  0.1300854E+00
         -1   -1    0    0    0  501 -0.00000000000E+00  0.00000000000E+00  0.30126068198E+03  0.30126068198E+03  0.00000000000E+00 0.  1.
          1   -1    0    0  501    0  0.00000000000E+00 -0.00000000000E+00 -0.56376603889E+02  0.56376603889E+02  0.00000000000E+00 0. -1.
         25    2    1    2    0    0 -0.24502701243E+02 -0.70927831940E+01  0.42596455511E+02  0.13457349981E+03  0.12507949027E+03 0.  0.
         23    2    1    2    0    0  0.24502701243E+02  0.70927831940E+01  0.20228762258E+03  0.22306378607E+03  0.90479171427E+02 0.  0.
          5    1    3    3  502    0 -0.18368443349E+02 -0.56084204513E+02 -0.12503712717E+02  0.60470264913E+02  0.41800000000E+01 0. -1.
         -5    1    3    3    0  502 -0.61342578941E+01  0.48991421319E+02  0.55100168228E+02  0.74103234893E+02  0.41800000000E+01 0. -1.
        -11    1    4    4    0    0  0.39977990494E+02  0.26620555177E+02  0.18863216510E+03  0.19465093730E+03  0.00000000000E+00 0.  1.
         11    1    4    4    0    0 -0.15475289251E+02 -0.19527771983E+02  0.13655457488E+02  0.28412848770E+02  0.00000000000E+00 0. -1.
</event>
<event>
 8    1  0.3719512E-009  0.1106917E+03  0.7561462E-02  0.1259294E+00
         -1   -1    0    0    0  501 -0.00000000000E+00  0.00000000000E+00  0.81892605168E+02  0.81892605168E+02  0.00000000000E+00 0.  1.
          1   -1    0    0  501    0  0.00000000000E+00 -0.00000000000E+00 -0.20084715248E+03  0.20084715248E+03  0.00000000000E+00 0. -1.
         25    2    1    2    0    0  0.30356868707E+02 -0.29968937458E+02 -0.72598810472E+01  0.13236880615E+03  0.12509643591E+03 0.  0.
         23    2    1    2    0    0 -0.30356868707E+02  0.29968937458E+02 -0.11169466626E+03  0.15037095150E+03  0.91192367514E+02 0.  0.
          5    1    3    3  502    0 -0.14765085801E+02 -0.69929492438E+02 -0.70892948145E+00  0.71596903930E+02  0.41800000000E+01 0.  1.
         -5    1    3    3    0  502  0.45121954507E+02  0.39960554980E+02 -0.65509515658E+01  0.60771902219E+02  0.41800000000E+01 0.  1.
        -11    1    4    4    0    0 -0.35449101091E+00 -0.25929046390E+02 -0.69498710912E+02  0.74178918360E+02  0.00000000000E+00 0. -1.
         11    1    4    4    0    0 -0.30002377696E+02  0.55897983849E+02 -0.42195955352E+02  0.76192033138E+02  0.00000000000E+00 0.  1.
</event>
<event>
 8    1  0.3719512E-009  0.1528084E+03  0.7561462E-02  0.1197064E+00
         -2   -1    0    0    0  501 -0.00000000000E+00  0.00000000000E+00  0.73402532119E+02  0.73402532119E+02  0.00000000000E+00 0.  1.
          2   -1    0    0  501    0  0.00000000000E+00 -0.00000000000E+00 -0.51180503797E+03  0.51180503797E+03  0.00000000000E+00 0. -1.
         25    2    1    2    0    0  0.30537029498E+01  0.13009063484E+03 -0.36360572780E+03  0.40594189937E+03  0.12508717760E+03 0.  0.
         23    2    1    2    0    0 -0.30537029498E+01 -0.13009063484E+03 -0.74796778054E+02  0.17926567072E+03  0.98024100703E+02 0.  0.
          5    1    3    3  502    0  0.46957658518E+02  0.10165958288E+03 -0.15772474402E+03  0.19347935228E+03  0.41800000000E+01 0. -1.
         -5    1    3    3    0  502 -0.43903955568E+02  0.28431051957E+02 -0.20588098378E+03  0.21246254708E+03  0.41800000000E+01 0. -1.
        -11    1    4    4    0    0 -0.24974803585E+02 -0.10424799392E+03 -0.91998034339E+02  0.14126225035E+03  0.00000000000E+00 0.  1.
         11    1    4    4    0    0  0.21921100635E+02 -0.25842640917E+02  0.17201256285E+02  0.38003420378E+02  0.00000000000E+00 0. -1.
</event>
<event>
 8    1  0.3719512E-009  0.1116167E+03  0.7561462E-02  0.1257605E+00
          1   -1    0    0  501    0  0.00000000000E+00  0.00000000000E+00  0.14075685407E+03  0.14075685407E+03  0.00000000000E+00 0. -1.
         -1   -1    0    0    0  501 -0.00000000000E+00 -0.00000000000E+00 -0.14572642369E+03  0.14572642369E+03  0.00000000000E+00 0.  1.
         25    2    1    2    0    0  0.53958506786E+02 -0.13771803600E+02  0.72038987988E+02  0.15472218872E+03  0.12509259316E+03 0.  0.
         23    2    1    2    0    0 -0.53958506786E+02  0.13771803600E+02 -0.77008557607E+02  0.13176108903E+03  0.91266004669E+02 0.  0.
          5    1    3    3  502    0  0.51335053596E+01 -0.65354726931E+02  0.31777822102E+02  0.72971882167E+02  0.41800000000E+01 0.  1.
         -5    1    3    3    0  502  0.48825001426E+02  0.51582923331E+02  0.40261165886E+02  0.81750306556E+02  0.41800000000E+01 0.  1.
        -11    1    4    4    0    0  0.34053645877E+01 -0.19692035038E+02 -0.59951297192E+02  0.63194388887E+02  0.00000000000E+00 0.  1.
         11    1    4    4    0    0 -0.57363871374E+02  0.33463838638E+02 -0.17057260416E+02  0.68566700141E+02  0.00000000000E+00 0. -1.
</event>
<event>
 8    1  0.3719512E-009  0.1205493E+03  0.7561462E-02  0.1242194E+00
          1   -1    0    0  501    0  0.00000000000E+00  0.00000000000E+00  0.58058922068E+03  0.58058922068E+03  0.00000000000E+00 0. -1.
         -1   -1    0    0    0  501 -0.00000000000E+00 -0.00000000000E+00 -0.27752465694E+02  0.27752465694E+02  0.00000000000E+00 0.  1.
         25    2    1    2    0    0 -0.62188598695E+02 -0.21742999289E+02  0.30848985346E+03  0.33934839265E+03  0.12510460457E+03 0.  0.
         23    2    1    2    0    0  0.62188598695E+02  0.21742999289E+02  0.24434690153E+03  0.26899329372E+03  0.91169095391E+02 0.  0.
          5    1    3    3  502    0 -0.88366802759E+02  0.10605686322E+02  0.14161632660E+03  0.16731356422E+03  0.41800000000E+01 0.  1.
         -5    1    3    3    0  502  0.26178204064E+02 -0.32348685610E+02  0.16687352686E+03  0.17203482843E+03  0.41800000000E+01 0.  1.
        -11    1    4    4    0    0  0.85498267863E+01  0.49186654180E+02  0.13816054559E+03  0.14690392386E+03  0.00000000000E+00 0.  1.
         11    1    4    4    0    0  0.53638771909E+02 -0.27443654892E+02  0.10618635594E+03  0.12208936986E+03  0.00000000000E+00 0. -1.
</event>
<event>
 8    1  0.3719512E-009  0.1338366E+03  0.7561462E-02  0.1221871E+00
         -1   -1    0    0    0  501 -0.00000000000E+00  0.00000000000E+00  0.18318342100E+03  0.18318342100E+03  0.00000000000E+00 0.  1.
          1   -1    0    0  501    0  0.00000000000E+00 -0.00000000000E+00 -0.13377440151E+03  0.13377440151E+03  0.00000000000E+00 0. -1.
         25    2    1    2    0    0  0.41875114949E+02 -0.67131795962E+02  0.10772352752E+03  0.18306417498E+03  0.12509168837E+03 0.  0.
         23    2    1    2    0    0 -0.41875114949E+02  0.67131795962E+02 -0.58314508038E+02  0.13389364753E+03  0.90921525068E+02 0.  0.
          5    1    3    3  502    0  0.28559583360E+02 -0.10396278465E+03  0.86729062736E+02  0.13843161892E+03  0.41800000000E+01 0.  1.
         -5    1    3    3    0  502  0.13315531590E+02  0.36830988685E+02  0.20994464785E+02  0.44632556062E+02  0.41800000000E+01 0.  1.
        -11    1    4    4    0    0  0.23480529169E+02 -0.39723525025E+01 -0.90373033125E+01  0.25471311030E+02  0.00000000000E+00 0. -1.
         11    1    4    4    0    0 -0.65355644118E+02  0.71104148465E+02 -0.49277204726E+02  0.10842233650E+03  0.00000000000E+00 0.  1.
</event>
<event>
 8    1  0.3719512E-009  0.2070293E+03  0.7561462E-02  0.1143940E+00
          2   -1    0    0  501    0  0.00000000000E+00  0.00000000000E+00  0.86693643166E+03  0.86693643166E+03  0.00000000000E+00 0.  1.
         -2   -1    0    0    0  501 -0.00000000000E+00 -0.00000000000E+00 -0.69554725952E+02  0.69554725952E+02  0.00000000000E+00 0. -1.
         25    2    1    2    0    0  0.15040749624E+03  0.10902359527E+03  0.18585889253E+03  0.29103058612E+03  0.12508682933E+03 0.  0.
         23    2    1    2    0    0 -0.15040749624E+03 -0.10902359527E+03  0.61152281318E+03  0.64546057149E+03  0.90280889797E+02 0.  0.
          5    1    3    3  502    0 -0.19803575044E+02  0.10440445533E+01  0.29960439994E+02  0.36171424884E+02  0.41800000000E+01 0.  1.
         -5    1    3    3    0  502  0.17021107129E+03  0.10797955072E+03  0.15589845254E+03  0.25485916123E+03  0.41800000000E+01 0.  1.
        -11    1    4    4    0    0 -0.10727159417E+03 -0.48184090113E+02  0.24935266525E+03  0.27569122786E+03  0.00000000000E+00 0. -1.
         11    1    4    4    0    0 -0.43135902077E+02 -0.60839505160E+02  0.36217014793E+03  0.36976934363E+03  0.00000000000E+00 0.  1.
</event>
<event>
 8    1  0.3719512E-009  0.1156417E+03  0.7561462E-02  0.1250465E+00
         -2   -1    0    0    0  501 -0.00000000000E+00  0.00000000000E+00  0.66503991672E+03  0.66503991672E+03  0.00000000000E+00 0.  1.
          2   -1    0    0  501    0  0.00000000000E+00 -0.00000000000E+00 -0.26264604128E+02  0.26264604128E+02  0.00000000000E+00 0. -1.
         25    2    1    2    0    0 -0.65288093374E+02  0.24109614817E+02  0.44454822859E+03  0.46702668182E+03  0.12508791038E+03 0.  0.
         23    2    1    2    0    0  0.65288093374E+02 -0.24109614817E+02  0.19422708401E+03  0.22427783904E+03  0.87935091163E+02 0.  0.
          5    1    3    3  502    0 -0.60117754949E+02 -0.29933229352E+02  0.36157440081E+03  0.36778208548E+03  0.41800000000E+01 0. -1.
         -5    1    3    3    0  502 -0.51703384246E+01  0.54042844169E+02  0.82973827776E+02  0.99244596332E+02  0.41800000000E+01 0. -1.
        -11    1    4    4    0    0  0.18742145453E+02  0.31729075401E+02  0.44050457972E+02  0.57432091112E+02  0.00000000000E+00 0. -1.
         11    1    4    4    0    0  0.46545947920E+02 -0.55838690217E+02  0.15017662603E+03  0.16684574792E+03  0.00000000000E+00 0.  1.
</event>
<event>
 8    1  0.3719512E-009  0.8642742E+02  0.7561462E-02  0.1311741E+00
          3   -1    0    0  501    0  0.00000000000E+00  0.00000000000E+00  0.75991083307E+03  0.75991083307E+03  0.00000000000E+00 0. -1.
         -3   -1    0    0    0  501 -0.00000000000E+00 -0.00000000000E+00 -0.18537742163E+02  0.18537742163E+02  0.00000000000E+00 0.  1.
         25    2    1    2    0    0 -0.46024805301E+02  0.16605846405E+02  0.43730343114E+03  0.45746585430E+03  0.12508669045E+03 0.  0.
         23    2    1    2    0    0  0.46024805301E+02 -0.16605846405E+02  0.30406965977E+03  0.32098272093E+03  0.90429598625E+02 0.  0.
          5    1    3    3  502    0 -0.64707105080E+02  0.70164152385E+01  0.42988675548E+03  0.43480608835E+03  0.41800000000E+01 0. -1.
         -5    1    3    3    0  502  0.18682299779E+02  0.95894311663E+01  0.74166756596E+01  0.22659765951E+02  0.41800000000E+01 0. -1.
        -11    1    4    4    0    0  0.61876500623E+02 -0.26741328348E+02  0.28933871450E+03  0.29708701029E+03  0.00000000000E+00 0. -1.
         11    1    4    4    0    0 -0.15851695322E+02  0.10135481944E+02  0.14730945266E+02  0.23895710646E+02  0.00000000000E+00 0.  1.
</event>
<event>
 8    1  0.3719512E-009  0.1028587E+03  0.7561462E-02  0.1274397E+00
          3   -1    0    0  501    0  0.00000000000E+00  0.00000000000E+00  0.72750158115E+02  0.72750158115E+02  0.00000000000E+00 0. -1.
         -3   -1    0    0    0  501 -0.00000000000E+00 -0.00000000000E+00 -0.19276383527E+03  0.19276383527E+03  0.00000000000E+00 0.  1.
         25    2    1    2    0    0  0.52231073324E+02 -0.94326058090E+00 -0.59291295730E+02  0.14794379678E+03  0.12507171740E+03 0.  0.
         23    2    1    2    0    0 -0.52231073324E+02  0.94326058090E+00 -0.60722381421E+02  0.11757019660E+03  0.86061424362E+02 0.  0.
          5    1    3    3  502    0 -0.22135948143E+02 -0.25319131432E+02 -0.60744414801E+02  0.69558715818E+02  0.41800000000E+01 0. -1.
         -5    1    3    3    0  502  0.74367021467E+02  0.24375870851E+02  0.14531190714E+01  0.78385080957E+02  0.41800000000E+01 0. -1.
        -11    1    4    4    0    0 -0.20690867838E+02  0.38927022362E+02 -0.50710731842E+02  0.67193775052E+02  0.00000000000E+00 0. -1.
         11    1    4    4    0    0 -0.31540205486E+02 -0.37983761781E+02 -0.10011649579E+02  0.50376421552E+02  0.00000000000E+00 0.  1.
</event>
<event>
 8    1  0.3719512E-009  0.1016636E+03  0.7561462E-02  0.1276836E+00
         -1   -1    0    0    0  501 -0.00000000000E+00  0.00000000000E+00  0.26445568385E+02  0.26445568385E+02  0.00000000000E+00 0.  1.
          1   -1    0    0  501    0  0.00000000000E+00 -0.00000000000E+00 -0.65689495532E+03  0.65689495532E+03  0.00000000000E+00 0. -1.
         25    2    1    2    0    0  0.62052178193E+02  0.18285122063E+02 -0.47857143541E+03  0.49886057329E+03  0.12508570777E+03 0.  0.
         23    2    1    2    0    0 -0.62052178193E+02 -0.18285122063E+02 -0.15187795153E+03  0.18447995042E+03  0.82347564855E+02 0.  0.
          5    1    3    3  502    0 -0.92946835459E+01  0.56476441152E+02 -0.24500951037E+03  0.25164083953E+03  0.41800000000E+01 0.  1.
         -5    1    3    3    0  502  0.71346861739E+02 -0.38191319090E+02 -0.23356192504E+03  0.24721973377E+03  0.41800000000E+01 0.  1.
        -11    1    4    4    0    0 -0.20276716542E+02 -0.85792570551E+01  0.43753793203E+01  0.22447557318E+02  0.00000000000E+00 0.  1.
         11    1    4    4    0    0 -0.41775461651E+02 -0.97058650074E+01 -0.15625333085E+03  0.16203239310E+03  0.00000000000E+00 0. -1.
</event>
<event>
 8    1  0.3719512E-009  0.1708799E+03  0.7561462E-02  0.1176933E+00
          1   -1    0    0  501    0  0.00000000000E+00  0.00000000000E+00  0.23132674290E+03  0.23132674290E+03  0.00000000000E+00 0. -1.
         -1   -1    0    0    0  501 -0.00000000000E+00 -0.00000000000E+00 -0.21706172748E+03  0.21706172748E+03  0.00000000000E+00 0.  1.
         25    2    1    2    0    0 -0.11698374773E+03 -0.10695190716E+03  0.12239880381E+03  0.23612038431E+03  0.12508981187E+03 0.  0.
         23    2    1    2    0    0  0.11698374773E+03  0.10695190716E+03 -0.10813378839E+03  0.21226808607E+03  0.90779493806E+02 0.  0.
          5    1    3    3  502    0 -0.85841404898E+02 -0.47605392504E+02  0.13583146606E+03  0.16763853902E+03  0.41800000000E+01 0.  1.
         -5    1    3    3    0  502 -0.31142342831E+02 -0.59346514657E+02 -0.13432662257E+02  0.68481845289E+02  0.41800000000E+01 0.  1.
        -11    1    4    4    0    0  0.80403725191E+02  0.11360681167E+03 -0.10614005627E+03  0.17503422016E+03  0.00000000000E+00 0.  1.
         11    1    4    4    0    0  0.36580022538E+02 -0.66549045100E+01 -0.19937321188E+01  0.37233865911E+02  0.00000000000E+00 0. -1.
</event>
<event>
 8    1  0.3719512E-009  0.8743797E+02  0.7561462E-02  0.1309177E+00
         -1   -1    0    0    0  501 -0.00000000000E+00  0.00000000000E+00  0.57062400235E+02  0.57062400235E+02  0.00000000000E+00 0.  1.
          1   -1    0    0  501    0  0.00000000000E+00 -0.00000000000E+00 -0.33723865337E+03  0.33723865337E+03  0.00000000000E+00 0. -1.
         25    2    1    2    0    0  0.56737646952E+02  0.24011337932E+01 -0.61615503133E+02  0.15056275853E+03  0.12509095893E+03 0.  0.
         23    2    1    2    0    0 -0.56737646952E+02 -0.24011337932E+01 -0.21856075001E+03  0.24373829507E+03  0.91731287013E+02 0.  0.
          5    1    3    3  502    0  0.15219905048E+02 -0.15665070179E+02 -0.92799250560E+02  0.95426480800E+02  0.41800000000E+01 0. -1.
         -5    1    3    3    0  502  0.41517741904E+02  0.18066203973E+02  0.31183747427E+02  0.55136277734E+02  0.41800000000E+01 0. -1.
        -11    1    4    4    0    0 -0.30535886953E+02  0.44190114694E+02 -0.12359039884E+03  0.13475827735E+03  0.00000000000E+00 0.  1.
         11    1    4    4    0    0 -0.26201759999E+02 -0.46591248487E+02 -0.94970351167E+02  0.10898001773E+03  0.00000000000E+00 0. -1.
</event>
<event>
 8    1  0.3719512E-009  0.1551538E+03  0.7561462E-02  0.1194279E+00
         -2   -1    0    0    0  501 -0.00000000000E+00  0.00000000000E+00  0.53981386574E+02  0.53981386574E+02  0.00000000000E+00 0.  1.
          2   -1    0    0  501    0  0.00000000000E+00 -0.00000000000E+00 -0.61431286769E+03  0.61431286769E+03  0.00000000000E+00 0. -1.
         25    2    1    2    0    0 -0.13426888854E+03 -0.26698057472E+02 -0.38474305223E+03  0.42709698191E+03  0.12507475768E+03 0.  0.
         23    2    1    2    0    0  0.13426888854E+03  0.26698057472E+02 -0.17558842888E+03  0.24119727235E+03  0.92757248395E+02 0.  0.
          5    1    3    3  502    0 -0.82007461933E+02  0.86604391766E+01 -0.76924095527E+02  0.11284952766E+03  0.41800000000E+01 0. -1.
         -5    1    3    3    0  502 -0.52261426612E+02 -0.35358496649E+02 -0.30781895671E+03  0.31424745425E+03  0.41800000000E+01 0. -1.
        -11    1    4    4    0    0  0.11678645040E+03 -0.16456104644E+02 -0.11440241096E+03  0.16431004233E+03  0.00000000000E+00 0. -1.
         11    1    4    4    0    0  0.17482438143E+02  0.43154162116E+02 -0.61186017919E+02  0.76887230020E+02  0.00000000000E+00 0.  1.
</event>
<event>
 8    1  0.3719512E-009  0.1176653E+03  0.7561462E-02  0.1246999E+00
         -1   -1    0    0    0  501 -0.00000000000E+00  0.00000000000E+00  0.10576763028E+03  0.10576763028E+03  0.00000000000E+00 0.  1.
          1   -1    0    0  501    0  0.00000000000E+00 -0.00000000000E+00 -0.15688329830E+03  0.15688329830E+03  0.00000000000E+00 0. -1.
         25    2    1    2    0    0  0.25782983370E+01  0.68668691052E+02 -0.10664485484E+02  0.14311811879E+03  0.12508808066E+03 0.  0.
         23    2    1    2    0    0 -0.25782983370E+01 -0.68668691052E+02 -0.40451182539E+02  0.11953280979E+03  0.89049186940E+02 0.  0.
          5    1    3    3  502    0 -0.20337162759E+02 -0.30392963351E+02 -0.18228140646E+02  0.41073956734E+02  0.41800000000E+01 0.  1.
         -5    1    3    3    0  502  0.22915461096E+02  0.99061654403E+02  0.75636551615E+01  0.10204416206E+03  0.41800000000E+01 0.  1.
        -11    1    4    4    0    0  0.31415811802E+02 -0.19473567762E+02  0.13146799583E+02  0.39230235939E+02  0.00000000000E+00 0.  1.
         11    1    4    4    0    0 -0.33994110139E+02 -0.49195123289E+02 -0.53597982122E+02  0.80302573851E+02  0.00000000000E+00 0. -1.
</event>
<event>
 8    1  0.3719512E-009  0.7121439E+02  0.7561462E-02  0.1356011E+00
         -1   -1    0    0    0  501 -0.00000000000E+00  0.00000000000E+00  0.50384377323E+03  0.50384377323E+03  0.00000000000E+00 0.  1.
          1   -1    0    0  501    0  0.00000000000E+00 -0.00000000000E+00 -0.26440150019E+02  0.26440150019E+02  0.00000000000E+00 0. -1.
         25    2    1    2    0    0 -0.28366934377E+02  0.10586324348E+01  0.20670931205E+03  0.24327425624E+03  0.12509124826E+03 0.  0.
         23    2    1    2    0    0  0.28366934377E+02 -0.10586324348E+01  0.27069431116E+03  0.28700966701E+03  0.91067750565E+02 0.  0.
          5    1    3    3  502    0  0.17723200196E+01 -0.12869327028E+02  0.20926813988E+03  0.20971263068E+03  0.41800000000E+01 0. -1.
         -5    1    3    3    0  502 -0.30139254397E+02  0.13927959463E+02 -0.25588278319E+01  0.33561625561E+02  0.41800000000E+01 0. -1.
        -11    1    4    4    0    0 -0.70339719300E+01 -0.41200260753E+02  0.11321736983E+03  0.12068600199E+03  0.00000000000E+00 0.  1.
         11    1    4    4    0    0  0.35400906307E+02  0.40141628318E+02  0.15747694133E+03  0.16632366501E+03  0.00000000000E+00 0. -1.
</event>
<event>
 8    1  0.3719512E-009  0.2204109E+03  0.7561462E-02  0.1133577E+00
          1   -1    0    0  501    0  0.00000000000E+00  0.00000000000E+00  0.26158311274E+04  0.26158311274E+04  0.00000000000E+00 0. -1.
         -1   -1    0    0    0  501 -0.00000000000E+00 -0.00000000000E+00 -0.39071095794E+02  0.39071095794E+02  0.00000000000E+00 0.  1.
         25    2    1    2    0    0 -0.21669740289E+03 -0.16194675754E+02  0.21710345202E+04  0.21854653976E+04  0.12509230368E+03 0.  0.
         23    2    1    2    0    0  0.21669740289E+03  0.16194675754E+02  0.40572551144E+03  0.46943682559E+03  0.92399732904E+02 0.  0.
          5    1    3    3  502    0 -0.17272439750E+03 -0.45109787967E+00  0.20186125893E+04  0.20259931340E+04  0.41800000000E+01 0. -1.
         -5    1    3    3    0  502 -0.43973005395E+02 -0.15743577875E+02  0.15242193090E+03  0.15947226363E+03  0.41800000000E+01 0. -1.
        -11    1    4    4    0    0  0.13730497984E+03 -0.96933620600E+01  0.16635295738E+03  0.21591647734E+03  0.00000000000E+00 0. -1.
         11    1    4    4    0    0  0.79392423058E+02  0.25888037814E+02  0.23937255406E+03  0.25352034825E+03  0.00000000000E+00 0.  1.
</event>
<event>
 8    1  0.3719512E-009  0.1484764E+03  0.7561462E-02  0.1202358E+00
          1   -1    0    0  501    0  0.00000000000E+00  0.00000000000E+00  0.99131093845E+02  0.99131093845E+02  0.00000000000E+00 0. -1.
         -1   -1    0    0    0  501 -0.00000000000E+00 -0.00000000000E+00 -0.34756379903E+03  0.34756379903E+03  0.00000000000E+00 0.  1.
         25    2    1    2    0    0  0.43718898674E+02  0.13598018068E+03 -0.74541498292E+02  0.20397440338E+03  0.12508865107E+03 0.  0.
         23    2    1    2    0    0 -0.43718898674E+02 -0.13598018068E+03 -0.17389120690E+03  0.24272048950E+03  0.90956761966E+02 0.  0.
          5    1    3    3  502    0  0.10438371057E+02  0.41922661678E+02 -0.92809833408E+02  0.10245782903E+03  0.41800000000E+01 0. -1.
         -5    1    3    3    0  502  0.33280527617E+02  0.94057519004E+02  0.18268335116E+02  0.10151657435E+03  0.41800000000E+01 0. -1.
        -11    1    4    4    0    0  0.13323413981E+02 -0.38566457544E+02 -0.72483259315E+01  0.41441805419E+02  0.00000000000E+00 0.  1.
         11    1    4    4    0    0 -0.57042312656E+02 -0.97413723137E+02 -0.16664288096E+03  0.20127868408E+03  0.00000000000E+00 0. -1.
</event>
<event>
 8    1  0.3719512E-009  0.1196974E+03  0.7561462E-02  0.1243597E+00
         -2   -1    0    0    0  501 -0.00000000000E+00  0.00000000000E+00  0.71212717227E+02  0.71212717227E+02  0.00000000000E+00 0.  1.
          2   -1    0    0  501    0  0.00000000000E+00 -0.00000000000E+00 -0.25065264145E+03  0.25065264145E+03  0.00000000000E+00 0. -1.
         25    2    1    2    0    0 -0.39233643823E+02  0.60213846941E+02 -0.13845639479E+03  0.19995708006E+03  0.12509066486E+03 0.  0.
         23    2    1    2    0    0  0.39233643823E+02 -0.60213846941E+02 -0.40983529433E+02  0.12190827862E+03  0.89537659898E+02 0.  0.
          5    1    3    3  502    0 -0.49226289561E+02  0.89842569943E+02 -0.68754509539E+02  0.12344865305E+03  0.41800000000E+01 0. -1.
         -5    1    3    3    0  502  0.99926457383E+01 -0.29628723002E+02 -0.69701885255E+02  0.76508427011E+02  0.41800000000E+01 0. -1.
        -11    1    4    4    0    0  0.98621990615E+01 -0.72726879289E+02 -0.46479221798E+01  0.73539548013E+02  0.00000000000E+00 0.  1.
         11    1    4    4    0    0  0.29371444762E+02  0.12513032348E+02 -0.36335607254E+02  0.48368730606E+02  0.00000000000E+00 0. -1.
</event>
<event>
 8    1  0.3719512E-009  0.1144034E+03  0.7561462E-02  0.1252626E+00
         -2   -1    0    0    0  501 -0.00000000000E+00  0.00000000000E+00  0.24435762691E+03  0.24435762691E+03  0.00000000000E+00 0. -1.
          2   -1    0    0  501    0  0.00000000000E+00 -0.00000000000E+00 -0.81028940415E+02  0.81028940415E+02  0.00000000000E+00 0.  1.
         25    2    1    2    0    0 -0.55073888202E+02  0.68957393066E+02  0.71518560332E+02  0.16896870890E+03  0.12508902788E+03 0.  0.
         23    2    1    2    0    0  0.55073888202E+02 -0.68957393066E+02  0.91810126164E+02  0.15641785842E+03  0.90825062328E+02 0.  0.
          5    1    3    3  502    0 -0.70072635323E+00 -0.73561550954E+01  0.74639619194E+02  0.75120897150E+02  0.41800000000E+01 0. -1.
         -5    1    3    3    0  502 -0.54373161849E+02  0.76313548161E+02 -0.31210588627E+01  0.93847811753E+02  0.41800000000E+01 0. -1.
        -11    1    4    4    0    0  0.11276833106E+02  0.22472105903E+02  0.20991988442E+02  0.32754023987E+02  0.00000000000E+00 0. -1.
         11    1    4    4    0    0  0.43797055096E+02 -0.91429498968E+02  0.70818137721E+02  0.12366383443E+03  0.00000000000E+00 0.  1.
</event>
<event>
 8    1  0.3719512E-009  0.9718191E+02  0.7561462E-02  0.1286336E+00
         -2   -1    0    0    0  501 -0.00000000000E+00  0.00000000000E+00  0.18826665187E+02  0.18826665187E+02  0.00000000000E+00 0.  1.
          2   -1    0    0  501    0  0.00000000000E+00 -0.00000000000E+00 -0.90805541759E+03  0.90805541759E+03  0.00000000000E+00 0. -1.
         25    2    1    2    0    0 -0.71014992277E+02  0.75217670974E+01 -0.43455036128E+03  0.45779657386E+03  0.12507589872E+03 0.  0.
         23    2    1    2    0    0  0.71014992277E+02 -0.75217670974E+01 -0.45467839112E+03  0.46908550891E+03  0.90603913894E+02 0.  0.
          5    1    3    3  502    0 -0.58799423198E+02 -0.11788628598E+02 -0.42993015838E+03  0.43411260915E+03  0.41800000000E+01 0.  1.
         -5    1    3    3    0  502 -0.12215569078E+02  0.19310395695E+02 -0.46202028994E+01  0.23683964716E+02  0.41800000000E+01 0.  1.
        -11    1    4    4    0    0  0.65024942749E+02  0.30999115640E+02 -0.35110222563E+03  0.35841590532E+03  0.00000000000E+00 0. -1.
         11    1    4    4    0    0  0.59900495277E+01 -0.38520882737E+02 -0.10357616549E+03  0.11066960359E+03  0.00000000000E+00 0.  1.
</event>
<event>
 8    1  0.3719512E-009  0.1033397E+03  0.7561462E-02  0.1273426E+00
         -2   -1    0    0    0  501 -0.00000000000E+00  0.00000000000E+00  0.29958254782E+03  0.29958254782E+03  0.00000000000E+00 0.  1.
          2   -1    0    0  501    0  0.00000000000E+00 -0.00000000000E+00 -0.48598869841E+02  0.48598869841E+02  0.00000000000E+00 0. -1.
         25    2    1    2    0    0 -0.40727267347E+01 -0.21129633219E+01  0.21548688501E+03  0.24920549305E+03  0.12509088072E+03 0.  0.
         23    2    1    2    0    0  0.40727267347E+01  0.21129633219E+01  0.35496792961E+02  0.98975924603E+02  0.92277622550E+02 0.  0.
          5    1    3    3  502    0  0.49276565861E+02 -0.26889855157E+02  0.15420680284E+03  0.16415984495E+03  0.41800000000E+01 0. -1.
         -5    1    3    3    0  502 -0.53349292596E+02  0.24776891835E+02  0.61280082176E+02  0.85045648101E+02  0.41800000000E+01 0. -1.
        -11    1    4    4    0    0 -0.41300781624E+02 -0.13471277472E+02  0.97281109143E+01  0.44518153841E+02  0.00000000000E+00 0. -1.
         11    1    4    4    0    0  0.45373508359E+02  0.15584240794E+02  0.25768682047E+02  0.54457770762E+02  0.00000000000E+00 0.  1.
</event>
<event>
 8    1  0.3719512E-009  0.1484577E+03  0.7561462E-02  0.1202381E+00
          2   -1    0    0  501    0  0.00000000000E+00  0.00000000000E+00  0.13047563741E+03  0.13047563741E+03  0.00000000000E+00 0. -1.
         -2   -1    0    0    0  501 -0.00000000000E+00 -0.00000000000E+00 -0.19942468188E+03  0.19942468188E+03  0.00000000000E+00 0.  1.
         25    2    1    2    0    0 -0.63224571590E+01 -0.11044141686E+03  0.10578960731E+02  0.16731968148E+03  0.12508669544E+03 0.  0.
         23    2    1    2    0    0  0.63224571590E+01  0.11044141686E+03 -0.79528005198E+02  0.16258063781E+03  0.88715726661E+02 0.  0.
          5    1    3    3  502    0 -0.29435161249E+02 -0.12842471496E+03  0.25379627036E+02  0.13424207238E+03  0.41800000000E+01 0. -1.
         -5    1    3    3    0  502  0.23112704090E+02  0.17983298091E+02 -0.14800666305E+02  0.33077609098E+02  0.41800000000E+01 0. -1.
        -11    1    4    4    0    0  0.19025898853E+02 -0.47605163146E+01 -0.31535808027E+02  0.37136969864E+02  0.00000000000E+00 0. -1.
         11    1    4    4    0    0 -0.12703441694E+02  0.11520193318E+03 -0.47992197171E+02  0.12544366795E+03  0.00000000000E+00 0.  1.
</event>
<event>
 8    1  0.3719512E-009  0.1102025E+03  0.7561462E-02  0.1260195E+00
          1   -1    0    0  501    0  0.00000000000E+00  0.00000000000E+00  0.10226352514E+04  0.10226352514E+04  0.00000000000E+00 0. -1.
         -1   -1    0    0    0  501 -0.00000000000E+00 -0.00000000000E+00 -0.20594662193E+02  0.20594662193E+02  0.00000000000E+00 0.  1.
         25    2    1    2    0    0 -0.19264035862E+02  0.92120043070E+02  0.61664702153E+03  0.63620743657E+03  0.12509655381E+03 0.  0.
         23    2    1    2    0    0  0.19264035862E+02 -0.92120043070E+02  0.38539356770E+03  0.40702247705E+03  0.91004886578E+02 0.  0.
          5    1    3    3  502    0 -0.23193662484E+02  0.33679065344E+01  0.15255703322E+02  0.28275389612E+02  0.41800000000E+01 0.  1.
         -5    1    3    3    0  502  0.39296266220E+01  0.88752136536E+02  0.60139131821E+03  0.60793204696E+03  0.41800000000E+01 0.  1.
        -11    1    4    4    0    0  0.59592076583E+01 -0.94030918077E+02  0.38159485680E+03  0.39305465326E+03  0.00000000000E+00 0. -1.
         11    1    4    4    0    0  0.13304828204E+02  0.19108750065E+01  0.37987108990E+01  0.13967823786E+02  0.00000000000E+00 0.  1.
</event>
<event>
 8    1  0.3719512E-009  0.1037982E+03  0.7561462E-02  0.1272506E+00
          1   -1    0    0  501    0  0.00000000000E+00  0.00000000000E+00  0.19715853271E+02  0.19715853271E+02  0.00000000000E+00 0. -1.
         -1   -1    0    0    0  501 -0.00000000000E+00 -0.00000000000E+00 -0.65187194759E+03  0.65187194759E+03  0.00000000000E+00 0.  1.
         25    2    1    2    0    0 -0.23652160354E+02  0.18514508207E+01 -0.29752000132E+03  0.32361786237E+03  0.12509003598E+03 0.  0.
         23    2    1    2    0    0  0.23652160354E+02 -0.18514508207E+01 -0.33463609300E+03  0.34796993849E+03  0.92406227044E+02 0.  0.
          5    1    3    3  502    0 -0.38355081695E+02  0.50794394967E+02 -0.93028710444E+02  0.11279625977E+03  0.41800000000E+01 0.  1.
         -5    1    3    3    0  502  0.14702921341E+02 -0.48942944146E+02 -0.20449129088E+03  0.21082160260E+03  0.41800000000E+01 0.  1.
        -11    1    4    4    0    0 -0.16763185501E+00  0.42336513094E+02 -0.19613266660E+03  0.20065002205E+03  0.00000000000E+00 0.  1.
         11    1    4    4    0    0  0.23819792209E+02 -0.44187963914E+02 -0.13850342640E+03  0.14731991644E+03  0.00000000000E+00 0. -1.
</event>
<event>
 8    1  0.3719512E-009  0.1450769E+03  0.7561462E-02  0.1206656E+00
          2   -1    0    0  501    0  0.00000000000E+00  0.00000000000E+00  0.12993734714E+03  0.12993734714E+03  0.00000000000E+00 0. -1.
         -2   -1    0    0    0  501 -0.00000000000E+00 -0.00000000000E+00 -0.20715300547E+03  0.20715300547E+03  0.00000000000E+00 0.  1.
         25    2    1    2    0    0  0.97101877937E+02  0.75116239467E+02 -0.46305215247E+02  0.18128102853E+03  0.12508962473E+03 0.  0.
         23    2    1    2    0    0 -0.97101877937E+02 -0.75116239467E+02 -0.30910443087E+02  0.15580932408E+03  0.90828772141E+02 0.  0.
          5    1    3    3  502    0 -0.26641767019E+01  0.63909764587E+02  0.11845475748E+02  0.65186989061E+02  0.41800000000E+01 0. -1.
         -5    1    3    3    0  502  0.99766054639E+02  0.11206474880E+02 -0.58150690995E+02  0.11609403947E+03  0.41800000000E+01 0. -1.
        -11    1    4    4    0    0 -0.29359535652E+02 -0.38961453913E+02 -0.56708044600E+02  0.74804943333E+02  0.00000000000E+00 0.  1.
         11    1    4    4    0    0 -0.67742342284E+02 -0.36154785554E+02  0.25797601514E+02  0.81004380749E+02  0.00000000000E+00 0. -1.
</event>
<event>
 8    1  0.3719512E-009  0.1412076E+03  0.7561462E-02  0.1211713E+00
         -2   -1    0    0    0  501 -0.00000000000E+00  0.00000000000E+00  0.63137598648E+02  0.63137598648E+02  0.00000000000E+00 0.  1.
          2   -1    0    0  501    0  0.00000000000E+00 -0.00000000000E+00 -0.50092315721E+03  0.50092315721E+03  0.00000000000E+00 0. -1.
         25    2    1    2    0    0  0.17587325679E+02 -0.13534682920E+03 -0.19055786494E+03  0.26568335495E+03  0.12508903631E+03 0.  0.
         23    2    1    2    0    0 -0.17587325679E+02  0.13534682920E+03 -0.24722769362E+03  0.29837740091E+03  0.96329967730E+02 0.  0.
          5    1    3    3  502    0  0.76760722442E+01 -0.48496899872E+02  0.68452638523E+01  0.49751396156E+02  0.41800000000E+01 0.  1.
         -5    1    3    3    0  502  0.99112534350E+01 -0.86849929328E+02 -0.19740312879E+03  0.21593195879E+03  0.41800000000E+01 0.  1.
        -11    1    4    4    0    0 -0.31881715196E+02  0.51521126301E+02 -0.18016368217E+03  0.19007846431E+03  0.00000000000E+00 0. -1.
         11    1    4    4    0    0  0.14294389517E+02  0.83825702899E+02 -0.67064011445E+02  0.10829893660E+03  0.00000000000E+00 0.  1.
</event>
<event>
 8    1  0.3719512E-009  0.1352159E+03  0.7561462E-02  0.1219915E+00
          3   -1    0    0  501    0  0.00000000000E+00  0.00000000000E+00  0.19114635337E+03  0.19114635337E+03  0.00000000000E+00 0. -1.
         -3   -1    0    0    0  501 -0.00000000000E+00 -0.00000000000E+00 -0.12861724668E+03  0.12861724668E+03  0.00000000000E+00 0.  1.
         25    2    1    2    0    0  0.19500495033E+01 -0.88574631656E+02  0.10508162194E+03  0.18584879957E+03  0.12509340896E+03 0.  0.
         23    2    1    2    0    0 -0.19500495033E+01  0.88574631656E+02 -0.42552515250E+02  0.13391480048E+03  0.90957073208E+02 0.  0.
          5    1    3    3  502    0  0.57998898179E+02 -0.71493930972E+02  0.47860253125E+02  0.10384281672E+03  0.41800000000E+01 0.  1.
         -5    1    3    3    0  502 -0.56048848676E+02 -0.17080700684E+02  0.57221368813E+02  0.82005982846E+02  0.41800000000E+01 0.  1.
        -11    1    4    4    0    0 -0.19805568280E+02  0.97555906260E+02 -0.51427931848E+02  0.11204573867E+03  0.00000000000E+00 0.  1.
         11    1    4    4    0    0  0.17855518777E+02 -0.89812746038E+01  0.88754165973E+01  0.21869061802E+02  0.00000000000E+00 0. -1.
</event>
<event>
 8    1  0.3719512E-009  0.9222807E+02  0.7561462E-02  0.1297544E+00
         -1   -1    0    0    0  501 -0.00000000000E+00  0.00000000000E+00  0.49943982313E+02  0.49943982313E+02  0.00000000000E+00 0.  1.
          1   -1    0    0  501    0  0.00000000000E+00 -0.00000000000E+00 -0.26821603057E+03  0.26821603057E+03  0.00000000000E+00 0. -1.
         25    2    1    2    0    0  0.21217951587E+02  0.33945910195E+02 -0.12357803275E+03  0.18034738700E+03  0.12510445048E+03 0.  0.
         23    2    1    2    0    0 -0.21217951587E+02 -0.33945910195E+02 -0.94694015504E+02  0.13781262588E+03  0.91776015341E+02 0.  0.
          5    1    3    3  502    0 -0.19897533848E+02 -0.19371035460E+02 -0.10735276698E+03  0.11096502983E+03  0.41800000000E+01 0. -1.
         -5    1    3    3    0  502  0.41115485436E+02  0.53316945655E+02 -0.16225265775E+02  0.69382357167E+02  0.41800000000E+01 0. -1.
        -11    1    4    4    0    0 -0.97358567703E+01 -0.59820403991E+02 -0.90899159683E+02  0.10925165844E+03  0.00000000000E+00 0. -1.
         11    1    4    4    0    0 -0.11482094817E+02  0.25874493796E+02 -0.37948558215E+01  0.28560967444E+02  0.00000000000E+00 0.  1.
</event>
<event>
 8    1  0.3719512E-009  0.2708163E+03  0.7561462E-02  0.1100813E+00
         -1   -1    0    0    0  501 -0.00000000000E+00  0.00000000000E+00  0.13160487924E+03  0.13160487924E+03  0.00000000000E+00 0.  1.
          1   -1    0    0  501    0  0.00000000000E+00 -0.00000000000E+00 -0.63267241698E+03  0.63267241698E+03  0.00000000000E+00 0. -1.
         25    2    1    2    0    0 -0.15784237174E+03  0.20818538481E+03 -0.32894448584E+03  0.43830589326E+03  0.12510880278E+03 0.  0.
         23    2    1    2    0    0  0.15784237174E+03 -0.20818538481E+03 -0.17212305191E+03  0.32597140296E+03  0.91518532477E+02 0.  0.
          5    1    3    3  502    0 -0.43436052702E+02  0.14034109311E+03 -0.22805457264E+03  0.27130918449E+03  0.41800000000E+01 0. -1.
         -5    1    3    3    0  502 -0.11440631903E+03  0.67844291707E+02 -0.10088991320E+03  0.16699670877E+03  0.41800000000E+01 0. -1.
        -11    1    4    4    0    0  0.13234074498E+03 -0.16604533984E+03 -0.90881317496E+02  0.23096437287E+03  0.00000000000E+00 0.  1.
         11    1    4    4    0    0  0.25501626760E+02 -0.42140044972E+02 -0.81241734411E+02  0.95007030096E+02  0.00000000000E+00 0. -1.
</event>
<event>
 8    1  0.3719512E-009  0.1478805E+03  0.7561462E-02  0.1203102E+00
         -1   -1    0    0    0  501 -0.00000000000E+00  0.00000000000E+00  0.50971824596E+02  0.50971824596E+02  0.00000000000E+00 0.  1.
          1   -1    0    0  501    0  0.00000000000E+00 -0.00000000000E+00 -0.49817614051E+03  0.49817614051E+03  0.00000000000E+00 0. -1.
         25    2    1    2    0    0 -0.10340818110E+03 -0.50627456732E+02 -0.21435288679E+03  0.27358863526E+03  0.12508872840E+03 0.  0.
         23    2    1    2    0    0  0.10340818110E+03  0.50627456732E+02 -0.23285142912E+03  0.27555932985E+03  0.91960670567E+02 0.  0.
          5    1    3    3  502    0 -0.39722915036E+02  0.32821539812E+02 -0.25880957506E+02  0.57814010551E+02  0.41800000000E+01 0. -1.
         -5    1    3    3    0  502 -0.63685266061E+02 -0.83448996544E+02 -0.18847192929E+03  0.21577462470E+03  0.41800000000E+01 0. -1.
        -11    1    4    4    0    0  0.29465611199E+02 -0.20903083172E+02 -0.25916399827E+02  0.44461454199E+02  0.00000000000E+00 0.  1.
         11    1    4    4    0    0  0.73942569897E+02  0.71530539904E+02 -0.20693502929E+03  0.23109787565E+03  0.00000000000E+00 0. -1.
</event>
<event>
 8    1  0.3719512E-009  0.1088742E+03  0.7561462E-02  0.1262669E+00
          1   -1    0    0  501    0  0.00000000000E+00  0.00000000000E+00  0.29797069823E+02  0.29797069823E+02  0.00000000000E+00 0. -1.
         -1   -1    0    0    0  501 -0.00000000000E+00 -0.00000000000E+00 -0.52059528836E+03  0.52059528836E+03  0.00000000000E+00 0.  1.
         25    2    1    2    0    0 -0.87310189425E+00  0.28174089741E+02 -0.39197327509E+03  0.41241426693E+03  0.12509171652E+03 0.  0.
         23    2    1    2    0    0  0.87310189425E+00 -0.28174089741E+02 -0.98824943451E+02  0.13797809126E+03  0.92070856299E+02 0.  0.
          5    1    3    3  502    0 -0.15892181941E+02  0.75296605875E+02 -0.20644655640E+03  0.22036286746E+03  0.41800000000E+01 0. -1.
         -5    1    3    3    0  502  0.15019080047E+02 -0.47122516135E+02 -0.18552671868E+03  0.19205139947E+03  0.41800000000E+01 0. -1.
        -11    1    4    4    0    0  0.43707772548E+02 -0.12957994942E+02 -0.71932474271E+02  0.85161962570E+02  0.00000000000E+00 0.  1.
         11    1    4    4    0    0 -0.42834670654E+02 -0.15216094799E+02 -0.26892469179E+02  0.52816128688E+02  0.00000000000E+00 0. -1.
</event>
<event>
 8    1  0.3719512E-009  0.1183677E+03  0.7561462E-02  0.1245814E+00
          2   -1    0    0  501    0  0.00000000000E+00  0.00000000000E+00  0.46159286167E+03  0.46159286167E+03  0.00000000000E+00 0. -1.
         -2   -1    0    0    0  501 -0.00000000000E+00 -0.00000000000E+00 -0.38019988450E+02  0.38019988450E+02  0.00000000000E+00 0.  1.
         25    2    1    2    0    0 -0.53794896317E+02  0.78722538895E+01  0.33181002850E+03  0.35874470512E+03  0.12507599765E+03 0.  0.
         23    2    1    2    0    0  0.53794896317E+02 -0.78722538895E+01  0.91762844717E+02  0.14086814500E+03  0.92019298807E+02 0.  0.
          5    1    3    3  502    0  0.92607457113E+01 -0.49701756681E+02  0.11518570650E+03  0.12586200940E+03  0.41800000000E+01 0.  1.
         -5    1    3    3    0  502 -0.63055642028E+02  0.57574010571E+02  0.21662432200E+03  0.23288269572E+03  0.41800000000E+01 0.  1.
        -11    1    4    4    0    0  0.92440393668E+01  0.36492081768E+02  0.12433163160E+02  0.39644770673E+02  0.00000000000E+00 0.  1.
         11    1    4    4    0    0  0.44550856950E+02 -0.44364335657E+02  0.79329681557E+02  0.10122337432E+03  0.00000000000E+00 0. -1.
</event>
<event>
 8    1  0.3719512E-009  0.2192054E+03  0.7561462E-02  0.1134477E+00
         -2   -1    0    0    0  501 -0.00000000000E+00  0.00000000000E+00  0.11849113036E+03  0.11849113036E+03  0.00000000000E+00 0.  1.
          2   -1    0    0  501    0  0.00000000000E+00 -0.00000000000E+00 -0.42358021803E+03  0.42358021803E+03  0.00000000000E+00 0. -1.
         25    2    1    2    0    0  0.11767838606E+03 -0.15617193650E+03 -0.14999158615E+03  0.27637438458E+03  0.12508976074E+03 0.  0.
         23    2    1    2    0    0 -0.11767838606E+03  0.15617193650E+03 -0.15509750152E+03  0.26569696381E+03  0.91114023662E+02 0.  0.
          5    1    3    3  502    0 -0.19143093528E+02 -0.61319498562E+02 -0.54874042842E+02  0.84588249252E+02  0.41800000000E+01 0.  1.
         -5    1    3    3    0  502  0.13682147958E+03 -0.94852437933E+02 -0.95117543309E+02  0.19178613533E+03  0.41800000000E+01 0.  1.
        -11    1    4    4    0    0 -0.36536599953E+02  0.10595073076E+03 -0.47067364642E+02  0.12155581968E+03  0.00000000000E+00 0.  1.
         11    1    4    4    0    0 -0.81141786104E+02  0.50221205740E+02 -0.10803013687E+03  0.14414114413E+03  0.00000000000E+00 0. -1.
</event>
<event>
 8    1  0.3719512E-009  0.1285349E+03  0.7561462E-02  0.1229646E+00
          4   -1    0    0  501    0  0.00000000000E+00  0.00000000000E+00  0.20717961135E+03  0.20717961135E+03  0.00000000000E+00 0. -1.
         -4   -1    0    0    0  501 -0.00000000000E+00 -0.00000000000E+00 -0.93860278728E+02  0.93860278728E+02  0.00000000000E+00 0.  1.
         25    2    1    2    0    0  0.54438149445E+02 -0.65279251474E+02  0.51433829645E+02  0.15974368838E+03  0.12509082443E+03 0.  0.
         23    2    1    2    0    0 -0.54438149445E+02  0.65279251474E+02  0.61885502972E+02  0.14129620170E+03  0.94392310851E+02 0.  0.
          5    1    3    3  502    0 -0.30496332023E+02 -0.16025182509E+02 -0.18311189645E+02  0.39237798199E+02  0.41800000000E+01 0.  1.
         -5    1    3    3    0  502  0.84934481468E+02 -0.49254068965E+02  0.69745019290E+02  0.12050589018E+03  0.41800000000E+01 0.  1.
        -11    1    4    4    0    0 -0.30856740685E+02 -0.19229408067E+02  0.32507218116E+02  0.48771178067E+02  0.00000000000E+00 0.  1.
         11    1    4    4    0    0 -0.23581408760E+02  0.84508659542E+02  0.29378284856E+02  0.92525023630E+02  0.00000000000E+00 0. -1.
</event>
<event>
 8    1  0.3719512E-009  0.5784313E+02  0.7561462E-02  0.1407113E+00
         -1   -1    0    0    0  501 -0.00000000000E+00  0.00000000000E+00  0.82524607649E+02  0.82524607649E+02  0.00000000000E+00 0.  1.
          1   -1    0    0  501    0  0.00000000000E+00 -0.00000000000E+00 -0.17221093902E+03  0.17221093902E+03  0.00000000000E+00 0. -1.
         25    2    1    2    0    0 -0.18045529912E+02 -0.61219601055E+01  0.32750444864E+00  0.12653361756E+03  0.12509008581E+03 0.  0.
         23    2    1    2    0    0  0.18045529912E+02  0.61219601055E+01 -0.90013835823E+02  0.12820192911E+03  0.89275553450E+02 0.  0.
          5    1    3    3  502    0  0.11961246854E+02 -0.16103343046E+02 -0.57197196858E+02  0.60756734705E+02  0.41800000000E+01 0. -1.
         -5    1    3    3    0  502 -0.30006776766E+02  0.99813829404E+01  0.57524701307E+02  0.65776882852E+02  0.41800000000E+01 0. -1.
        -11    1    4    4    0    0  0.35778930175E+02  0.19808732012E+02 -0.96560522801E+02  0.10486397032E+03  0.00000000000E+00 0. -1.
         11    1    4    4    0    0 -0.17733400264E+02 -0.13686771906E+02  0.65466869782E+01  0.23337958791E+02  0.00000000000E+00 0.  1.
</event>
<event>
 8    1  0.3719512E-009  0.1064572E+03  0.7561462E-02  0.1267275E+00
         -1   -1    0    0    0  501 -0.00000000000E+00  0.00000000000E+00  0.63049710409E+02  0.63049710409E+02  0.00000000000E+00 0.  1.
          1   -1    0    0  501    0  0.00000000000E+00 -0.00000000000E+00 -0.20424167070E+03  0.20424167070E+03  0.00000000000E+00 0. -1.
         25    2    1    2    0    0 -0.14293575520E+02 -0.30100154610E+02 -0.72596628816E+02  0.14841999148E+03  0.12509155746E+03 0.  0.
         23    2    1    2    0    0  0.14293575520E+02  0.30100154610E+02 -0.68595331476E+02  0.11887138963E+03  0.91185317697E+02 0.  0.
          5    1    3    3  502    0  0.47020655548E+02 -0.26813676136E+02 -0.13969603538E+01  0.54307818721E+02  0.41800000000E+01 0. -1.
         -5    1    3    3    0  502 -0.61314231068E+02 -0.32864784749E+01 -0.71199668462E+02  0.94112172759E+02  0.41800000000E+01 0. -1.
        -11    1    4    4    0    0 -0.12428653592E+02 -0.29364960118E+02 -0.22119727454E+02  0.38807920010E+02  0.00000000000E+00 0.  1.
         11    1    4    4    0    0  0.26722229113E+02  0.59465114728E+02 -0.46475604022E+02  0.80063469620E+02  0.00000000000E+00 0. -1.
</event>
<event>
 8    1  0.3719512E-009  0.9550687E+02  0.7561462E-02  0.1290039E+00
         -2   -1    0    0    0  501 -0.00000000000E+00  0.00000000000E+00  0.79336188173E+02  0.79336188173E+02  0.00000000000E+00 0.  1.
          2   -1    0    0  501    0  0.00000000000E+00 -0.00000000000E+00 -0.15989380490E+03  0.15989380490E+03  0.00000000000E+00 0. -1.
         25    2    1    2    0    0 -0.91187449879E-01 -0.29303328825E+02 -0.58717250265E+02  0.14125776983E+03  0.12508936271E+03 0.  0.
         23    2    1    2    0    0  0.91187449879E-01  0.29303328825E+02 -0.21840366467E+02  0.97972223248E+02  0.90900283418E+02 0.  0.
          5    1    3    3  502    0 -0.51956613672E+02 -0.43022617948E+02 -0.55318557251E+02  0.87338711553E+02  0.41800000000E+01 0. -1.
         -5    1    3    3    0  502  0.51865426222E+02  0.13719289123E+02 -0.33986930140E+01  0.53919058276E+02  0.41800000000E+01 0. -1.
        -11    1    4    4    0    0  0.67946307982E+01 -0.19347092422E+02  0.23460828080E+02  0.31159066852E+02  0.00000000000E+00 0.  1.
         11    1    4    4    0    0 -0.67034433483E+01  0.48650421247E+02 -0.45301194547E+02  0.66813156396E+02  0.00000000000E+00 0. -1.
</event>
<event>
 8    1  0.3719512E-009  0.9742149E+02  0.7561462E-02  0.1285814E+00
         -3   -1    0    0    0  501 -0.00000000000E+00  0.00000000000E+00  0.11676801057E+03  0.11676801057E+03  0.00000000000E+00 0.  1.
          3   -1    0    0  501    0  0.00000000000E+00 -0.00000000000E+00 -0.13119719938E+03  0.13119719938E+03  0.00000000000E+00 0. -1.
         25    2    1    2    0    0  0.61659007337E+02 -0.23404970819E+02 -0.10675635909E+02  0.14181979366E+03  0.12509699768E+03 0.  0.
         23    2    1    2    0    0 -0.61659007337E+02  0.23404970819E+02 -0.37535529061E+01  0.10614541628E+03  0.83085103322E+02 0.  0.
          5    1    3    3  502    0  0.51022200092E+02 -0.43081127191E+02 -0.58488471546E+02  0.88868566581E+02  0.41800000000E+01 0. -1.
         -5    1    3    3    0  502  0.10636807244E+02  0.19676156372E+02  0.47812835637E+02  0.52951227083E+02  0.41800000000E+01 0. -1.
        -11    1    4    4    0    0 -0.82089016718E+02  0.17827079169E+02  0.25761707502E+01  0.84041942346E+02  0.00000000000E+00 0.  1.
         11    1    4    4    0    0  0.20430009382E+02  0.55778916496E+01 -0.63297236563E+01  0.22103473939E+02  0.00000000000E+00 0. -1.
</event>
<event>
 8    1  0.3719512E-009  0.2882864E+03  0.7561462E-02  0.1091247E+00
          1   -1    0    0  501    0  0.00000000000E+00  0.00000000000E+00  0.20671393635E+04  0.20671393635E+04  0.00000000000E+00 0. -1.
         -1   -1    0    0    0  501 -0.00000000000E+00 -0.00000000000E+00 -0.43287648251E+02  0.43287648251E+02  0.00000000000E+00 0.  1.
         25    2    1    2    0    0  0.26008471684E+03  0.98324058773E+02  0.10759520779E+04  0.11183168561E+04  0.12509211121E+03 0.  0.
         23    2    1    2    0    0 -0.26008471684E+03 -0.98324058773E+02  0.94789963736E+03  0.99211015564E+03  0.91962807395E+02 0.  0.
          5    1    3    3  502    0  0.24384288235E+03  0.61482550460E+02  0.10107433437E+04  0.10415656650E+04  0.41800000000E+01 0. -1.
         -5    1    3    3    0  502  0.16241834492E+02  0.36841508313E+02  0.65208734207E+02  0.76751191126E+02  0.41800000000E+01 0. -1.
        -11    1    4    4    0    0 -0.20278167335E+02 -0.28202284050E+02  0.56194547707E+02  0.66063606381E+02  0.00000000000E+00 0.  1.
         11    1    4    4    0    0 -0.23980654951E+03 -0.70121774723E+02  0.89170508966E+03  0.92604654926E+03  0.00000000000E+00 0. -1.
</event>
<event>
 8    1  0.3719512E-009  0.1169177E+03  0.7561462E-02  0.1248270E+00
         -2   -1    0    0    0  501 -0.00000000000E+00  0.00000000000E+00  0.51045923711E+02  0.51045923711E+02  0.00000000000E+00 0. -1.
          2   -1    0    0  501    0  0.00000000000E+00 -0.00000000000E+00 -0.42266194392E+03  0.42266194392E+03  0.00000000000E+00 0.  1.
         25    2    1    2    0    0  0.61268731810E+02 -0.68255841219E+02 -0.14349103050E+03  0.21130231192E+03  0.12508506637E+03 0.  0.
         23    2    1    2    0    0 -0.61268731810E+02  0.68255841219E+02 -0.22812498971E+03  0.26240555571E+03  0.91667591782E+02 0.  0.
          5    1    3    3  502    0  0.83396520596E+02 -0.56755037692E+02 -0.46659337025E+02  0.11122355903E+03  0.41800000000E+01 0. -1.
         -5    1    3    3    0  502 -0.22127788786E+02 -0.11500803527E+02 -0.96831693478E+02  0.10007875289E+03  0.41800000000E+01 0. -1.
        -11    1    4    4    0    0 -0.62187021309E+02  0.29517246517E+02 -0.64771373341E+02  0.94518909567E+02  0.00000000000E+00 0. -1.
         11    1    4    4    0    0  0.91828949894E+00  0.38738594702E+02 -0.16335361636E+03  0.16788664615E+03  0.00000000000E+00 0.  1.
</event>
<event>
 8    1  0.3719512E-009  0.1190243E+03  0.7561462E-02  0.1244715E+00
         -1   -1    0    0    0  501 -0.00000000000E+00  0.00000000000E+00  0.32915855098E+02  0.32915855098E+02  0.00000000000E+00 0.  1.
          1   -1    0    0  501    0  0.00000000000E+00 -0.00000000000E+00 -0.49142315126E+03  0.49142315126E+03  0.00000000000E+00 0. -1.
         25    2    1    2    0    0  0.59876411838E+02  0.99787701183E+01 -0.19896107849E+03  0.24273057907E+03  0.12509141743E+03 0.  0.
         23    2    1    2    0    0 -0.59876411838E+02 -0.99787701183E+01 -0.25954621768E+03  0.28160842729E+03  0.90853214929E+02 0.  0.
          5    1    3    3  502    0  0.30159566530E+02 -0.56992913151E+02 -0.78480979220E+02  0.10165888108E+03  0.41800000000E+01 0.  1.
         -5    1    3    3    0  502  0.29716845308E+02  0.66971683269E+02 -0.12048009927E+03  0.14107169799E+03  0.41800000000E+01 0.  1.
        -11    1    4    4    0    0 -0.78752027030E+02 -0.12581875862E+00 -0.14410333656E+03  0.16421835829E+03  0.00000000000E+00 0.  1.
         11    1    4    4    0    0  0.18875615192E+02 -0.98529513596E+01 -0.11544288112E+03  0.11739006900E+03  0.00000000000E+00 0. -1.
</event>
<event>
 8    1  0.3719512E-009  0.2635130E+03  0.7561462E-02  0.1105051E+00
          1   -1    0    0  501    0  0.00000000000E+00  0.00000000000E+00  0.62263622961E+03  0.62263622961E+03  0.00000000000E+00 0. -1.
         -1   -1    0    0    0  501 -0.00000000000E+00 -0.00000000000E+00 -0.12420132555E+03  0.12420132555E+03  0.00000000000E+00 0.  1.
         25    2    1    2    0    0 -0.24447557277E+03 -0.38127539267E+02  0.34516923163E+03  0.44273180491E+03  0.12509051796E+03 0.  0.
         23    2    1    2    0    0  0.24447557277E+03  0.38127539267E+02  0.15326567242E+03  0.30410575024E+03  0.88135838658E+02 0.  0.
          5    1    3    3  502    0 -0.20484802380E+03  0.15605173123E+02  0.22154426711E+03  0.30216811376E+03  0.41800000000E+01 0.  1.
         -5    1    3    3    0  502 -0.39627548971E+02 -0.53732712390E+02  0.12362496452E+03  0.14056369116E+03  0.41800000000E+01 0.  1.
        -11    1    4    4    0    0  0.36769198762E+02  0.28843657080E+02  0.16130599930E+01  0.46760373115E+02  0.00000000000E+00 0.  1.
         11    1    4    4    0    0  0.20770637401E+03  0.92838821866E+01  0.15165261243E+03  0.25734537713E+03  0.00000000000E+00 0. -1.
</event>
<event>
 8    1  0.3719512E-009  0.1070455E+03  0.7561462E-02  0.1266141E+00
          2   -1    0    0  501    0  0.00000000000E+00  0.00000000000E+00  0.71681953028E+03  0.71681953028E+03  0.00000000000E+00 0. -1.
         -2   -1    0    0    0  501 -0.00000000000E+00 -0.00000000000E+00 -0.17516465890E+02  0.17516465890E+02  0.00000000000E+00 0.  1.
         25    2    1    2    0    0 -0.24748186291E+02  0.47276874934E+01  0.36329968764E+03  0.38506106569E+03  0.12510210834E+03 0.  0.
         23    2    1    2    0    0  0.24748186291E+02 -0.47276874934E+01  0.33600337675E+03  0.34927493048E+03  0.91977628398E+02 0.  0.
          5    1    3    3  502    0  0.43766268273E+02 -0.25973032313E+02  0.17514591705E+03  0.18243806978E+03  0.41800000000E+01 0.  1.
         -5    1    3    3    0  502 -0.68514454564E+02  0.30700719806E+02  0.18815377060E+03  0.20262299591E+03  0.41800000000E+01 0.  1.
        -11    1    4    4    0    0  0.49048918496E+02 -0.26019616714E+02  0.27165241805E+03  0.27726855770E+03  0.00000000000E+00 0. -1.
         11    1    4    4    0    0 -0.24300732205E+02  0.21291929220E+02  0.64350958700E+02  0.72006372782E+02  0.00000000000E+00 0.  1.
</event>
<event>
 8    1  0.3719512E-009  0.1975691E+03  0.7561462E-02  0.1151806E+00
         -2   -1    0    0    0  501 -0.00000000000E+00  0.00000000000E+00  0.41329875719E+03  0.41329875719E+03  0.00000000000E+00 0.  1.
          2   -1    0    0  501    0  0.00000000000E+00 -0.00000000000E+00 -0.12169292742E+03  0.12169292742E+03  0.00000000000E+00 0. -1.
         25    2    1    2    0    0 -0.88056225115E+02  0.15516761702E+03  0.24518741056E+03  0.32801768144E+03  0.12509134619E+03 0.  0.
         23    2    1    2    0    0  0.88056225115E+02 -0.15516761702E+03  0.46418419215E+02  0.20697400317E+03  0.94088682597E+02 0.  0.
          5    1    3    3  502    0 -0.47159718507E+02  0.16680902826E+03  0.21222031972E+03  0.27405150513E+03  0.41800000000E+01 0.  1.
         -5    1    3    3    0  502 -0.40896506608E+02 -0.11641411237E+02  0.32967090832E+02  0.53966176317E+02  0.41800000000E+01 0.  1.
        -11    1    4    4    0    0  0.28124558879E+02 -0.36571699304E+02 -0.28698187469E+02  0.54332917887E+02  0.00000000000E+00 0. -1.
         11    1    4    4    0    0  0.59931666236E+02 -0.11859591772E+03  0.75116606684E+02  0.15264108529E+03  0.00000000000E+00 0.  1.
</event>
<event>
 8    1  0.3719512E-009  0.1248989E+03  0.7561462E-02  0.1235227E+00
          1   -1    0    0  501    0  0.00000000000E+00  0.00000000000E+00  0.20443226188E+03  0.20443226188E+03  0.00000000000E+00 0. -1.
         -1   -1    0    0    0  501 -0.00000000000E+00 -0.00000000000E+00 -0.94103277618E+02  0.94103277618E+02  0.00000000000E+00 0.  1.
         25    2    1    2    0    0  0.25656663777E+02  0.73692971767E+02  0.10072214647E+03  0.17855414220E+03  0.12509081670E+03 0.  0.
         23    2    1    2    0    0 -0.25656663777E+02 -0.73692971767E+02  0.96068377967E+01  0.11998139730E+03  0.90632918314E+02 0.  0.
          5    1    3    3  502    0  0.56621764864E+02  0.90283474536E+02  0.94780637742E+02  0.14268136431E+03  0.41800000000E+01 0.  1.
         -5    1    3    3    0  502 -0.30965101087E+02 -0.16590502768E+02  0.59415087264E+01  0.35872777888E+02  0.41800000000E+01 0.  1.
        -11    1    4    4    0    0 -0.10655210672E+02 -0.87039642046E+02  0.28706940361E+02  0.92268744583E+02  0.00000000000E+00 0. -1.
         11    1    4    4    0    0 -0.15001453106E+02  0.13346670279E+02 -0.19100102564E+02  0.27712652720E+02  0.00000000000E+00 0.  1.
</event>
<event>
 8    1  0.3719512E-009  0.1275248E+03  0.7561462E-02  0.1231175E+00
          2   -1    0    0  501    0  0.00000000000E+00  0.00000000000E+00  0.67110443123E+02  0.67110443123E+02  0.00000000000E+00 0. -1.
         -2   -1    0    0    0  501 -0.00000000000E+00 -0.00000000000E+00 -0.38747567639E+03  0.38747567639E+03  0.00000000000E+00 0.  1.
         25    2    1    2    0    0  0.74357581284E+02  0.64300579411E+02 -0.76114834446E+02  0.17636317137E+03  0.12508751251E+03 0.  0.
         23    2    1    2    0    0 -0.74357581284E+02 -0.64300579411E+02 -0.24425039882E+03  0.27822294814E+03  0.89922951150E+02 0.  0.
          5    1    3    3  502    0 -0.89600133831E+01 -0.28920017591E+02 -0.30583467480E+02  0.43237369721E+02  0.41800000000E+01 0. -1.
         -5    1    3    3    0  502  0.83317594668E+02  0.93220597001E+02 -0.45531366966E+02  0.13312580165E+03  0.41800000000E+01 0. -1.
        -11    1    4    4    0    0 -0.36856866703E+02 -0.22279226467E+02 -0.20524225088E+03  0.20971212197E+03  0.00000000000E+00 0.  1.
         11    1    4    4    0    0 -0.37500714581E+02 -0.42021352944E+02 -0.39008147939E+02  0.68510826173E+02  0.00000000000E+00 0. -1.
</event>
<event>
 8    1  0.3719512E-009  0.2120823E+03  0.7561462E-02  0.1139928E+00
         -2   -1    0    0    0  501 -0.00000000000E+00  0.00000000000E+00  0.15171255001E+03  0.15171255001E+03  0.00000000000E+00 0.  1.
          2   -1    0    0  501    0  0.00000000000E+00 -0.00000000000E+00 -0.36280039340E+03  0.36280039340E+03  0.00000000000E+00 0. -1.
         25    2    1    2    0    0  0.87090772681E+02 -0.16059676236E+03 -0.21624448857E+03  0.30949162887E+03  0.12508903523E+03 0.  0.
         23    2    1    2    0    0 -0.87090772681E+02  0.16059676236E+03  0.51566451758E+01  0.20502131455E+03  0.92903313517E+02 0.  0.
          5    1    3    3  502    0  0.70893040614E+02 -0.18129346057E+03 -0.18724011779E+03  0.27012862892E+03  0.41800000000E+01 0.  1.
         -5    1    3    3    0  502  0.16197732067E+02  0.20696698205E+02 -0.29004370776E+02  0.39362999947E+02  0.41800000000E+01 0.  1.
        -11    1    4    4    0    0 -0.43590006254E+02  0.15248820176E+03 -0.81747305077E+01  0.15880669551E+03  0.00000000000E+00 0.  1.
         11    1    4    4    0    0 -0.43500766427E+02  0.81085606000E+01  0.13331375683E+02  0.46214619033E+02  0.00000000000E+00 0. -1.
</event>
<event>
 8    1  0.3719512E-009  0.9812927E+02  0.7561462E-02  0.1284280E+00
         -1   -1    0    0    0  501 -0.00000000000E+00  0.00000000000E+00  0.60840068928E+02  0.60840068928E+02  0.00000000000E+00 0.  1.
          1   -1    0    0  501    0  0.00000000000E+00 -0.00000000000E+00 -0.26126322191E+03  0.26126322191E+03  0.00000000000E+00 0. -1.
         25    2    1    2    0    0  0.38370938721E+02 -0.44211180291E+02 -0.85461258081E+02  0.16241421943E+03  0.12509114533E+03 0.  0.
         23    2    1    2    0    0 -0.38370938721E+02  0.44211180291E+02 -0.11496189490E+03  0.15968907141E+03  0.94113786697E+02 0.  0.
          5    1    3    3  502    0  0.42531887692E+02  0.37059306021E+00 -0.10501358761E+03  0.11337735573E+03  0.41800000000E+01 0. -1.
         -5    1    3    3    0  502 -0.41609489709E+01 -0.44581773351E+02  0.19552329528E+02  0.49036863699E+02  0.41800000000E+01 0. -1.
        -11    1    4    4    0    0 -0.13130211458E+02  0.70730482188E+02 -0.90712641749E+02  0.11577558869E+03  0.00000000000E+00 0. -1.
         11    1    4    4    0    0 -0.25240727263E+02 -0.26519301897E+02 -0.24249253150E+02  0.43913482715E+02  0.00000000000E+00 0.  1.
</event>
<event>
 8    1  0.3719512E-009  0.6697132E+02  0.7561462E-02  0.1370706E+00
         -1   -1    0    0    0  501 -0.00000000000E+00  0.00000000000E+00  0.24732781313E+03  0.24732781313E+03  0.00000000000E+00 0.  1.
          1   -1    0    0  501    0  0.00000000000E+00 -0.00000000000E+00 -0.73614545925E+02  0.73614545925E+02  0.00000000000E+00 0. -1.
         25    2    1    2    0    0  0.20027400569E+02  0.63199078375E+02  0.42660709736E+02  0.14786937570E+03  0.12510074274E+03 0.  0.
         23    2    1    2    0    0 -0.20027400569E+02 -0.63199078375E+02  0.13105255747E+03  0.17307298335E+03  0.91565629285E+02 0.  0.
          5    1    3    3  502    0  0.12953305079E+02  0.42529161239E+02 -0.41413745660E+02  0.60902285653E+02  0.41800000000E+01 0. -1.
         -5    1    3    3    0  502  0.70740954899E+01  0.20669917137E+02  0.84074455396E+02  0.86967090049E+02  0.41800000000E+01 0. -1.
        -11    1    4    4    0    0 -0.46685851721E+01 -0.31243548248E+02 -0.54359223552E+01  0.32054707088E+02  0.00000000000E+00 0. -1.
         11    1    4    4    0    0 -0.15358815397E+02 -0.31955530128E+02  0.13648847982E+03  0.14101827626E+03  0.00000000000E+00 0.  1.
</event>
<event>
 8    1  0.3719512E-009  0.1263461E+03  0.7561462E-02  0.1232980E+00
         -2   -1    0    0    0  501 -0.00000000000E+00  0.00000000000E+00  0.58696678467E+02  0.58696678467E+02  0.00000000000E+00 0.  1.
          2   -1    0    0  501    0  0.00000000000E+00 -0.00000000000E+00 -0.37987659007E+03  0.37987659007E+03  0.00000000000E+00 0. -1.
         25    2    1    2    0    0 -0.91553493445E+02  0.41433973965E+02 -0.22252893149E+03  0.27434589676E+03  0.12509088439E+03 0.  0.
         23    2    1    2    0    0  0.91553493445E+02 -0.41433973965E+02 -0.98650980112E+02  0.16422737178E+03  0.84497321871E+02 0.  0.
          5    1    3    3  502    0 -0.10519044412E+03  0.50188833516E+02 -0.22852856995E+03  0.25656720021E+03  0.41800000000E+01 0. -1.
         -5    1    3    3    0  502  0.13636950674E+02 -0.87548595513E+01  0.59996384511E+01  0.17778696549E+02  0.41800000000E+01 0. -1.
        -11    1    4    4    0    0 -0.39120596640E+01 -0.21440516217E+02 -0.51437876127E+02  0.55864613548E+02  0.00000000000E+00 0. -1.
         11    1    4    4    0    0  0.95465553109E+02 -0.19993457748E+02 -0.47213103985E+02  0.10836275823E+03  0.00000000000E+00 0.  1.
</event>
<event>
 8    1  0.3719512E-009  0.4012094E+03  0.7561462E-02  0.1043362E+00
          2   -1    0    0  501    0  0.00000000000E+00  0.00000000000E+00  0.44661750884E+04  0.44661750884E+04  0.00000000000E+00 0. -1.
         -2   -1    0    0    0  501 -0.00000000000E+00 -0.00000000000E+00 -0.38269052372E+02  0.38269052372E+02  0.00000000000E+00 0.  1.
         25    2    1    2    0    0  0.19209469195E+03 -0.33684699722E+03  0.27436010554E+04  0.27736906364E+04  0.12508687000E+03 0.  0.
         23    2    1    2    0    0 -0.19209469195E+03  0.33684699722E+03  0.16843049806E+04  0.17307535044E+04  0.90874390853E+02 0.  0.
          5    1    3    3  502    0  0.58194675547E+02 -0.21600233824E+03  0.13416892907E+04  0.13602173560E+04  0.41800000000E+01 0.  1.
         -5    1    3    3    0  502  0.13390001640E+03 -0.12084465898E+03  0.14019117647E+04  0.14134732804E+04  0.41800000000E+01 0.  1.
        -11    1    4    4    0    0 -0.76881874548E+02  0.22465086411E+03  0.99609876021E+03  0.10240076042E+04  0.00000000000E+00 0.  1.
         11    1    4    4    0    0 -0.11521281740E+03  0.11219613311E+03  0.68820622040E+03  0.70674590015E+03  0.00000000000E+00 0. -1.
</event>
<event>
 8    1  0.3719512E-009  0.1535090E+03  0.7561462E-02  0.1196226E+00
         -1   -1    0    0    0  501 -0.00000000000E+00  0.00000000000E+00  0.20599352911E+02  0.20599352911E+02  0.00000000000E+00 0.  1.
          1   -1    0    0  501    0  0.00000000000E+00 -0.00000000000E+00 -0.13732077142E+04  0.13732077142E+04  0.00000000000E+00 0. -1.
         25    2    1    2    0    0 -0.11154596699E+03  0.51503478459E+02 -0.54251921698E+03  0.57014948615E+03  0.12509286438E+03 0.  0.
         23    2    1    2    0    0  0.11154596699E+03 -0.51503478459E+02 -0.81008914432E+03  0.82365758097E+03  0.84096836465E+02 0.  0.
          5    1    3    3  502    0  0.69163741999E+01  0.38734424035E+02 -0.26735944102E+03  0.27027159477E+03  0.41800000000E+01 0.  1.
         -5    1    3    3    0  502 -0.11846234119E+03  0.12769054424E+02 -0.27515977596E+03  0.29987789138E+03  0.41800000000E+01 0.  1.
        -11    1    4    4    0    0  0.71532974218E+02  0.12626425498E+02 -0.43576525208E+03  0.44177793963E+03  0.00000000000E+00 0.  1.
         11    1    4    4    0    0  0.40012992773E+02 -0.64129903957E+02 -0.37432389224E+03  0.38187964134E+03  0.00000000000E+00 0. -1.
</event>
<event>
 8    1  0.3719512E-009  0.1317663E+03  0.7561462E-02  0.1224858E+00
          2   -1    0    0  501    0  0.00000000000E+00  0.00000000000E+00  0.62135092844E+03  0.62135092844E+03  0.00000000000E+00 0. -1.
         -2   -1    0    0    0  501 -0.00000000000E+00 -0.00000000000E+00 -0.39585959673E+02  0.39585959673E+02  0.00000000000E+00 0.  1.
         25    2    1    2    0    0  0.10504906741E+03  0.41345805715E+02  0.30343395080E+03  0.34707734667E+03  0.12508293191E+03 0.  0.
         23    2    1    2    0    0 -0.10504906741E+03 -0.41345805715E+02  0.27833101797E+03  0.31385954145E+03  0.91076198761E+02 0.  0.
          5    1    3    3  502    0  0.11806219739E+03  0.15451397055E+02  0.15350462508E+03  0.19431564642E+03  0.41800000000E+01 0.  1.
         -5    1    3    3    0  502 -0.13013129973E+02  0.25894408659E+02  0.14992932572E+03  0.15276170024E+03  0.41800000000E+01 0.  1.
        -11    1    4    4    0    0 -0.30199492046E+02 -0.23226851569E+02  0.17552466482E+02  0.41947407944E+02  0.00000000000E+00 0.  1.
         11    1    4    4    0    0 -0.74849575366E+02 -0.18118954146E+02  0.26077855148E+03  0.27191213350E+03  0.00000000000E+00 0. -1.
</event>
<event>
 8    1  0.3719512E-009  0.1253638E+03  0.7561462E-02  0.1234502E+00
          2   -1    0    0  501    0  0.00000000000E+00  0.00000000000E+00  0.35663471138E+03  0.35663471138E+03  0.00000000000E+00 0. -1.
         -2   -1    0    0    0  501 -0.00000000000E+00 -0.00000000000E+00 -0.53444153144E+02  0.53444153144E+02  0.00000000000E+00 0.  1.
         25    2    1    2    0    0  0.34492212509E+02 -0.76095154702E+02  0.16737574674E+03  0.22503543652E+03  0.12508445867E+03 0.  0.
         23    2    1    2    0    0 -0.34492212509E+02  0.76095154702E+02  0.13581481149E+03  0.18504342800E+03  0.93889413313E+02 0.  0.
          5    1    3    3  502    0  0.14060446611E+02  0.34484628502E+02  0.34795047314E+02  0.51137593602E+02  0.41800000000E+01 0. -1.
         -5    1    3    3    0  502  0.20431765898E+02 -0.11057978320E+03  0.13258069943E+03  0.17389784292E+03  0.41800000000E+01 0. -1.
        -11    1    4    4    0    0  0.15238367718E+02  0.25995606878E+02 -0.20026344363E+01  0.30199171716E+02  0.00000000000E+00 0.  1.
         11    1    4    4    0    0 -0.49730580227E+02  0.50099547824E+02  0.13781744593E+03  0.15484425628E+03  0.00000000000E+00 0. -1.
</event>
<event>
 8    1  0.3719512E-009  0.1197273E+03  0.7561462E-02  0.1243548E+00
         -1   -1    0    0    0  501 -0.00000000000E+00  0.00000000000E+00  0.15729374320E+03  0.15729374320E+03  0.00000000000E+00 0.  1.
          1   -1    0    0  501    0  0.00000000000E+00 -0.00000000000E+00 -0.10879372632E+03  0.10879372632E+03  0.00000000000E+00 0. -1.
         25    2    1    2    0    0  0.58746204647E+02  0.53099185516E+02  0.23144171917E+02  0.14984372901E+03  0.12508737094E+03 0.  0.
         23    2    1    2    0    0 -0.58746204647E+02 -0.53099185516E+02  0.25355844964E+02  0.11624374051E+03  0.81234526352E+02 0.  0.
          5    1    3    3  502    0 -0.32879912679E+01  0.64882277443E+02  0.49003868287E+02  0.81482343608E+02  0.41800000000E+01 0.  1.
         -5    1    3    3    0  502  0.62034195915E+02 -0.11783091926E+02 -0.25859696370E+02  0.68361385405E+02  0.41800000000E+01 0.  1.
        -11    1    4    4    0    0 -0.12260608697E+02 -0.62462117219E+02  0.26154556230E+02  0.68817871405E+02  0.00000000000E+00 0.  1.
         11    1    4    4    0    0 -0.46485595950E+02  0.93629317030E+01 -0.79871126660E+00  0.47425869107E+02  0.00000000000E+00 0. -1.
</event>
<event>
 8    1  0.3719512E-009  0.1234415E+03  0.7561462E-02  0.1237525E+00
         -1   -1    0    0    0  501 -0.00000000000E+00  0.00000000000E+00  0.28095244689E+03  0.28095244689E+03  0.00000000000E+00 0.  1.
          1   -1    0    0  501    0  0.00000000000E+00 -0.00000000000E+00 -0.91911725731E+02  0.91911725731E+02  0.00000000000E+00 0. -1.
         25    2    1    2    0    0  0.94554518020E+02 -0.42460073696E+02  0.16590312170E+03  0.23219739626E+03  0.12509344629E+03 0.  0.
         23    2    1    2    0    0 -0.94554518020E+02  0.42460073696E+02  0.23137599459E+02  0.14066677636E+03  0.92240873403E+02 0.  0.
          5    1    3    3  502    0  0.38323380240E+02  0.16229425009E+02 -0.57560151188E+01  0.42221793178E+02  0.41800000000E+01 0. -1.
         -5    1    3    3    0  502  0.56231137780E+02 -0.58689498704E+02  0.17165913682E+03  0.18997560308E+03  0.41800000000E+01 0. -1.
        -11    1    4    4    0    0 -0.11379861337E+02 -0.17682151774E+02 -0.20286612891E+02  0.29218254534E+02  0.00000000000E+00 0. -1.
         11    1    4    4    0    0 -0.83174656683E+02  0.60142225470E+02  0.43424212350E+02  0.11144852182E+03  0.00000000000E+00 0.  1.
</event>
<event>
 8    1  0.3719512E-009  0.9052976E+02  0.7561462E-02  0.1301574E+00
         -1   -1    0    0    0  501 -0.00000000000E+00  0.00000000000E+00  0.35595213085E+02  0.35595213085E+02  0.00000000000E+00 0.  1.
          1   -1    0    0  501    0  0.00000000000E+00 -0.00000000000E+00 -0.53171381719E+03  0.53171381719E+03  0.00000000000E+00 0. -1.
         25    2    1    2    0    0 -0.63206557668E+01  0.15287993339E+02 -0.44309155586E+03  0.46070715577E+03  0.12508910053E+03 0.  0.
         23    2    1    2    0    0  0.63206557668E+01 -0.15287993339E+02 -0.53027048246E+02  0.10660187451E+03  0.90985814132E+02 0.  0.
          5    1    3    3  502    0 -0.25429761399E+02  0.62451267417E+02 -0.17092089980E+03  0.18378862847E+03  0.41800000000E+01 0.  1.
         -5    1    3    3    0  502  0.19109105632E+02 -0.47163274079E+02 -0.27217065607E+03  0.27691852730E+03  0.41800000000E+01 0.  1.
        -11    1    4    4    0    0 -0.59987713523E+01 -0.36996950366E+02 -0.67891593885E+02  0.77550165147E+02  0.00000000000E+00 0. -1.
         11    1    4    4    0    0  0.12319427119E+02  0.21708957027E+02  0.14864545639E+02  0.29051709361E+02  0.00000000000E+00 0.  1.
</event>
<event>
 8    1  0.3719512E-009  0.1517431E+03  0.7561462E-02  0.1198347E+00
          1   -1    0    0  501    0  0.00000000000E+00  0.00000000000E+00  0.67292119742E+03  0.67292119742E+03  0.00000000000E+00 0. -1.
         -1   -1    0    0    0  501 -0.00000000000E+00 -0.00000000000E+00 -0.42749408487E+02  0.42749408487E+02  0.00000000000E+00 0.  1.
         25    2    1    2    0    0  0.10301634543E+03 -0.75336413626E+02  0.28025217705E+03  0.33238008803E+03  0.12508915833E+03 0.  0.
         23    2    1    2    0    0 -0.10301634543E+03  0.75336413626E+02  0.34991961188E+03  0.38329051788E+03  0.90443041041E+02 0.  0.
          5    1    3    3  502    0  0.40810684991E+02 -0.76884311868E+02  0.24653571463E+03  0.26148430242E+03  0.41800000000E+01 0.  1.
         -5    1    3    3    0  502  0.62205660439E+02  0.15478982422E+01  0.33716462422E+02  0.70895785614E+02  0.41800000000E+01 0.  1.
        -11    1    4    4    0    0 -0.80247844913E+02  0.54025121093E+01  0.21626165283E+03  0.23073362614E+03  0.00000000000E+00 0. -1.
         11    1    4    4    0    0 -0.22768500517E+02  0.69933901517E+02  0.13365795906E+03  0.15255689174E+03  0.00000000000E+00 0.  1.
</event>
<event>
 8    1  0.3719512E-009  0.1214879E+03  0.7561462E-02  0.1240662E+00
          1   -1    0    0  501    0  0.00000000000E+00  0.00000000000E+00  0.13868268858E+04  0.13868268858E+04  0.00000000000E+00 0. -1.
         -1   -1    0    0    0  501 -0.00000000000E+00 -0.00000000000E+00 -0.15569776957E+02  0.15569776957E+02  0.00000000000E+00 0.  1.
         25    2    1    2    0    0  0.11329379999E+02  0.82874553057E+02  0.98704916676E+03  0.99845385497E+03  0.12508995359E+03 0.  0.
         23    2    1    2    0    0 -0.11329379999E+02 -0.82874553057E+02  0.38420794211E+03  0.40394280782E+03  0.92506771734E+02 0.  0.
          5    1    3    3  502    0 -0.36211540610E+02  0.69527225447E+02  0.83159294500E+03  0.83529013481E+03  0.41800000000E+01 0. -1.
         -5    1    3    3    0  502  0.47540920609E+02  0.13347327610E+02  0.15545622177E+03  0.16316372015E+03  0.41800000000E+01 0. -1.
        -11    1    4    4    0    0  0.27212572832E+02 -0.68627674605E+02  0.31428903900E+03  0.32284343245E+03  0.00000000000E+00 0. -1.
         11    1    4    4    0    0 -0.38541952831E+02 -0.14246878452E+02  0.69918903116E+02  0.81099375377E+02  0.00000000000E+00 0.  1.
</event>
<event>
 8    1  0.3719512E-009  0.1270001E+03  0.7561462E-02  0.1231976E+00
          2   -1    0    0  501    0  0.00000000000E+00  0.00000000000E+00  0.56980521408E+03  0.56980521408E+03  0.00000000000E+00 0. -1.
         -2   -1    0    0    0  501 -0.00000000000E+00 -0.00000000000E+00 -0.46935448838E+02  0.46935448838E+02  0.00000000000E+00 0.  1.
         25    2    1    2    0    0  0.46514307815E+02  0.81337402670E+02  0.42809081642E+03  0.45572850567E+03  0.12508944748E+03 0.  0.
         23    2    1    2    0    0 -0.46514307815E+02 -0.81337402670E+02  0.94778948825E+02  0.16101215725E+03  0.90346619959E+02 0.  0.
          5    1    3    3  502    0 -0.32432039022E+02 -0.80260442166E+01  0.13823004246E+03  0.14227182286E+03  0.41800000000E+01 0.  1.
         -5    1    3    3    0  502  0.78946346836E+02  0.89363446886E+02  0.28986077396E+03  0.31345668281E+03  0.41800000000E+01 0.  1.
        -11    1    4    4    0    0  0.66632023735E+01 -0.10569042408E+02 -0.15301551130E+02  0.19754503037E+02  0.00000000000E+00 0.  1.
         11    1    4    4    0    0 -0.53177510188E+02 -0.70768360262E+02  0.11008049995E+03  0.14125765421E+03  0.00000000000E+00 0. -1.
</event>
<event>
 8    1  0.3719512E-009  0.1105470E+03  0.7561462E-02  0.1259560E+00
         -2   -1    0    0    0  501 -0.00000000000E+00  0.00000000000E+00  0.19228907481E+02  0.19228907481E+02  0.00000000000E+00 0.  1.
          2   -1    0    0  501    0  0.00000000000E+00 -0.00000000000E+00 -0.72313490390E+03  0.72313490390E+03  0.00000000000E+00 0. -1.
         25    2    1    2    0    0  0.42213300801E+02  0.12655028867E+02 -0.41198637494E+03  0.43280783796E+03  0.12509092272E+03 0.  0.
         23    2    1    2    0    0 -0.42213300801E+02 -0.12655028867E+02 -0.29191962148E+03  0.30955597342E+03  0.93089863863E+02 0.  0.
          5    1    3    3  502    0  0.22376310035E+02  0.68806516258E+02 -0.24356628495E+03  0.25412013595E+03  0.41800000000E+01 0.  1.
         -5    1    3    3    0  502  0.19836990765E+02 -0.56151487392E+02 -0.16842008999E+03  0.17868770202E+03  0.41800000000E+01 0.  1.
        -11    1    4    4    0    0 -0.39669325893E+00 -0.39322541704E+02 -0.21110318878E+03  0.21473466410E+03  0.00000000000E+00 0. -1.
         11    1    4    4    0    0 -0.41816607542E+02  0.26667512837E+02 -0.80816432701E+02  0.94821309323E+02  0.00000000000E+00 0.  1.
</event>
<event>
 8    1  0.3719512E-009  0.1336916E+03  0.7561462E-02  0.1222079E+00
         -2   -1    0    0    0  501 -0.00000000000E+00  0.00000000000E+00  0.18043284532E+03  0.18043284532E+03  0.00000000000E+00 0.  1.
          2   -1    0    0  501    0  0.00000000000E+00 -0.00000000000E+00 -0.11085344143E+03  0.11085344143E+03  0.00000000000E+00 0. -1.
         25    2    1    2    0    0  0.17835905325E+02 -0.88814648345E+02  0.46027042850E+02  0.16115283902E+03  0.12508232318E+03 0.  0.
         23    2    1    2    0    0 -0.17835905325E+02  0.88814648345E+02  0.23552361043E+02  0.13013344773E+03  0.90409287281E+02 0.  0.
          5    1    3    3  502    0 -0.31431421304E+02  0.11641928795E+02 -0.10970288564E+02  0.35514622094E+02  0.41800000000E+01 0.  1.
         -5    1    3    3    0  502  0.49267326630E+02 -0.10045657714E+03  0.56997331414E+02  0.12563821693E+03  0.41800000000E+01 0.  1.
        -11    1    4    4    0    0  0.30538511039E+02  0.16709191122E+02  0.25712794497E+02  0.43277540657E+02  0.00000000000E+00 0.  1.
         11    1    4    4    0    0 -0.48374416365E+02  0.72105457223E+02 -0.21604334541E+01  0.86855907068E+02  0.00000000000E+00 0. -1.
</event>
<event>
 8    1  0.3719512E-009  0.1439101E+03  0.7561462E-02  0.1208162E+00
          3   -1    0    0  501    0  0.00000000000E+00  0.00000000000E+00  0.66270102499E+03  0.66270102499E+03  0.00000000000E+00 0. -1.
         -3   -1    0    0    0  501 -0.00000000000E+00 -0.00000000000E+00 -0.46312016351E+02  0.46312016351E+02  0.00000000000E+00 0.  1.
         25    2    1    2    0    0 -0.12345896911E+03 -0.27631510423E+02  0.42551981868E+03  0.46121476007E+03  0.12508525653E+03 0.  0.
         23    2    1    2    0    0  0.12345896911E+03  0.27631510423E+02  0.19086918996E+03  0.24779828127E+03  0.94695950820E+02 0.  0.
          5    1    3    3  502    0 -0.13347952847E+03 -0.41284132486E+02  0.42040935344E+03  0.44303799045E+03  0.41800000000E+01 0.  1.
         -5    1    3    3    0  502  0.10020559364E+02  0.13652622063E+02  0.51104652350E+01  0.18176769627E+02  0.41800000000E+01 0.  1.
        -11    1    4    4    0    0  0.60431877173E+02  0.30115306723E+02  0.27916071418E+02  0.73063332261E+02  0.00000000000E+00 0.  1.
         11    1    4    4    0    0  0.63027091935E+02 -0.24837962998E+01  0.16295311854E+03  0.17473494901E+03  0.00000000000E+00 0. -1.
</event>
<event>
 8    1  0.3719512E-009  0.9150083E+02  0.7561462E-02  0.1299257E+00
         -3   -1    0    0    0  501 -0.00000000000E+00  0.00000000000E+00  0.44036151035E+02  0.44036151035E+02  0.00000000000E+00 0.  1.
          3   -1    0    0  501    0  0.00000000000E+00 -0.00000000000E+00 -0.32378734878E+03  0.32378734878E+03  0.00000000000E+00 0. -1.
         25    2    1    2    0    0 -0.38031681219E+02  0.14535287460E+01 -0.10134522432E+03  0.16542945575E+03  0.12509008281E+03 0.  0.
         23    2    1    2    0    0  0.38031681219E+02 -0.14535287460E+01 -0.17840597343E+03  0.20239404406E+03  0.87670611922E+02 0.  0.
          5    1    3    3  502    0  0.35902881049E+02  0.16666133817E+02 -0.10279789308E+01  0.39815901656E+02  0.41800000000E+01 0.  1.
         -5    1    3    3    0  502 -0.73934562268E+02 -0.15212605071E+02 -0.10031724539E+03  0.12561355410E+03  0.41800000000E+01 0.  1.
        -11    1    4    4    0    0  0.10704732000E+01 -0.24184657459E+02 -0.64571207251E+01  0.25054699706E+02  0.00000000000E+00 0.  1.
         11    1    4    4    0    0  0.36961208019E+02  0.22731128713E+02 -0.17194885270E+03  0.17733934435E+03  0.00000000000E+00 0. -1.
</event>
<event>
 8    1  0.3719512E-009  0.6883218E+02  0.7561462E-02  0.1364110E+00
         -1   -1    0    0    0  501 -0.00000000000E+00  0.00000000000E+00  0.35490877595E+03  0.35490877595E+03  0.00000000000E+00 0.  1.
          1   -1    0    0  501    0  0.00000000000E+00 -0.00000000000E+00 -0.33414538606E+02  0.33414538606E+02  0.00000000000E+00 0. -1.
         25    2    1    2    0    0 -0.11692721372E+02  0.21813628230E+00  0.18054613848E+03  0.21995734601E+03  0.12509020197E+03 0.  0.
         23    2    1    2    0    0  0.11692721372E+02 -0.21813628230E+00  0.14094809886E+03  0.16836596854E+03  0.91345308979E+02 0.  0.
          5    1    3    3  502    0  0.26228423136E+01  0.37331584896E+02  0.27931071351E+01  0.37759771982E+02  0.41800000000E+01 0. -1.
         -5    1    3    3    0  502 -0.14315563686E+02 -0.37113448614E+02  0.17775303134E+03  0.18219757403E+03  0.41800000000E+01 0. -1.
        -11    1    4    4    0    0 -0.18795889025E+02  0.16699311551E+02  0.12912232888E+03  0.13154743733E+03  0.00000000000E+00 0.  1.
         11    1    4    4    0    0  0.30488610397E+02 -0.16917447834E+02  0.11825769980E+02  0.36818531215E+02  0.00000000000E+00 0. -1.
</event>
<event>
 8    1  0.3719512E-009  0.2560790E+03  0.7561462E-02  0.1109522E+00
          1   -1    0    0  501    0  0.00000000000E+00  0.00000000000E+00  0.88817074390E+03  0.88817074390E+03  0.00000000000E+00 0. -1.
         -1   -1    0    0    0  501 -0.00000000000E+00 -0.00000000000E+00 -0.81041043552E+02  0.81041043552E+02  0.00000000000E+00 0.  1.
         25    2    1    2    0    0 -0.85282164541E+02  0.22205977499E+03  0.30452603545E+03  0.40616103375E+03  0.12508832003E+03 0.  0.
         23    2    1    2    0    0  0.85282164541E+02 -0.22205977499E+03  0.50260366490E+03  0.56305075370E+03  0.88499243041E+02 0.  0.
          5    1    3    3  502    0 -0.61332066757E+02  0.23376882118E+03  0.27638858467E+03  0.36717517115E+03  0.41800000000E+01 0.  1.
         -5    1    3    3    0  502 -0.23950097784E+02 -0.11709046187E+02  0.28137450778E+02  0.38985862601E+02  0.41800000000E+01 0.  1.
        -11    1    4    4    0    0  0.10441390821E+02 -0.98113485042E+02  0.12926001221E+03  0.16261435775E+03  0.00000000000E+00 0.  1.
         11    1    4    4    0    0  0.74840773720E+02 -0.12394628995E+03  0.37334365269E+03  0.40043639595E+03  0.00000000000E+00 0. -1.
</event>
<event>
 8    1  0.3719512E-009  0.1146459E+03  0.7561462E-02  0.1252200E+00
          1   -1    0    0  501    0  0.00000000000E+00  0.00000000000E+00  0.28655193891E+03  0.28655193891E+03  0.00000000000E+00 0. -1.
         -1   -1    0    0    0  501 -0.00000000000E+00 -0.00000000000E+00 -0.91518990123E+02  0.91518990123E+02  0.00000000000E+00 0.  1.
         25    2    1    2    0    0 -0.14992704376E+02 -0.59269452268E+02  0.22232906165E+03  0.26232800906E+03  0.12509245991E+03 0.  0.
         23    2    1    2    0    0  0.14992704376E+02  0.59269452268E+02 -0.27296112860E+02  0.11574291998E+03  0.94412375198E+02 0.  0.
          5    1    3    3  502    0 -0.33403157960E+02  0.19426204692E+02  0.14599196881E+03  0.15107705235E+03  0.41800000000E+01 0.  1.
         -5    1    3    3    0  502  0.18410453583E+02 -0.78695656959E+02  0.76337092843E+02  0.11125095671E+03  0.41800000000E+01 0.  1.
        -11    1    4    4    0    0  0.25851639634E+02  0.81096645677E+02 -0.96818780212E+01  0.85666282596E+02  0.00000000000E+00 0.  1.
         11    1    4    4    0    0 -0.10858935257E+02 -0.21827193410E+02 -0.17614234839E+02  0.30076637379E+02  0.00000000000E+00 0. -1.
</event>
<event>
 8    1  0.3719512E-009  0.1414584E+03  0.7561462E-02  0.1211380E+00
         -1   -1    0    0    0  501 -0.00000000000E+00  0.00000000000E+00  0.30524824913E+02  0.30524824913E+02  0.00000000000E+00 0.  1.
          1   -1    0    0  501    0  0.00000000000E+00 -0.00000000000E+00 -0.73238365430E+03  0.73238365430E+03  0.00000000000E+00 0. -1.
         25    2    1    2    0    0  0.47476860564E+02 -0.82955009645E+02 -0.28540046277E+03  0.32593917907E+03  0.12508932165E+03 0.  0.
         23    2    1    2    0    0 -0.47476860564E+02  0.82955009645E+02 -0.41645836662E+03  0.43696930014E+03  0.91482305526E+02 0.  0.
          5    1    3    3  502    0  0.37858737470E+02  0.24407101674E+02 -0.52714103322E+02  0.69463945353E+02  0.41800000000E+01 0.  1.
         -5    1    3    3    0  502  0.96181230934E+01 -0.10736211132E+03 -0.23268635944E+03  0.25647523372E+03  0.41800000000E+01 0.  1.
        -11    1    4    4    0    0 -0.44221313045E+02  0.10163799137E+03 -0.31968704041E+03  0.33835722192E+03  0.00000000000E+00 0.  1.
         11    1    4    4    0    0 -0.32555475191E+01 -0.18682981721E+02 -0.96771326206E+02  0.98612078223E+02  0.00000000000E+00 0. -1.
</event>
<event>
 8    1  0.3719512E-009  0.1130147E+03  0.7561462E-02  0.1255087E+00
         -3   -1    0    0    0  501 -0.00000000000E+00  0.00000000000E+00  0.43371633651E+02  0.43371633651E+02  0.00000000000E+00 0.  1.
          3   -1    0    0  501    0  0.00000000000E+00 -0.00000000000E+00 -0.51909610536E+03  0.51909610536E+03  0.00000000000E+00 0. -1.
         25    2    1    2    0    0 -0.43152652907E+02 -0.76431062243E+02 -0.36034635392E+03  0.39141183089E+03  0.12509943185E+03 0.  0.
         23    2    1    2    0    0  0.43152652907E+02  0.76431062243E+02 -0.11537811778E+03  0.17105590812E+03  0.90797328758E+02 0.  0.
          5    1    3    3  502    0 -0.61512075205E+02 -0.85584851840E+02 -0.35422904564E+03  0.36960004252E+03  0.41800000000E+01 0. -1.
         -5    1    3    3    0  502  0.18359422299E+02  0.91537895973E+01 -0.61173082849E+01  0.21811788367E+02  0.41800000000E+01 0. -1.
        -11    1    4    4    0    0  0.13374958251E+02 -0.39071494205E+01  0.11425696306E+02  0.18019485589E+02  0.00000000000E+00 0.  1.
         11    1    4    4    0    0  0.29777694656E+02  0.80338211663E+02 -0.12680381409E+03  0.15303642253E+03  0.00000000000E+00 0. -1.
</event>
<event>
 8    1  0.3719512E-009  0.1154086E+03  0.7561462E-02  0.1250870E+00
          3   -1    0    0  501    0  0.00000000000E+00  0.00000000000E+00  0.16018429673E+02  0.16018429673E+02  0.00000000000E+00 0. -1.
         -3   -1    0    0    0  501 -0.00000000000E+00 -0.00000000000E+00 -0.16384731871E+04  0.16384731871E+04  0.00000000000E+00 0.  1.
         25    2    1    2    0    0 -0.49521996119E+01  0.73356563499E+02 -0.13564780402E+04  0.13642163424E+04  0.12509134882E+03 0.  0.
         23    2    1    2    0    0  0.49521996119E+01 -0.73356563499E+02 -0.26597671722E+03  0.29027527439E+03  0.90057821061E+02 0.  0.
          5    1    3    3  502    0  0.18360521055E+02 -0.23512380854E+02 -0.65423028236E+03  0.65492341196E+03  0.41800000000E+01 0. -1.
         -5    1    3    3    0  502 -0.23312720667E+02  0.96868944353E+02 -0.70224775789E+03  0.70929293045E+03  0.41800000000E+01 0. -1.
        -11    1    4    4    0    0  0.23825680386E+02 -0.77981220785E+02 -0.25550692020E+03  0.26820238647E+03  0.00000000000E+00 0.  1.
         11    1    4    4    0    0 -0.18873480774E+02  0.46246572864E+01 -0.10469797017E+02  0.22072887920E+02  0.00000000000E+00 0. -1.
</event>
<event>
 8    1  0.3719512E-009  0.8531535E+02  0.7561462E-02  0.1314610E+00
         -4   -1    0    0    0  501 -0.00000000000E+00  0.00000000000E+00  0.19191004381E+02  0.19191004381E+02  0.00000000000E+00 0.  1.
          4   -1    0    0  501    0  0.00000000000E+00 -0.00000000000E+00 -0.69745621883E+03  0.69745621883E+03  0.00000000000E+00 0. -1.
         25    2    1    2    0    0 -0.77753298909E+01  0.24932427853E+02 -0.29068890020E+03  0.31753733035E+03  0.12509131767E+03 0.  0.
         23    2    1    2    0    0  0.77753298909E+01 -0.24932427853E+02 -0.38757631425E+03  0.39910989286E+03  0.91603632542E+02 0.  0.
          5    1    3    3  502    0 -0.61676662889E+01 -0.25726068778E+02 -0.25255735549E+03  0.25397354377E+03  0.41800000000E+01 0. -1.
         -5    1    3    3    0  502 -0.16076636020E+01  0.50658496632E+02 -0.38131544710E+02  0.63563786587E+02  0.41800000000E+01 0. -1.
        -11    1    4    4    0    0 -0.33271834189E+02 -0.37433522463E+02 -0.25114964861E+03  0.25609457150E+03  0.00000000000E+00 0. -1.
         11    1    4    4    0    0  0.41047164080E+02  0.12501094610E+02 -0.13642666565E+03  0.14301532136E+03  0.00000000000E+00 0.  1.
</event>
<event>
 8    1  0.3719512E-009  0.3715728E+03  0.7561462E-02  0.1054093E+00
          2   -1    0    0  501    0  0.00000000000E+00  0.00000000000E+00  0.10653911989E+04  0.10653911989E+04  0.00000000000E+00 0.  1.
         -2   -1    0    0    0  501 -0.00000000000E+00 -0.00000000000E+00 -0.13698756469E+03  0.13698756469E+03  0.00000000000E+00 0. -1.
         25    2    1    2    0    0 -0.13964950969E+03  0.33251392706E+03  0.56716725350E+03  0.68366207394E+03  0.12509052982E+03 0.  0.
         23    2    1    2    0    0  0.13964950969E+03 -0.33251392706E+03  0.36123638069E+03  0.51871668963E+03  0.92237650213E+02 0.  0.
          5    1    3    3  502    0 -0.10747367654E+03  0.10000088873E+03  0.22588082052E+03  0.26942603136E+03  0.41800000000E+01 0. -1.
         -5    1    3    3    0  502 -0.32175833149E+02  0.23251303833E+03  0.34128643298E+03  0.41423604258E+03  0.41800000000E+01 0. -1.
        -11    1    4    4    0    0  0.13601892141E+02 -0.56032666822E+02  0.11099806130E+03  0.12508093713E+03  0.00000000000E+00 0. -1.
         11    1    4    4    0    0  0.12604761755E+03 -0.27648126024E+03  0.25023831939E+03  0.39363575250E+03  0.00000000000E+00 0.  1.
</event>
<event>
 8    1  0.3719512E-009  0.7712451E+02  0.7561462E-02  0.1337416E+00
          3   -1    0    0  501    0  0.00000000000E+00  0.00000000000E+00  0.75684970074E+03  0.75684970074E+03  0.00000000000E+00 0. -1.
         -3   -1    0    0    0  501 -0.00000000000E+00 -0.00000000000E+00 -0.24618021925E+02  0.24618021925E+02  0.00000000000E+00 0.  1.
         25    2    1    2    0    0  0.13160301395E+02  0.33440758555E+02  0.62522437771E+03  0.63862955897E+03  0.12510281071E+03 0.  0.
         23    2    1    2    0    0 -0.13160301395E+02 -0.33440758555E+02  0.10700730111E+03  0.14283816369E+03  0.87525428598E+02 0.  0.
          5    1    3    3  502    0  0.34138761583E+01 -0.22212656281E+02  0.50716627359E+03  0.50768115793E+03  0.41800000000E+01 0. -1.
         -5    1    3    3    0  502  0.97464252367E+01  0.55653414837E+02  0.11805810411E+03  0.13094840104E+03  0.41800000000E+01 0. -1.
        -11    1    4    4    0    0  0.26731305315E+02 -0.16363334473E+02  0.46789970659E+01  0.31689342253E+02  0.00000000000E+00 0.  1.
         11    1    4    4    0    0 -0.39891606710E+02 -0.17077424082E+02  0.10232830404E+03  0.11114882144E+03  0.00000000000E+00 0. -1.
</event>
<event>
 8    1  0.3719512E-009  0.1779304E+03  0.7561462E-02  0.1169821E+00
          1   -1    0    0  501    0  0.00000000000E+00  0.00000000000E+00  0.51268495664E+03  0.51268495664E+03  0.00000000000E+00 0. -1.
         -1   -1    0    0    0  501 -0.00000000000E+00 -0.00000000000E+00 -0.67922137468E+02  0.67922137468E+02  0.00000000000E+00 0.  1.
         25    2    1    2    0    0  0.12645160194E+03 -0.83987986522E+02  0.23546550178E+03  0.30681487526E+03  0.12508947052E+03 0.  0.
         23    2    1    2    0    0 -0.12645160194E+03  0.83987986522E+02  0.20929731739E+03  0.27379221886E+03  0.90071208082E+02 0.  0.
          5    1    3    3  502    0  0.46731630128E+02 -0.87911879708E+02  0.19080233653E+03  0.21525646999E+03  0.41800000000E+01 0. -1.
         -5    1    3    3    0  502  0.79719971814E+02  0.39238931865E+01  0.44663165253E+02  0.91558405262E+02  0.41800000000E+01 0. -1.
        -11    1    4    4    0    0 -0.10202830250E+03  0.15027909553E+02  0.12922766878E+03  0.16533421593E+03  0.00000000000E+00 0. -1.
         11    1    4    4    0    0 -0.24423299438E+02  0.68960076969E+02  0.80069648610E+02  0.10845800293E+03  0.00000000000E+00 0.  1.
</event>
<event>
 8    1  0.3719512E-009  0.1080386E+03  0.7561462E-02  0.1264246E+00
          1   -1    0    0  501    0  0.00000000000E+00  0.00000000000E+00  0.19633325040E+03  0.19633325040E+03  0.00000000000E+00 0. -1.
         -1   -1    0    0    0  501 -0.00000000000E+00 -0.00000000000E+00 -0.85773623387E+02  0.85773623387E+02  0.00000000000E+00 0.  1.
         25    2    1    2    0    0  0.39162873516E+02  0.54812485017E+02  0.60224804820E+02  0.15431446986E+03  0.12509112405E+03 0.  0.
         23    2    1    2    0    0 -0.39162873516E+02 -0.54812485017E+02  0.50334822192E+02  0.12779240393E+03  0.96224555082E+02 0.  0.
          5    1    3    3  502    0 -0.31172643531E+01 -0.30983018796E+02  0.48601309074E+02  0.57872484260E+02  0.41800000000E+01 0. -1.
         -5    1    3    3    0  502  0.42280137869E+02  0.85795503813E+02  0.11623495745E+02  0.96441985598E+02  0.41800000000E+01 0. -1.
        -11    1    4    4    0    0  0.11762357256E+02 -0.30096425062E+02 -0.19620395859E+02  0.37803541942E+02  0.00000000000E+00 0.  1.
         11    1    4    4    0    0 -0.50925230772E+02 -0.24716059955E+02  0.69955218051E+02  0.89988861985E+02  0.00000000000E+00 0. -1.
</event>
<event>
 8    1  0.3719512E-009  0.1971239E+03  0.7561462E-02  0.1152188E+00
          1   -1    0    0  501    0  0.00000000000E+00  0.00000000000E+00  0.78962153082E+02  0.78962153082E+02  0.00000000000E+00 0. -1.
         -1   -1    0    0    0  501 -0.00000000000E+00 -0.00000000000E+00 -0.75543476968E+03  0.75543476968E+03  0.00000000000E+00 0.  1.
         25    2    1    2    0    0  0.52662821467E+02 -0.16686017218E+03 -0.12524747751E+03  0.24889841586E+03  0.12509117063E+03 0.  0.
         23    2    1    2    0    0 -0.52662821467E+02  0.16686017218E+03 -0.55122513909E+03  0.58549850690E+03  0.91343624802E+02 0.  0.
          5    1    3    3  502    0  0.87710987219E+02 -0.14499889353E+03 -0.79855708387E+02  0.18738277126E+03  0.41800000000E+01 0.  1.
         -5    1    3    3    0  502 -0.35048165751E+02 -0.21861278656E+02 -0.45391769119E+02  0.61515644602E+02  0.41800000000E+01 0.  1.
        -11    1    4    4    0    0  0.10979000245E+02  0.37056282365E+02 -0.46431223898E+02  0.60411630186E+02  0.00000000000E+00 0. -1.
         11    1    4    4    0    0 -0.63641821712E+02  0.12980388982E+03 -0.50479391519E+03  0.52508687672E+03  0.00000000000E+00 0.  1.
</event>
<event>
 8    1  0.3719512E-009  0.2203439E+03  0.7561462E-02  0.1133627E+00
          2   -1    0    0  501    0  0.00000000000E+00  0.00000000000E+00  0.44174131803E+03  0.44174131803E+03  0.00000000000E+00 0. -1.
         -2   -1    0    0    0  501 -0.00000000000E+00 -0.00000000000E+00 -0.11894341355E+03  0.11894341355E+03  0.00000000000E+00 0.  1.
         25    2    1    2    0    0 -0.34428588393E+02 -0.19140349577E+03  0.10124599243E+03  0.25242799581E+03  0.12509402941E+03 0.  0.
         23    2    1    2    0    0  0.34428588393E+02  0.19140349577E+03  0.22155191205E+03  0.30825673577E+03  0.90090729414E+02 0.  0.
          5    1    3    3  502    0  0.23133582892E+02 -0.16210516398E+03  0.89463084074E+02  0.18663965993E+03  0.41800000000E+01 0.  1.
         -5    1    3    3    0  502 -0.57562171285E+02 -0.29298331789E+02  0.11782908359E+02  0.65788335882E+02  0.41800000000E+01 0.  1.
        -11    1    4    4    0    0 -0.21453008725E+02  0.11786096931E+03  0.14649224934E+03  0.18923905196E+03  0.00000000000E+00 0. -1.
         11    1    4    4    0    0  0.55881597118E+02  0.73542526459E+02  0.75059662705E+02  0.11901768381E+03  0.00000000000E+00 0.  1.
</event>
<event>
 8    1  0.3719512E-009  0.1124445E+03  0.7561462E-02  0.1256109E+00
          1   -1    0    0  501    0  0.00000000000E+00  0.00000000000E+00  0.40505575323E+03  0.40505575323E+03  0.00000000000E+00 0.  1.
         -1   -1    0    0    0  501 -0.00000000000E+00 -0.00000000000E+00 -0.62411330110E+02  0.62411330110E+02  0.00000000000E+00 0. -1.
         25    2    1    2    0    0  0.19368940714E+02 -0.39356016007E+02  0.25964461239E+02  0.13507302657E+03  0.12508603999E+03 0.  0.
         23    2    1    2    0    0 -0.19368940714E+02  0.39356016007E+02  0.31667996188E+03  0.33239405677E+03  0.90970098691E+02 0.  0.
          5    1    3    3  502    0 -0.47093458438E+02  0.10179127437E+02  0.88565512727E+00  0.48370086294E+02  0.41800000000E+01 0. -1.
         -5    1    3    3    0  502  0.66462399152E+02 -0.49535143444E+02  0.25078806111E+02  0.86702940279E+02  0.41800000000E+01 0. -1.
        -11    1    4    4    0    0  0.32689187645E+02  0.12984834481E+02  0.63652941919E+02  0.72724727090E+02  0.00000000000E+00 0. -1.
         11    1    4    4    0    0 -0.52058128359E+02  0.26371181526E+02  0.25302701996E+03  0.25966932968E+03  0.00000000000E+00 0.  1.
</event>
<event>
 8    1  0.3719512E-009  0.1872481E+03  0.7561462E-02  0.1160967E+00
          1   -1    0    0  501    0  0.00000000000E+00  0.00000000000E+00  0.25215837952E+04  0.25215837952E+04  0.00000000000E+00 0.  1.
         -1   -1    0    0    0  501 -0.00000000000E+00 -0.00000000000E+00 -0.19703320359E+02  0.19703320359E+02  0.00000000000E+00 0. -1.
         25    2    1    2    0    0  0.46142818987E+02  0.16919646534E+03  0.17763579340E+04  0.17893718809E+04  0.12509042582E+03 0.  0.
         23    2    1    2    0    0 -0.46142818987E+02 -0.16919646534E+03  0.72552254079E+03  0.75191523466E+03  0.90757695548E+02 0.  0.
          5    1    3    3  502    0  0.10386074020E+02  0.13790502926E+03  0.80200007926E+03  0.81384720136E+03  0.41800000000E+01 0.  1.
         -5    1    3    3    0  502  0.35756744967E+02  0.31291436085E+02  0.97435785478E+03  0.97552467952E+03  0.41800000000E+01 0.  1.
        -11    1    4    4    0    0  0.96325862733E+01 -0.95656071887E+02  0.48185802492E+03  0.49135529608E+03  0.00000000000E+00 0.  1.
         11    1    4    4    0    0 -0.55775405261E+02 -0.73540393455E+02  0.24366451587E+03  0.26055993858E+03  0.00000000000E+00 0. -1.
</event>
<event>
 8    1  0.3719512E-009  0.5046104E+02  0.7561462E-02  0.1442871E+00
         -1   -1    0    0    0  501 -0.00000000000E+00  0.00000000000E+00  0.11254828595E+03  0.11254828595E+03  0.00000000000E+00 0.  1.
          1   -1    0    0  501    0  0.00000000000E+00 -0.00000000000E+00 -0.12396268745E+03  0.12396268745E+03  0.00000000000E+00 0. -1.
         25    2    1    2    0    0  0.27206820110E+01  0.16683791068E+02 -0.51581337377E+02  0.13636036027E+03  0.12509101683E+03 0.  0.
         23    2    1    2    0    0 -0.27206820110E+01 -0.16683791068E+02  0.40166935873E+02  0.10015061313E+03  0.90172121960E+02 0.  0.
          5    1    3    3  502    0  0.23731749413E+02  0.12981232441E+02 -0.88983885905E+02  0.93098403191E+02  0.41800000000E+01 0.  1.
         -5    1    3    3    0  502 -0.21011067402E+02  0.37025586267E+01  0.37402548528E+02  0.43261957077E+02  0.41800000000E+01 0.  1.
        -11    1    4    4    0    0  0.20601447382E+02 -0.19440701464E+02 -0.20586163304E+02  0.35016433674E+02  0.00000000000E+00 0. -1.
         11    1    4    4    0    0 -0.23322129393E+02  0.27569103961E+01  0.60753099178E+02  0.65134179461E+02  0.00000000000E+00 0.  1.
</event>
<event>
 8    1  0.3719512E-009  0.1315955E+03  0.7561462E-02  0.1225107E+00
         -2   -1    0    0    0  501 -0.00000000000E+00  0.00000000000E+00  0.23362517477E+03  0.23362517477E+03  0.00000000000E+00 0.  1.
          2   -1    0    0  501    0  0.00000000000E+00 -0.00000000000E+00 -0.18696036823E+03  0.18696036823E+03  0.00000000000E+00 0. -1.
         25    2    1    2    0    0 -0.56859084897E+02  0.93726362332E+02 -0.11697009403E+03  0.20333898325E+03  0.12508857934E+03 0.  0.
         23    2    1    2    0    0  0.56859084897E+02 -0.93726362332E+02  0.16363490058E+03  0.21724655975E+03  0.91662972381E+02 0.  0.
          5    1    3    3  502    0  0.15120877365E+02 -0.14533248101E+02 -0.55491821194E+02  0.59469915521E+02  0.41800000000E+01 0. -1.
         -5    1    3    3    0  502 -0.71979962261E+02  0.10825961043E+03 -0.61478272838E+02  0.14386906773E+03  0.41800000000E+01 0. -1.
        -11    1    4    4    0    0  0.25114364458E+02 -0.22361140800E+02  0.12625379629E+03  0.13065516827E+03  0.00000000000E+00 0.  1.
         11    1    4    4    0    0  0.31744720438E+02 -0.71365221531E+02  0.37381104290E+02  0.86591391477E+02  0.00000000000E+00 0. -1.
</event>
<event>
 8    1  0.3719512E-009  0.1048940E+03  0.7561462E-02  0.1270329E+00
          2   -1    0    0  501    0  0.00000000000E+00  0.00000000000E+00  0.70390156213E+03  0.70390156213E+03  0.00000000000E+00 0. -1.
         -2   -1    0    0    0  501 -0.00000000000E+00 -0.00000000000E+00 -0.28044898857E+02  0.28044898857E+02  0.00000000000E+00 0.  1.
         25    2    1    2    0    0  0.95829837264E+01  0.84417464517E+02  0.44393808272E+03  0.46898478141E+03  0.12509021551E+03 0.  0.
         23    2    1    2    0    0 -0.95829837264E+01 -0.84417464517E+02  0.23191858055E+03  0.26296167957E+03  0.90246745239E+02 0.  0.
          5    1    3    3  502    0 -0.16835246761E+02 -0.14229154417E+02  0.12660568930E+02  0.25761536727E+02  0.41800000000E+01 0.  1.
         -5    1    3    3    0  502  0.26418230487E+02  0.98646618933E+02  0.43127751379E+03  0.44322324469E+03  0.41800000000E+01 0.  1.
        -11    1    4    4    0    0 -0.69879880484E+01 -0.36919284093E+02  0.14298699815E+02  0.40203461683E+02  0.00000000000E+00 0.  1.
         11    1    4    4    0    0 -0.25949956780E+01 -0.47498180424E+02  0.21761988073E+03  0.22275821789E+03  0.00000000000E+00 0. -1.
</event>
<event>
 8    1  0.3719512E-009  0.1009087E+03  0.7561462E-02  0.1278397E+00
          2   -1    0    0  501    0  0.00000000000E+00  0.00000000000E+00  0.10459866866E+03  0.10459866866E+03  0.00000000000E+00 0. -1.
         -2   -1    0    0    0  501 -0.00000000000E+00 -0.00000000000E+00 -0.14212882031E+03  0.14212882031E+03  0.00000000000E+00 0.  1.
         25    2    1    2    0    0 -0.32416510934E+02  0.55770041293E+01  0.24866526804E+02  0.13171128538E+03  0.12509030892E+03 0.  0.
         23    2    1    2    0    0  0.32416510934E+02 -0.55770041293E+01 -0.62396678451E+02  0.11501620359E+03  0.90848491734E+02 0.  0.
          5    1    3    3  502    0 -0.11627386321E+02 -0.49354854612E+02  0.46553042524E+02  0.68961989201E+02  0.41800000000E+01 0.  1.
         -5    1    3    3    0  502 -0.20789124613E+02  0.54931858741E+02 -0.21686515719E+02  0.62749296179E+02  0.41800000000E+01 0.  1.
        -11    1    4    4    0    0 -0.55446990880E+00  0.37670401447E+02 -0.43259464537E+02  0.57365040347E+02  0.00000000000E+00 0.  1.
         11    1    4    4    0    0  0.32970980843E+02 -0.43247405576E+02 -0.19137213914E+02  0.57651163242E+02  0.00000000000E+00 0. -1.
</event>
<event>
 8    1  0.3719512E-009  0.7345977E+02  0.7561462E-02  0.1348708E+00
         -4   -1    0    0    0  501 -0.00000000000E+00  0.00000000000E+00  0.47227661568E+02  0.47227661568E+02  0.00000000000E+00 0.  1.
          4   -1    0    0  501    0  0.00000000000E+00 -0.00000000000E+00 -0.27795515014E+03  0.27795515014E+03  0.00000000000E+00 0. -1.
         25    2    1    2    0    0 -0.81953007323E+01  0.29957041068E+02 -0.10892534115E+03  0.16875118625E+03  0.12509054981E+03 0.  0.
         23    2    1    2    0    0  0.81953007323E+01 -0.29957041068E+02 -0.12180214742E+03  0.15643162546E+03  0.93115536099E+02 0.  0.
          5    1    3    3  502    0  0.86408490300E+01 -0.31560956869E+02  0.93692073229E+01  0.34293041806E+02  0.41800000000E+01 0.  1.
         -5    1    3    3    0  502 -0.16836149762E+02  0.61517997937E+02 -0.11829454847E+03  0.13445814444E+03  0.41800000000E+01 0.  1.
        -11    1    4    4    0    0  0.23811557244E+02 -0.13698605730E+02 -0.12967518873E+03  0.13255299555E+03  0.00000000000E+00 0. -1.
         11    1    4    4    0    0 -0.15616256512E+02 -0.16258435338E+02  0.78730413033E+01  0.23878629911E+02  0.00000000000E+00 0.  1.
</event>
<event>
 8    1  0.3719512E-009  0.1219583E+03  0.7561462E-02  0.1239901E+00
          2   -1    0    0  501    0  0.00000000000E+00  0.00000000000E+00  0.11158434438E+03  0.11158434438E+03  0.00000000000E+00 0.  1.
         -2   -1    0    0    0  501 -0.00000000000E+00 -0.00000000000E+00 -0.19507135203E+03  0.19507135203E+03  0.00000000000E+00 0. -1.
         25    2    1    2    0    0  0.13506127171E+02 -0.98787888841E+02 -0.54681170737E+02  0.16906014162E+03  0.12509931494E+03 0.  0.
         23    2    1    2    0    0 -0.13506127171E+02  0.98787888841E+02 -0.28805836916E+02  0.13759555479E+03  0.90339902617E+02 0.  0.
          5    1    3    3  502    0  0.33460379470E+02 -0.94864798398E+02 -0.85374502119E+02  0.13200456424E+03  0.41800000000E+01 0. -1.
         -5    1    3    3    0  502 -0.19954252298E+02 -0.39230904424E+01  0.30693331382E+02  0.37055577377E+02  0.41800000000E+01 0. -1.
        -11    1    4    4    0    0 -0.39889137365E+02  0.33612096280E+02  0.15586523076E+02  0.54441307825E+02  0.00000000000E+00 0.  1.
         11    1    4    4    0    0  0.26383010194E+02  0.65175792560E+02 -0.44392359991E+02  0.83154246965E+02  0.00000000000E+00 0. -1.
</event>
<event>
 8    1  0.3719512E-009  0.1071561E+03  0.7561462E-02  0.1265929E+00
         -2   -1    0    0    0  501 -0.00000000000E+00  0.00000000000E+00  0.13907857630E+03  0.13907857630E+03  0.00000000000E+00 0.  1.
          2   -1    0    0  501    0  0.00000000000E+00 -0.00000000000E+00 -0.11673571769E+03  0.11673571769E+03  0.00000000000E+00 0. -1.
         25    2    1    2    0    0 -0.61501926514E+02  0.26720558518E+02 -0.19107320315E+01  0.14193777194E+03  0.12508479122E+03 0.  0.
         23    2    1    2    0    0  0.61501926514E+02 -0.26720558518E+02  0.24253590638E+02  0.11387652205E+03  0.88787107192E+02 0.  0.
          5    1    3    3  502    0  0.38564131740E+02  0.11038534929E+02 -0.41208485260E+01  0.40540045668E+02  0.41800000000E+01 0.  1.
         -5    1    3    3    0  502 -0.10006605825E+03  0.15682023589E+02  0.22101164946E+01  0.10139772627E+03  0.41800000000E+01 0.  1.
        -11    1    4    4    0    0  0.30547372786E+02  0.16878559784E+01  0.54229867939E+02  0.62264511711E+02  0.00000000000E+00 0.  1.
         11    1    4    4    0    0  0.30954553727E+02 -0.28408414496E+02 -0.29976277301E+02  0.51612010341E+02  0.00000000000E+00 0. -1.
</event>
<event>
 8    1  0.3719512E-009  0.6904049E+02  0.7561462E-02  0.1363387E+00
          1   -1    0    0  501    0  0.00000000000E+00  0.00000000000E+00  0.41835199377E+02  0.41835199377E+02  0.00000000000E+00 0. -1.
         -1   -1    0    0    0  501 -0.00000000000E+00 -0.00000000000E+00 -0.31269001257E+03  0.31269001257E+03  0.00000000000E+00 0.  1.
         25    2    1    2    0    0 -0.19983533662E+02 -0.35781295681E+02 -0.15973163235E+03  0.20698339083E+03  0.12509311319E+03 0.  0.
         23    2    1    2    0    0  0.19983533662E+02  0.35781295681E+02 -0.11112318084E+03  0.14754182112E+03  0.87980593999E+02 0.  0.
          5    1    3    3  502    0 -0.87147040864E+01 -0.22344095520E+02 -0.17896989722E+03  0.18061810867E+03  0.41800000000E+01 0.  1.
         -5    1    3    3    0  502 -0.11268829576E+02 -0.13437200161E+02  0.19238264863E+02  0.26365282155E+02  0.41800000000E+01 0.  1.
        -11    1    4    4    0    0  0.51397714933E+02  0.38438645503E+02 -0.62448472288E+02  0.89549239302E+02  0.00000000000E+00 0. -1.
         11    1    4    4    0    0 -0.31414181271E+02 -0.26573498223E+01 -0.48674708555E+02  0.57992581818E+02  0.00000000000E+00 0.  1.
</event>
<event>
 8    1  0.3719512E-009  0.1594546E+03  0.7561462E-02  0.1189314E+00
          1   -1    0    0  501    0  0.00000000000E+00  0.00000000000E+00  0.38702100269E+03  0.38702100269E+03  0.00000000000E+00 0. -1.
         -1   -1    0    0    0  501 -0.00000000000E+00 -0.00000000000E+00 -0.74143220102E+02  0.74143220102E+02  0.00000000000E+00 0.  1.
         25    2    1    2    0    0  0.61356412190E+02  0.10366830535E+03  0.10224699378E+03  0.20152371779E+03  0.12508250974E+03 0.  0.
         23    2    1    2    0    0 -0.61356412190E+02 -0.10366830535E+03  0.21063078881E+03  0.25964050500E+03  0.92391210572E+02 0.  0.
          5    1    3    3  502    0 -0.35694693782E+02  0.53119786140E+02  0.36372773744E+02  0.73731091906E+02  0.41800000000E+01 0.  1.
         -5    1    3    3    0  502  0.97051105972E+02  0.50548519213E+02  0.65874220031E+02  0.12779262588E+03  0.41800000000E+01 0.  1.
        -11    1    4    4    0    0  0.18740008590E+02 -0.76826144015E+01  0.63070137073E+02  0.66242378251E+02  0.00000000000E+00 0.  1.
         11    1    4    4    0    0 -0.80096420780E+02 -0.95985690952E+02  0.14756065174E+03  0.19339812675E+03  0.00000000000E+00 0. -1.
</event>
<event>
 8    1  0.3719512E-009  0.1085179E+03  0.7561462E-02  0.1263339E+00
         -2   -1    0    0    0  501 -0.00000000000E+00  0.00000000000E+00  0.33660516859E+02  0.33660516859E+02  0.00000000000E+00 0.  1.
          2   -1    0    0  501    0  0.00000000000E+00 -0.00000000000E+00 -0.44215014433E+03  0.44215014433E+03  0.00000000000E+00 0. -1.
         25    2    1    2    0    0  0.33146739777E+02 -0.44405109406E+02 -0.20543383749E+03  0.24682095963E+03  0.12508798675E+03 0.  0.
         23    2    1    2    0    0 -0.33146739777E+02  0.44405109406E+02 -0.20305578998E+03  0.22898970156E+03  0.90189298007E+02 0.  0.
          5    1    3    3  502    0  0.15327444782E+02 -0.85901798772E+02 -0.10477245897E+03  0.13641403943E+03  0.41800000000E+01 0.  1.
         -5    1    3    3    0  502  0.17819294995E+02  0.41496689366E+02 -0.10066137852E+03  0.11040692020E+03  0.41800000000E+01 0.  1.
        -11    1    4    4    0    0 -0.13461484771E+02 -0.15931163885E+02 -0.56156181390E+01  0.21599738935E+02  0.00000000000E+00 0.  1.
         11    1    4    4    0    0 -0.19685255006E+02  0.60336273291E+02 -0.19744017184E+03  0.20738996262E+03  0.00000000000E+00 0. -1.
</event>
<event>
 8    1  0.3719512E-009  0.1376947E+03  0.7561462E-02  0.1216465E+00
          1   -1    0    0  501    0  0.00000000000E+00  0.00000000000E+00  0.22030516478E+03  0.22030516478E+03  0.00000000000E+00 0. -1.
         -1   -1    0    0    0  501 -0.00000000000E+00 -0.00000000000E+00 -0.10450102721E+03  0.10450102721E+03  0.00000000000E+00 0.  1.
         25    2    1    2    0    0 -0.70292128820E+02 -0.75226563145E+02  0.88336596854E+02  0.18452401840E+03  0.12508293187E+03 0.  0.
         23    2    1    2    0    0  0.70292128820E+02  0.75226563145E+02  0.27467540717E+02  0.14028217359E+03  0.91239263791E+02 0.  0.
          5    1    3    3  502    0 -0.36820874310E+02  0.23011984354E+02 -0.62196771337E+01  0.44062285376E+02  0.41800000000E+01 0. -1.
         -5    1    3    3    0  502 -0.33471254510E+02 -0.98238547499E+02  0.94556273988E+02  0.14046173302E+03  0.41800000000E+01 0. -1.
        -11    1    4    4    0    0  0.43196847330E+02 -0.47509979046E+01  0.34585489562E+02  0.55540036807E+02  0.00000000000E+00 0. -1.
         11    1    4    4    0    0  0.27095281491E+02  0.79977561050E+02 -0.71179488450E+01  0.84742136781E+02  0.00000000000E+00 0.  1.
</event>
<event>
 8    1  0.3719512E-009  0.1446980E+03  0.7561462E-02  0.1207144E+00
          2   -1    0    0  501    0  0.00000000000E+00  0.00000000000E+00  0.26776240021E+03  0.26776240021E+03  0.00000000000E+00 0. -1.
         -2   -1    0    0    0  501 -0.00000000000E+00 -0.00000000000E+00 -0.81923859973E+02  0.81923859973E+02  0.00000000000E+00 0.  1.
         25    2    1    2    0    0  0.71425974455E+02  0.68830136548E+02  0.78205521446E+02  0.17777276463E+03  0.12509114572E+03 0.  0.
         23    2    1    2    0    0 -0.71425974455E+02 -0.68830136548E+02  0.10763301880E+03  0.17191349555E+03  0.90167209637E+02 0.  0.
          5    1    3    3  502    0 -0.23879644615E+02  0.58931825761E+02  0.32367952203E+02  0.71472751761E+02  0.41800000000E+01 0.  1.
         -5    1    3    3    0  502  0.95305619070E+02  0.98983107868E+01  0.45837569244E+02  0.10630001287E+03  0.41800000000E+01 0.  1.
        -11    1    4    4    0    0 -0.72455180113E+02 -0.12622946051E+02  0.81934342501E+02  0.11010144583E+03  0.00000000000E+00 0. -1.
         11    1    4    4    0    0  0.10292056580E+01 -0.56207190497E+02  0.25698676295E+02  0.61812049725E+02  0.00000000000E+00 0.  1.
</event>
<event>
 8    1  0.3719512E-009  0.1789615E+03  0.7561462E-02  0.1168812E+00
         -2   -1    0    0    0  501 -0.00000000000E+00  0.00000000000E+00  0.11150275751E+03  0.11150275751E+03  0.00000000000E+00 0.  1.
          2   -1    0    0  501    0  0.00000000000E+00 -0.00000000000E+00 -0.35514561671E+03  0.35514561671E+03  0.00000000000E+00 0. -1.
         25    2    1    2    0    0 -0.14526900609E+03  0.28677279383E+02 -0.36953048813E+02  0.19732728156E+03  0.12508819987E+03 0.  0.
         23    2    1    2    0    0  0.14526900609E+03 -0.28677279383E+02 -0.20668981038E+03  0.26932109266E+03  0.88812739828E+02 0.  0.
          5    1    3    3  502    0 -0.16332832783E+03  0.44196328356E+02 -0.36513603817E+02  0.17314783792E+03  0.41800000000E+01 0. -1.
         -5    1    3    3    0  502  0.18059321739E+02 -0.15519048973E+02 -0.43944499522E+00  0.24179443638E+02  0.41800000000E+01 0. -1.
        -11    1    4    4    0    0  0.28815208885E+02 -0.37974205140E+02 -0.26403633407E+02  0.54493195687E+02  0.00000000000E+00 0.  1.
         11    1    4    4    0    0  0.11645379721E+03  0.92969257570E+01 -0.18028617697E+03  0.21482789698E+03  0.00000000000E+00 0. -1.
</event>
<event>
 8    1  0.3719512E-009  0.1422236E+03  0.7561462E-02  0.1210368E+00
          1   -1    0    0  501    0  0.00000000000E+00  0.00000000000E+00  0.10440499372E+03  0.10440499372E+03  0.00000000000E+00 0. -1.
         -1   -1    0    0    0  501 -0.00000000000E+00 -0.00000000000E+00 -0.27829153362E+03  0.27829153362E+03  0.00000000000E+00 0.  1.
         25    2    1    2    0    0  0.16834340860E+02 -0.11963890885E+03 -0.14966356216E+03  0.22944314875E+03  0.12509241834E+03 0.  0.
         23    2    1    2    0    0 -0.16834340860E+02  0.11963890885E+03 -0.24222977742E+02  0.15325337859E+03  0.91120699383E+02 0.  0.
          5    1    3    3  502    0 -0.22119362218E+02  0.12538214132E+02  0.26214928120E+00  0.25768471448E+02  0.41800000000E+01 0.  1.
         -5    1    3    3    0  502  0.38953703078E+02 -0.13217712298E+03 -0.14992571144E+03  0.20367467730E+03  0.41800000000E+01 0.  1.
        -11    1    4    4    0    0 -0.95680913044E+01  0.70209952440E+02 -0.59144060412E+02  0.92298459765E+02  0.00000000000E+00 0.  1.
         11    1    4    4    0    0 -0.72662495561E+01  0.49428956409E+02  0.34921082670E+02  0.60954918827E+02  0.00000000000E+00 0. -1.
</event>
<event>
 8    1  0.3719512E-009  0.2697003E+03  0.7561462E-02  0.1101451E+00
         -2   -1    0    0    0  501 -0.00000000000E+00  0.00000000000E+00  0.68385659753E+02  0.68385659753E+02  0.00000000000E+00 0.  1.
          2   -1    0    0  501    0  0.00000000000E+00 -0.00000000000E+00 -0.11247874359E+04  0.11247874359E+04  0.00000000000E+00 0. -1.
         25    2    1    2    0    0  0.27354979984E+02 -0.25185752354E+03 -0.47785247083E+03  0.55513084155E+03  0.12508701080E+03 0.  0.
         23    2    1    2    0    0 -0.27354979984E+02  0.25185752354E+03 -0.57854930537E+03  0.63804225415E+03  0.90543427384E+02 0.  0.
          5    1    3    3  502    0  0.62757810774E+02 -0.18278741574E+03 -0.26114820698E+03  0.32490866497E+03  0.41800000000E+01 0. -1.
         -5    1    3    3    0  502 -0.35402830790E+02 -0.69070107807E+02 -0.21670426384E+03  0.23022217658E+03  0.41800000000E+01 0. -1.
        -11    1    4    4    0    0 -0.18942781384E+02  0.27776120935E+01 -0.54121989069E+02  0.57408481919E+02  0.00000000000E+00 0. -1.
         11    1    4    4    0    0 -0.84121985999E+01  0.24907991145E+03 -0.52442731630E+03  0.58063377223E+03  0.00000000000E+00 0.  1.
</event>
<event>
 8    1  0.3719512E-009  0.1332816E+03  0.7561462E-02  0.1222666E+00
         -2   -1    0    0    0  501 -0.00000000000E+00  0.00000000000E+00  0.29156276898E+03  0.29156276898E+03  0.00000000000E+00 0.  1.
          2   -1    0    0  501    0  0.00000000000E+00 -0.00000000000E+00 -0.82883508908E+02  0.82883508908E+02  0.00000000000E+00 0. -1.
         25    2    1    2    0    0  0.25307776485E+02  0.99757314919E+02  0.16013297091E+03  0.22777619418E+03  0.12508965118E+03 0.  0.
         23    2    1    2    0    0 -0.25307776485E+02 -0.99757314919E+02  0.48546289161E+02  0.14667008371E+03  0.92538455970E+02 0.  0.
          5    1    3    3  502    0  0.41626842263E+02 -0.15611430000E+02  0.54411673578E+02  0.70389014519E+02  0.41800000000E+01 0. -1.
         -5    1    3    3    0  502 -0.16319065778E+02  0.11536874492E+03  0.10572129734E+03  0.15738717966E+03  0.41800000000E+01 0. -1.
        -11    1    4    4    0    0  0.83966227585E+00 -0.40951079738E+02 -0.25745528402E+02  0.48379005748E+02  0.00000000000E+00 0. -1.
         11    1    4    4    0    0 -0.26147438761E+02 -0.58806235180E+02  0.74291817563E+02  0.98291077960E+02  0.00000000000E+00 0.  1.
</event>
<event>
 8    1  0.3719512E-009  0.1276477E+03  0.7561462E-02  0.1230988E+00
          2   -1    0    0  501    0  0.00000000000E+00  0.00000000000E+00  0.86609311987E+03  0.86609311987E+03  0.00000000000E+00 0. -1.
         -2   -1    0    0    0  501 -0.00000000000E+00 -0.00000000000E+00 -0.26229851224E+02  0.26229851224E+02  0.00000000000E+00 0.  1.
         25    2    1    2    0    0  0.18604025075E+02 -0.65005764009E+02  0.69028931290E+03  0.70478256282E+03  0.12508903329E+03 0.  0.
         23    2    1    2    0    0 -0.18604025075E+02  0.65005764009E+02  0.14957395574E+03  0.18754040827E+03  0.90703789305E+02 0.  0.
          5    1    3    3  502    0 -0.19295976751E+02  0.32193434170E+02  0.17844323449E+03  0.18239575724E+03  0.41800000000E+01 0.  1.
         -5    1    3    3    0  502  0.37900001826E+02 -0.97199198180E+02  0.51184607841E+03  0.52238680558E+03  0.41800000000E+01 0.  1.
        -11    1    4    4    0    0 -0.38558367488E+02  0.79566794696E+02  0.11808893883E+03  0.14752159162E+03  0.00000000000E+00 0. -1.
         11    1    4    4    0    0  0.19954342412E+02 -0.14561030686E+02  0.31485016919E+02  0.40018816651E+02  0.00000000000E+00 0.  1.
</event>
<event>
 8    1  0.3719512E-009  0.2178665E+03  0.7561462E-02  0.1135484E+00
          3   -1    0    0  501    0  0.00000000000E+00  0.00000000000E+00  0.73183930214E+02  0.73183930214E+02  0.00000000000E+00 0. -1.
         -3   -1    0    0    0  501 -0.00000000000E+00 -0.00000000000E+00 -0.87470701513E+03  0.87470701513E+03  0.00000000000E+00 0.  1.
         25    2    1    2    0    0 -0.18522624707E+03 -0.63939736209E+02 -0.19256218922E+03  0.30186875572E+03  0.12508995360E+03 0.  0.
         23    2    1    2    0    0  0.18522624707E+03  0.63939736209E+02 -0.60896089570E+03  0.64602218963E+03  0.90079101495E+02 0.  0.
          5    1    3    3  502    0 -0.38985776788E+02  0.27211412338E+02 -0.63912726404E+01  0.48152596183E+02  0.41800000000E+01 0.  1.
         -5    1    3    3    0  502 -0.14624047029E+03 -0.91151148547E+02 -0.18617091658E+03  0.25371615954E+03  0.41800000000E+01 0.  1.
        -11    1    4    4    0    0  0.87137028081E+02 -0.16614569843E+02 -0.25590194117E+03  0.27084074489E+03  0.00000000000E+00 0. -1.
         11    1    4    4    0    0  0.98089218993E+02  0.80554306052E+02 -0.35305895453E+03  0.37518144474E+03  0.00000000000E+00 0.  1.
</event>
<event>
 8    1  0.3719512E-009  0.2301379E+03  0.7561462E-02  0.1126543E+00
         -1   -1    0    0    0  501 -0.00000000000E+00  0.00000000000E+00  0.37602120072E+03  0.37602120072E+03  0.00000000000E+00 0.  1.
          1   -1    0    0  501    0  0.00000000000E+00 -0.00000000000E+00 -0.17075269401E+03  0.17075269401E+03  0.00000000000E+00 0. -1.
         25    2    1    2    0    0  0.90004566024E+02 -0.20594273928E+03  0.15349539992E+03  0.29953625832E+03  0.12509156042E+03 0.  0.
         23    2    1    2    0    0 -0.90004566024E+02  0.20594273928E+03  0.51773106794E+02  0.24723763640E+03  0.89066045721E+02 0.  0.
          5    1    3    3  502    0  0.47763803371E+02 -0.10549452873E+03  0.59040981031E+01  0.11602933801E+03  0.41800000000E+01 0.  1.
         -5    1    3    3    0  502  0.42240762653E+02 -0.10044821054E+03  0.14759130182E+03  0.18350692031E+03  0.41800000000E+01 0.  1.
        -11    1    4    4    0    0 -0.80195973384E+02  0.20995558167E+03  0.35090138899E+02  0.22747320341E+03  0.00000000000E+00 0. -1.
         11    1    4    4    0    0 -0.98085926394E+01 -0.40128423951E+01  0.16682967895E+02  0.19764432990E+02  0.00000000000E+00 0.  1.
</event>
<event>
 8    1  0.3719512E-009  0.8391952E+02  0.7561462E-02  0.1318283E+00
          3   -1    0    0  501    0  0.00000000000E+00  0.00000000000E+00  0.43280862292E+02  0.43280862292E+02  0.00000000000E+00 0. -1.
         -3   -1    0    0    0  501 -0.00000000000E+00 -0.00000000000E+00 -0.26772958376E+03  0.26772958376E+03  0.00000000000E+00 0.  1.
         25    2    1    2    0    0 -0.89988202977E+01  0.11176871055E+02 -0.10774597723E+03  0.16572118611E+03  0.12509362375E+03 0.  0.
         23    2    1    2    0    0  0.89988202977E+01 -0.11176871055E+02 -0.11670274423E+03  0.14528925994E+03  0.85343642583E+02 0.  0.
          5    1    3    3  502    0  0.51001450080E+02 -0.30203940170E-01 -0.87339975977E+02  0.10122693627E+03  0.41800000000E+01 0. -1.
         -5    1    3    3    0  502 -0.60000270378E+02  0.11207074996E+02 -0.20406001258E+02  0.64494249842E+02  0.41800000000E+01 0. -1.
        -11    1    4    4    0    0  0.21978434247E+01  0.21751524297E+02 -0.10849878346E+03  0.11067947116E+03  0.00000000000E+00 0.  1.
         11    1    4    4    0    0  0.68009768729E+01 -0.32928395353E+02 -0.82039607748E+01  0.34609788779E+02  0.00000000000E+00 0. -1.
</event>
<event>
 8    1  0.3719512E-009  0.1247934E+03  0.7561462E-02  0.1235392E+00
         -1   -1    0    0    0  501 -0.00000000000E+00  0.00000000000E+00  0.45582008876E+02  0.45582008876E+02  0.00000000000E+00 0.  1.
          1   -1    0    0  501    0  0.00000000000E+00 -0.00000000000E+00 -0.56727519622E+03  0.56727519622E+03  0.00000000000E+00 0. -1.
         25    2    1    2    0    0 -0.49458588350E+00 -0.10139412859E+03 -0.16426255041E+03  0.23002364521E+03  0.12509067896E+03 0.  0.
         23    2    1    2    0    0  0.49458588350E+00  0.10139412859E+03 -0.35743063694E+03  0.38283355989E+03  0.92324755214E+02 0.  0.
          5    1    3    3  502    0 -0.33585084372E+02 -0.72889648003E+02 -0.16775455776E+03  0.18601054467E+03  0.41800000000E+01 0. -1.
         -5    1    3    3    0  502  0.33090498488E+02 -0.28504480587E+02  0.34920073562E+01  0.44013100540E+02  0.41800000000E+01 0. -1.
        -11    1    4    4    0    0  0.36852228946E+02  0.43825969177E+02 -0.88434236644E+02  0.10535376862E+03  0.00000000000E+00 0.  1.
         11    1    4    4    0    0 -0.36357643063E+02  0.57568159413E+02 -0.26899640029E+03  0.27747979126E+03  0.00000000000E+00 0. -1.
</event>
<event>
 8    1  0.3719512E-009  0.1680948E+03  0.7561462E-02  0.1179849E+00
         -1   -1    0    0    0  501 -0.00000000000E+00  0.00000000000E+00  0.87520703725E+02  0.87520703725E+02  0.00000000000E+00 0.  1.
          1   -1    0    0  501    0  0.00000000000E+00 -0.00000000000E+00 -0.49217902570E+03  0.49217902570E+03  0.00000000000E+00 0. -1.
         25    2    1    2    0    0  0.13682684189E+03 -0.64136597809E+02 -0.84175228461E+02  0.21346797026E+03  0.12509203571E+03 0.  0.
         23    2    1    2    0    0 -0.13682684189E+03  0.64136597809E+02 -0.32048309352E+03  0.36623175917E+03  0.92634768593E+02 0.  0.
          5    1    3    3  502    0  0.14087496484E+03 -0.83091247944E+02 -0.96668945609E+02  0.19003228317E+03  0.41800000000E+01 0. -1.
         -5    1    3    3    0  502 -0.40481229417E+01  0.18954650135E+02  0.12493717148E+02  0.23435687088E+02  0.41800000000E+01 0. -1.
        -11    1    4    4    0    0 -0.41914753521E+02  0.85997338888E+01 -0.21950613877E+02  0.48089826734E+02  0.00000000000E+00 0.  1.
         11    1    4    4    0    0 -0.94912088372E+02  0.55536863920E+02 -0.29853247964E+03  0.31814193244E+03  0.00000000000E+00 0. -1.
</event>
<event>
 8    1  0.3719512E-009  0.1275394E+03  0.7561462E-02  0.1231153E+00
         -2   -1    0    0    0  501 -0.00000000000E+00  0.00000000000E+00  0.95422983291E+03  0.95422983291E+03  0.00000000000E+00 0.  1.
          2   -1    0    0  501    0  0.00000000000E+00 -0.00000000000E+00 -0.25692395056E+02  0.25692395056E+02  0.00000000000E+00 0. -1.
         25    2    1    2    0    0 -0.55153357284E+02  0.73083789679E+02  0.70086793727E+03  0.71780654804E+03  0.12508893547E+03 0.  0.
         23    2    1    2    0    0  0.55153357284E+02 -0.73083789679E+02  0.22766950058E+03  0.26211567993E+03  0.92130858213E+02 0.  0.
          5    1    3    3  502    0 -0.24347842005E+02  0.10303227619E+03  0.39731208470E+03  0.41119682926E+03  0.41800000000E+01 0. -1.
         -5    1    3    3    0  502 -0.30805515280E+02 -0.29948486516E+02  0.30355585257E+03  0.30660971878E+03  0.41800000000E+01 0. -1.
        -11    1    4    4    0    0  0.19475541456E+02 -0.66991864960E+02  0.21106160943E+03  0.22229307156E+03  0.00000000000E+00 0.  1.
         11    1    4    4    0    0  0.35677815828E+02 -0.60919247193E+01  0.16607891150E+02  0.39822608371E+02  0.00000000000E+00 0. -1.
</event>
<event>
 8    1  0.3719512E-009  0.1667219E+03  0.7561462E-02  0.1181310E+00
          2   -1    0    0  501    0  0.00000000000E+00  0.00000000000E+00  0.63431498996E+03  0.63431498996E+03  0.00000000000E+00 0. -1.
         -2   -1    0    0    0  501 -0.00000000000E+00 -0.00000000000E+00 -0.49237819727E+02  0.49237819727E+02  0.00000000000E+00 0.  1.
         25    2    1    2    0    0  0.26787548021E+02 -0.12500862485E+03  0.42338764155E+03  0.45961855390E+03  0.12508953216E+03 0.  0.
         23    2    1    2    0    0 -0.26787548021E+02  0.12500862485E+03  0.16168952869E+03  0.22393425579E+03  0.87511817573E+02 0.  0.
          5    1    3    3  502    0  0.33770742983E+02 -0.14936018756E+03  0.36292878305E+03  0.39393362725E+03  0.41800000000E+01 0.  1.
         -5    1    3    3    0  502 -0.69831949626E+01  0.24351562711E+02  0.60458858494E+02  0.65684926648E+02  0.41800000000E+01 0.  1.
        -11    1    4    4    0    0 -0.58674082320E+02  0.87484661769E+02  0.11704602314E+03  0.15746741096E+03  0.00000000000E+00 0.  1.
         11    1    4    4    0    0  0.31886534299E+02  0.37523963078E+02  0.44643505547E+02  0.66466844834E+02  0.00000000000E+00 0. -1.
</event>
<event>
 8    1  0.3719512E-009  0.1116634E+03  0.7561462E-02  0.1257520E+00
         -2   -1    0    0    0  501 -0.00000000000E+00  0.00000000000E+00  0.60934916168E+02  0.60934916168E+02  0.00000000000E+00 0.  1.
          2   -1    0    0  501    0  0.00000000000E+00 -0.00000000000E+00 -0.31116429659E+03  0.31116429659E+03  0.00000000000E+00 0. -1.
         25    2    1    2    0    0  0.35238924347E+02  0.26196158521E+02 -0.23586949776E+03  0.27057311697E+03  0.12508945257E+03 0.  0.
         23    2    1    2    0    0 -0.35238924347E+02 -0.26196158521E+02 -0.14359882664E+02  0.10152609579E+03  0.90406423363E+02 0.  0.
          5    1    3    3  502    0 -0.19976782174E+02  0.58544133116E+02 -0.74475704145E+02  0.96905057950E+02  0.41800000000E+01 0.  1.
         -5    1    3    3    0  502  0.55215706521E+02 -0.32347974595E+02 -0.16139379361E+03  0.17366805902E+03  0.41800000000E+01 0.  1.
        -11    1    4    4    0    0 -0.39836362403E+02  0.24187479598E+02  0.60021616240E+01  0.46989316690E+02  0.00000000000E+00 0. -1.
         11    1    4    4    0    0  0.45974380565E+01 -0.50383638119E+02 -0.20362044288E+02  0.54536779097E+02  0.00000000000E+00 0.  1.
</event>
<event>
 8    1  0.3719512E-009  0.1681342E+03  0.7561462E-02  0.1179808E+00
          1   -1    0    0  501    0  0.00000000000E+00  0.00000000000E+00  0.24480984448E+03  0.24480984448E+03  0.00000000000E+00 0. -1.
         -1   -1    0    0    0  501 -0.00000000000E+00 -0.00000000000E+00 -0.13322825794E+03  0.13322825794E+03  0.00000000000E+00 0.  1.
         25    2    1    2    0    0 -0.11898720223E+03  0.80692309158E+02  0.65266911125E+02  0.20143422484E+03  0.12508706647E+03 0.  0.
         23    2    1    2    0    0  0.11898720223E+03 -0.80692309158E+02  0.46314675415E+02  0.17660387758E+03  0.91513263335E+02 0.  0.
          5    1    3    3  502    0  0.13924141781E+02 -0.17746619844E+02  0.18590005235E+02  0.29527697757E+02  0.41800000000E+01 0.  1.
         -5    1    3    3    0  502 -0.13291134401E+03  0.98438929001E+02  0.46676905890E+02  0.17190652708E+03  0.41800000000E+01 0.  1.
        -11    1    4    4    0    0  0.63947091822E+02 -0.22523875348E+02 -0.22067700446E+02  0.71298940498E+02  0.00000000000E+00 0.  1.
         11    1    4    4    0    0  0.55040110408E+02 -0.58168433810E+02  0.68382375861E+02  0.10530493708E+03  0.00000000000E+00 0. -1.
</event>
<event>
 8    1  0.3719512E-009  0.9998833E+02  0.7561462E-02  0.1280320E+00
          2   -1    0    0  501    0  0.00000000000E+00  0.00000000000E+00  0.40420312780E+03  0.40420312780E+03  0.00000000000E+00 0. -1.
         -2   -1    0    0    0  501 -0.00000000000E+00 -0.00000000000E+00 -0.43375904180E+02  0.43375904180E+02  0.00000000000E+00 0.  1.
         25    2    1    2    0    0  0.49408817640E+01 -0.42567205482E+02  0.93830953281E+02  0.16213528747E+03  0.12508886582E+03 0.  0.
         23    2    1    2    0    0 -0.49408817640E+01  0.42567205482E+02  0.26699627034E+03  0.28544374451E+03  0.91404286614E+02 0.  0.
          5    1    3    3  502    0 -0.45353782174E+02 -0.15335200494E+02 -0.45368861200E+01  0.48272038152E+02  0.41800000000E+01 0. -1.
         -5    1    3    3    0  502  0.50294663938E+02 -0.27232004987E+02  0.98367839401E+02  0.11386324932E+03  0.41800000000E+01 0. -1.
        -11    1    4    4    0    0  0.91722836665E+01 -0.24434818615E+02  0.35686471586E+02  0.44212163515E+02  0.00000000000E+00 0.  1.
         11    1    4    4    0    0 -0.14113165430E+02  0.67002024097E+02  0.23130979875E+03  0.24123158100E+03  0.00000000000E+00 0. -1.
</event>
<event>
 8    1  0.3719512E-009  0.1084841E+03  0.7561462E-02  0.1263403E+00
          1   -1    0    0  501    0  0.00000000000E+00  0.00000000000E+00  0.29274190529E+03  0.29274190529E+03  0.00000000000E+00 0. -1.
         -1   -1    0    0    0  501 -0.00000000000E+00 -0.00000000000E+00 -0.41277021833E+02  0.41277021833E+02  0.00000000000E+00 0.  1.
         25    2    1    2    0    0  0.75324556293E+00  0.21433267086E+02  0.15294448301E+03  0.19874485071E+03  0.12509016141E+03 0.  0.
         23    2    1    2    0    0 -0.75324556293E+00 -0.21433267086E+02  0.98520400452E+02  0.13527407642E+03  0.90182338235E+02 0.  0.
          5    1    3    3  502    0 -0.59211102345E+02  0.24481343582E+02  0.59155095722E+02  0.87304573616E+02  0.41800000000E+01 0.  1.
         -5    1    3    3    0  502  0.59964347908E+02 -0.30480764955E+01  0.93789387287E+02  0.11144027709E+03  0.41800000000E+01 0.  1.
        -11    1    4    4    0    0  0.39497081395E+02 -0.32140970795E+02  0.50686603515E+02  0.71848404424E+02  0.00000000000E+00 0. -1.
         11    1    4    4    0    0 -0.40250326958E+02  0.10707703709E+02  0.47833796937E+02  0.63425671997E+02  0.00000000000E+00 0.  1.
</event>
<event>
 8    1  0.3719512E-009  0.1517226E+03  0.7561462E-02  0.1198372E+00
         -4   -1    0    0    0  501 -0.00000000000E+00  0.00000000000E+00  0.57366513035E+02  0.57366513035E+02  0.00000000000E+00 0.  1.
          4   -1    0    0  501    0  0.00000000000E+00 -0.00000000000E+00 -0.41829759014E+03  0.41829759014E+03  0.00000000000E+00 0. -1.
         25    2    1    2    0    0  0.10262215637E+03  0.40987002495E+02 -0.20254354230E+03  0.26245356673E+03  0.12508695701E+03 0.  0.
         23    2    1    2    0    0 -0.10262215637E+03 -0.40987002495E+02 -0.15838753481E+03  0.21321053644E+03  0.90337590830E+02 0.  0.
          5    1    3    3  502    0  0.13184198194E+02  0.70155862638E+02 -0.71844883313E+02  0.10136482527E+03  0.41800000000E+01 0. -1.
         -5    1    3    3    0  502  0.89437958174E+02 -0.29168860143E+02 -0.13069865898E+03  0.16108874146E+03  0.41800000000E+01 0. -1.
        -11    1    4    4    0    0 -0.86563000537E+01 -0.42921945217E+02 -0.26231573194E+02  0.51042338741E+02  0.00000000000E+00 0.  1.
         11    1    4    4    0    0 -0.93965856314E+02  0.19349427223E+01 -0.13215596161E+03  0.16216819770E+03  0.00000000000E+00 0. -1.
</event>
<event>
 8    1  0.3719512E-009  0.1285686E+03  0.7561462E-02  0.1229595E+00
         -2   -1    0    0    0  501 -0.00000000000E+00  0.00000000000E+00  0.29725399584E+02  0.29725399584E+02  0.00000000000E+00 0.  1.
          2   -1    0    0  501    0  0.00000000000E+00 -0.00000000000E+00 -0.93915174238E+03  0.93915174238E+03  0.00000000000E+00 0. -1.
         25    2    1    2    0    0 -0.77157430236E+02 -0.83929587595E+02 -0.32604675905E+03  0.36735677526E+03  0.12508823497E+03 0.  0.
         23    2    1    2    0    0  0.77157430236E+02  0.83929587595E+02 -0.58337958374E+03  0.60152036670E+03  0.92182254878E+02 0.  0.
          5    1    3    3  502    0 -0.39357131159E+02 -0.39033096388E+02 -0.25594511834E+02  0.61197367776E+02  0.41800000000E+01 0. -1.
         -5    1    3    3    0  502 -0.37800299077E+02 -0.44896491207E+02 -0.30045224722E+03  0.30615940749E+03  0.41800000000E+01 0. -1.
        -11    1    4    4    0    0  0.78633261345E+02  0.23230331941E+02 -0.26469829446E+03  0.27710652320E+03  0.00000000000E+00 0. -1.
         11    1    4    4    0    0 -0.14758311082E+01  0.60699255654E+02 -0.31868128928E+03  0.32441384350E+03  0.00000000000E+00 0.  1.
</event>
<event>
 8    1  0.3719512E-009  0.9373613E+02  0.7561462E-02  0.1294048E+00
          2   -1    0    0  501    0  0.00000000000E+00  0.00000000000E+00  0.18300600383E+03  0.18300600383E+03  0.00000000000E+00 0.  1.
         -2   -1    0    0    0  501 -0.00000000000E+00 -0.00000000000E+00 -0.63064415447E+02  0.63064415447E+02  0.00000000000E+00 0. -1.
         25    2    1    2    0    0  0.28424346142E+02  0.65382289279E+00  0.63569800132E+02  0.14316983285E+03  0.12509240829E+03 0.  0.
         23    2    1    2    0    0 -0.28424346142E+02 -0.65382289279E+00  0.56371788253E+02  0.10290058643E+03  0.81255038234E+02 0.  0.
          5    1    3    3  502    0 -0.19940130251E+02 -0.49044587742E+02  0.48842242133E+02  0.72152736592E+02  0.41800000000E+01 0.  1.
         -5    1    3    3    0  502  0.48364476393E+02  0.49698410635E+02  0.14727558000E+02  0.71017096259E+02  0.41800000000E+01 0.  1.
        -11    1    4    4    0    0  0.16350444116E+02  0.95956181246E+01  0.53634151098E+02  0.56886158897E+02  0.00000000000E+00 0.  1.
         11    1    4    4    0    0 -0.44774790258E+02 -0.10249441017E+02  0.27376371546E+01  0.46014427531E+02  0.00000000000E+00 0. -1.
</event>
<event>
 8    1  0.3719512E-009  0.9561248E+02  0.7561462E-02  0.1289803E+00
         -1   -1    0    0    0  501 -0.00000000000E+00  0.00000000000E+00  0.88316755664E+02  0.88316755664E+02  0.00000000000E+00 0.  1.
          1   -1    0    0  501    0  0.00000000000E+00 -0.00000000000E+00 -0.17648553494E+03  0.17648553494E+03  0.00000000000E+00 0. -1.
         25    2    1    2    0    0  0.36174803856E+02  0.43363440749E+02 -0.19558418720E+02  0.13863201961E+03  0.12508917096E+03 0.  0.
         23    2    1    2    0    0 -0.36174803856E+02 -0.43363440749E+02 -0.68610360558E+02  0.12617027100E+03  0.89568695868E+02 0.  0.
          5    1    3    3  502    0  0.36524694186E+01 -0.24177702551E+02  0.37060430931E+02  0.44596521998E+02  0.41800000000E+01 0.  1.
         -5    1    3    3    0  502  0.32522334438E+02  0.67541143300E+02 -0.56618849651E+02  0.94035497613E+02  0.41800000000E+01 0.  1.
        -11    1    4    4    0    0  0.92491928857E+01 -0.44945053576E+02 -0.66338154635E+02  0.80661987146E+02  0.00000000000E+00 0. -1.
         11    1    4    4    0    0 -0.45423996742E+02  0.15816128266E+01 -0.22722059232E+01  0.45508283849E+02  0.00000000000E+00 0.  1.
</event>
<event>
 8    1  0.3719512E-009  0.2392398E+03  0.7561462E-02  0.1120300E+00
         -1   -1    0    0    0  501 -0.00000000000E+00  0.00000000000E+00  0.41588887000E+02  0.41588887000E+02  0.00000000000E+00 0.  1.
          1   -1    0    0  501    0  0.00000000000E+00 -0.00000000000E+00 -0.16380504966E+04  0.16380504966E+04  0.00000000000E+00 0. -1.
         25    2    1    2    0    0  0.18849604057E+03 -0.13574432854E+03 -0.66101856504E+03  0.71172342204E+03  0.12508959234E+03 0.  0.
         23    2    1    2    0    0 -0.18849604057E+03  0.13574432854E+03 -0.93544304454E+03  0.96791596154E+03  0.88602138712E+02 0.  0.
          5    1    3    3  502    0  0.14849715221E+03 -0.13497075263E+03 -0.62919327096E+03  0.66043179277E+03  0.41800000000E+01 0. -1.
         -5    1    3    3    0  502  0.39998888360E+02 -0.77357590686E+00 -0.31825294077E+02  0.51291629266E+02  0.41800000000E+01 0. -1.
        -11    1    4    4    0    0 -0.17793539256E+03  0.10870505210E+03 -0.88917031156E+03  0.91329164850E+03  0.00000000000E+00 0. -1.
         11    1    4    4    0    0 -0.10560648013E+02  0.27039276439E+02 -0.46272732989E+02  0.54624313040E+02  0.00000000000E+00 0.  1.
</event>
<event>
 8    1  0.3719512E-009  0.1505967E+03  0.7561462E-02  0.1199742E+00
         -3   -1    0    0    0  501 -0.00000000000E+00  0.00000000000E+00  0.11224451221E+03  0.11224451221E+03  0.00000000000E+00 0.  1.
          3   -1    0    0  501    0  0.00000000000E+00 -0.00000000000E+00 -0.27657130588E+03  0.27657130588E+03  0.00000000000E+00 0. -1.
         25    2    1    2    0    0 -0.93291811306E+02 -0.10067589320E+03 -0.10550984765E+03  0.21358585034E+03  0.12509032731E+03 0.  0.
         23    2    1    2    0    0  0.93291811306E+02  0.10067589320E+03 -0.58816946018E+02  0.17522996775E+03  0.91690298995E+02 0.  0.
          5    1    3    3  502    0 -0.67585302116E+02 -0.26564001060E+02 -0.11330658811E+03  0.13464499442E+03  0.41800000000E+01 0.  1.
         -5    1    3    3    0  502 -0.25706509191E+02 -0.74111892141E+02  0.77967404598E+01  0.78940855920E+02  0.41800000000E+01 0.  1.
        -11    1    4    4    0    0  0.73800200571E+02  0.35543006185E+02 -0.68213634474E+02  0.10659678617E+03  0.00000000000E+00 0. -1.
         11    1    4    4    0    0  0.19491610735E+02  0.65132887017E+02  0.93966884558E+01  0.68633181582E+02  0.00000000000E+00 0.  1.
</event>
<event>
 8    1  0.3719512E-009  0.1141196E+03  0.7561462E-02  0.1253126E+00
          2   -1    0    0  501    0  0.00000000000E+00  0.00000000000E+00  0.18947340653E+03  0.18947340653E+03  0.00000000000E+00 0. -1.
         -2   -1    0    0    0  501 -0.00000000000E+00 -0.00000000000E+00 -0.82596703410E+02  0.82596703410E+02  0.00000000000E+00 0.  1.
         25    2    1    2    0    0  0.34919448456E+02  0.29907620122E+00  0.10477483903E+03  0.16687565001E+03  0.12510099259E+03 0.  0.
         23    2    1    2    0    0 -0.34919448456E+02 -0.29907620122E+00  0.21018640894E+01  0.10519445992E+03  0.99206850766E+02 0.  0.
          5    1    3    3  502    0 -0.10185460445E+02 -0.54510060089E+02  0.28106989119E+02  0.62310235858E+02  0.41800000000E+01 0.  1.
         -5    1    3    3    0  502  0.45104908901E+02  0.54809136290E+02  0.76667849909E+02  0.10456541416E+03  0.41800000000E+01 0.  1.
        -11    1    4    4    0    0 -0.34500761704E+02 -0.45064938143E+02 -0.12481072679E+02  0.58111344703E+02  0.00000000000E+00 0.  1.
         11    1    4    4    0    0 -0.41868675193E+00  0.44765861942E+02  0.14582936769E+02  0.47083115220E+02  0.00000000000E+00 0. -1.
</event>
<event>
 8    1  0.3719512E-009  0.1125065E+03  0.7561462E-02  0.1255997E+00
          1   -1    0    0  501    0  0.00000000000E+00  0.00000000000E+00  0.11918724712E+03  0.11918724712E+03  0.00000000000E+00 0. -1.
         -1   -1    0    0    0  501 -0.00000000000E+00 -0.00000000000E+00 -0.15360480849E+03  0.15360480849E+03  0.00000000000E+00 0.  1.
         25    2    1    2    0    0  0.74996450028E+02 -0.29645982673E+02 -0.98741238786E+01  0.14916176485E+03  0.12509349290E+03 0.  0.
         23    2    1    2    0    0 -0.74996450028E+02  0.29645982673E+02 -0.24543437491E+02  0.12363029075E+03  0.90436257447E+02 0.  0.
          5    1    3    3  502    0  0.48188710865E+02  0.33632397740E+02  0.33516362163E+02  0.67779856634E+02  0.41800000000E+01 0. -1.
         -5    1    3    3    0  502  0.26807739163E+02 -0.63278380413E+02 -0.43390486042E+02  0.81381908221E+02  0.41800000000E+01 0. -1.
        -11    1    4    4    0    0  0.84794758246E+01  0.63222609671E+01  0.22609360360E+02  0.24961083107E+02  0.00000000000E+00 0. -1.
         11    1    4    4    0    0 -0.83475925853E+02  0.23323721706E+02 -0.47152797851E+02  0.98669207640E+02  0.00000000000E+00 0.  1.
</event>
<event>
 8    1  0.3719512E-009  0.1200677E+03  0.7561462E-02  0.1242985E+00
          1   -1    0    0  501    0  0.00000000000E+00  0.00000000000E+00  0.22132779739E+02  0.22132779739E+02  0.00000000000E+00 0. -1.
         -1   -1    0    0    0  501 -0.00000000000E+00 -0.00000000000E+00 -0.76672492169E+03  0.76672492169E+03  0.00000000000E+00 0.  1.
         25    2    1    2    0    0 -0.25340228777E+02  0.55392179969E+02 -0.29534822785E+03  0.32647937765E+03  0.12509111695E+03 0.  0.
         23    2    1    2    0    0  0.25340228777E+02 -0.55392179969E+02 -0.44924391410E+03  0.46237832378E+03  0.90902140508E+02 0.  0.
          5    1    3    3  502    0  0.43336402108E+02  0.70051763103E+00 -0.15395857493E+03  0.15999765519E+03  0.41800000000E+01 0. -1.
         -5    1    3    3    0  502 -0.68676630885E+02  0.54691662338E+02 -0.14138965292E+03  0.16648172246E+03  0.41800000000E+01 0. -1.
        -11    1    4    4    0    0  0.57441954644E+02 -0.49986034189E+02 -0.28915273278E+03  0.29901084369E+03  0.00000000000E+00 0.  1.
         11    1    4    4    0    0 -0.32101725867E+02 -0.54061457798E+01 -0.16009118132E+03  0.16336748009E+03  0.00000000000E+00 0. -1.
</event>
<event>
 8    1  0.3719512E-009  0.1497083E+03  0.7561462E-02  0.1200832E+00
         -1   -1    0    0    0  501 -0.00000000000E+00  0.00000000000E+00  0.92368182197E+02  0.92368182197E+02  0.00000000000E+00 0.  1.
          1   -1    0    0  501    0  0.00000000000E+00 -0.00000000000E+00 -0.28747650157E+03  0.28747650157E+03  0.00000000000E+00 0. -1.
         25    2    1    2    0    0 -0.83720382857E+02  0.85494458737E+02 -0.97678030130E+02  0.19876092024E+03  0.12508597388E+03 0.  0.
         23    2    1    2    0    0  0.83720382857E+02 -0.85494458737E+02 -0.97430289239E+02  0.18108376353E+03  0.94764250494E+02 0.  0.
          5    1    3    3  502    0  0.17713043247E+02  0.25279476902E+02  0.15885565009E+02  0.34966089703E+02  0.41800000000E+01 0. -1.
         -5    1    3    3    0  502 -0.10143342610E+03  0.60214981835E+02 -0.11356359514E+03  0.16379483053E+03  0.41800000000E+01 0. -1.
        -11    1    4    4    0    0  0.32934535372E+02 -0.93216673219E+02 -0.48417285617E+02  0.11008299293E+03  0.00000000000E+00 0.  1.
         11    1    4    4    0    0  0.50785847484E+02  0.77222144819E+01 -0.49013003622E+02  0.71000770596E+02  0.00000000000E+00 0. -1.
</event>
<event>
 8    1  0.3719512E-009  0.7649215E+02  0.7561462E-02  0.1339312E+00
         -2   -1    0    0    0  501 -0.00000000000E+00  0.00000000000E+00  0.36830694036E+02  0.36830694036E+02  0.00000000000E+00 0.  1.
          2   -1    0    0  501    0  0.00000000000E+00 -0.00000000000E+00 -0.34727153753E+03  0.34727153753E+03  0.00000000000E+00 0. -1.
         25    2    1    2    0    0  0.92414354786E+01 -0.69761674458E+01 -0.12321567623E+03  0.17595561084E+03  0.12507678871E+03 0.  0.
         23    2    1    2    0    0 -0.92414354786E+01  0.69761674458E+01 -0.18722516726E+03  0.20814662073E+03  0.90209098336E+02 0.  0.
          5    1    3    3  502    0 -0.24029113797E+02  0.10285084647E+02 -0.13411179868E+03  0.13669904250E+03  0.41800000000E+01 0. -1.
         -5    1    3    3    0  502  0.33270549276E+02 -0.17261252093E+02  0.10896122449E+02  0.39256568334E+02  0.41800000000E+01 0. -1.
        -11    1    4    4    0    0  0.39520867317E+02  0.63927219641E+01 -0.10722336162E+03  0.11445355007E+03  0.00000000000E+00 0.  1.
         11    1    4    4    0    0 -0.48762302796E+02  0.58344548174E+00 -0.80001805642E+02  0.93693070654E+02  0.00000000000E+00 0. -1.
</event>
<event>
 8    1  0.3719512E-009  0.3885990E+03  0.7561462E-02  0.1047801E+00
         -2   -1    0    0    0  501 -0.00000000000E+00  0.00000000000E+00  0.11259830970E+03  0.11259830970E+03  0.00000000000E+00 0.  1.
          2   -1    0    0  501    0  0.00000000000E+00 -0.00000000000E+00 -0.17190939249E+04  0.17190939249E+04  0.00000000000E+00 0. -1.
         25    2    1    2    0    0 -0.37339409526E+03  0.52664436955E+02 -0.12238857159E+04  0.12867559997E+04  0.12509222135E+03 0.  0.
         23    2    1    2    0    0  0.37339409526E+03 -0.52664436955E+02 -0.38260989921E+03  0.54493623484E+03  0.91479351612E+02 0.  0.
          5    1    3    3  502    0 -0.32205723970E+03  0.79108899348E+02 -0.11169804105E+04  0.11651788676E+04  0.41800000000E+01 0.  1.
         -5    1    3    3    0  502 -0.51336855562E+02 -0.26444462394E+02 -0.10690530544E+03  0.12157713215E+03  0.41800000000E+01 0.  1.
        -11    1    4    4    0    0  0.41591201197E+02 -0.36678971147E+02 -0.46496400382E+02  0.72367742744E+02  0.00000000000E+00 0.  1.
         11    1    4    4    0    0  0.33180289406E+03 -0.15985465808E+02 -0.33611349883E+03  0.47256849209E+03  0.00000000000E+00 0. -1.
</event>
<event>
 8    1  0.3719512E-009  0.9152642E+02  0.7561462E-02  0.1299197E+00
         -4   -1    0    0    0  501 -0.00000000000E+00  0.00000000000E+00  0.45969321871E+02  0.45969321871E+02  0.00000000000E+00 0.  1.
          4   -1    0    0  501    0  0.00000000000E+00 -0.00000000000E+00 -0.32187612506E+03  0.32187612506E+03  0.00000000000E+00 0. -1.
         25    2    1    2    0    0 -0.89237541121E+01  0.65148706063E+01 -0.22650967593E+03  0.25898952259E+03  0.12508741982E+03 0.  0.
         23    2    1    2    0    0  0.89237541121E+01 -0.65148706063E+01 -0.49397127261E+02  0.10885592434E+03  0.96371464424E+02 0.  0.
          5    1    3    3  502    0 -0.33529526301E+02 -0.46959493387E+02 -0.64896230799E+02  0.86939153004E+02  0.41800000000E+01 0.  1.
         -5    1    3    3    0  502  0.24605772189E+02  0.53474363993E+02 -0.16161344513E+03  0.17205036959E+03  0.41800000000E+01 0.  1.
        -11    1    4    4    0    0 -0.26206451450E+02 -0.14796714793E+02  0.16056341195E+02  0.34110510973E+02  0.00000000000E+00 0.  1.
         11    1    4    4    0    0  0.35130205562E+02  0.82818441871E+01 -0.65453468457E+02  0.74745413364E+02  0.00000000000E+00 0. -1.
</event>
<event>
 8    1  0.3719512E-009  0.1154973E+03  0.7561462E-02  0.1250716E+00
         -2   -1    0    0    0  501 -0.00000000000E+00  0.00000000000E+00  0.39022026276E+02  0.39022026276E+02  0.00000000000E+00 0.  1.
          2   -1    0    0  501    0  0.00000000000E+00 -0.00000000000E+00 -0.40574047277E+03  0.40574047277E+03  0.00000000000E+00 0. -1.
         25    2    1    2    0    0  0.27160493195E+02 -0.43426449388E+02 -0.25110815023E+03  0.28517828450E+03  0.12509117452E+03 0.  0.
         23    2    1    2    0    0 -0.27160493195E+02  0.43426449388E+02 -0.11561029626E+03  0.15958421454E+03  0.97354157754E+02 0.  0.
          5    1    3    3  502    0 -0.17233178202E+02 -0.69521046821E+02 -0.85059123607E+02  0.11127751476E+03  0.41800000000E+01 0.  1.
         -5    1    3    3    0  502  0.44393671397E+02  0.26094597433E+02 -0.16604902662E+03  0.17390076975E+03  0.41800000000E+01 0.  1.
        -11    1    4    4    0    0 -0.62669869815E+02  0.24006876164E+02 -0.87653281555E+02  0.11039447655E+03  0.00000000000E+00 0. -1.
         11    1    4    4    0    0  0.35509376620E+02  0.19419573225E+02 -0.27957014706E+02  0.49189737989E+02  0.00000000000E+00 0.  1.
</event>
<event>
 8    1  0.3719512E-009  0.1380556E+03  0.7561462E-02  0.1215969E+00
          1   -1    0    0  501    0  0.00000000000E+00  0.00000000000E+00  0.92793318090E+03  0.92793318090E+03  0.00000000000E+00 0. -1.
         -1   -1    0    0    0  501 -0.00000000000E+00 -0.00000000000E+00 -0.68544912255E+02  0.68544912255E+02  0.00000000000E+00 0.  1.
         25    2    1    2    0    0  0.11388366817E+03 -0.11898023745E+02  0.54511896378E+02  0.17812757168E+03  0.12508729792E+03 0.  0.
         23    2    1    2    0    0 -0.11388366817E+03  0.11898023745E+02  0.80487637227E+03  0.81835052148E+03  0.93597801886E+02 0.  0.
          5    1    3    3  502    0  0.76216039494E+02  0.20373301832E+02 -0.26257182875E+02  0.83251835753E+02  0.41800000000E+01 0. -1.
         -5    1    3    3    0  502  0.37667628677E+02 -0.32271325577E+02  0.80769079254E+02  0.94875735930E+02  0.41800000000E+01 0. -1.
        -11    1    4    4    0    0 -0.11892650012E+03  0.34773983038E+02  0.70091440953E+03  0.71178209574E+03  0.00000000000E+00 0. -1.
         11    1    4    4    0    0  0.50428319491E+01 -0.22875959292E+02  0.10396196274E+03  0.10656842573E+03  0.00000000000E+00 0.  1.
</event>
<event>
 8    1  0.3719512E-009  0.1029747E+03  0.7561462E-02  0.1274162E+00
         -2   -1    0    0    0  501 -0.00000000000E+00  0.00000000000E+00  0.39314191247E+02  0.39314191247E+02  0.00000000000E+00 0.  1.
          2   -1    0    0  501    0  0.00000000000E+00 -0.00000000000E+00 -0.55026617564E+03  0.55026617564E+03  0.00000000000E+00 0. -1.
         25    2    1    2    0    0  0.25520607325E+02  0.67568508540E+02 -0.41425760730E+03  0.43871825410E+03  0.12509011366E+03 0.  0.
         23    2    1    2    0    0 -0.25520607325E+02 -0.67568508540E+02 -0.96694377099E+02  0.15086211279E+03  0.90513920299E+02 0.  0.
          5    1    3    3  502    0 -0.16157580858E+02  0.36187613998E+02 -0.36394055439E+03  0.36611584281E+03  0.41800000000E+01 0.  1.
         -5    1    3    3    0  502  0.41678188183E+02  0.31380894542E+02 -0.50317052907E+02  0.72602411294E+02  0.41800000000E+01 0.  1.
        -11    1    4    4    0    0 -0.57058322370E+02 -0.56601258320E+02 -0.80498319313E+02  0.11375119343E+03  0.00000000000E+00 0.  1.
         11    1    4    4    0    0  0.31537715045E+02 -0.10967250220E+02 -0.16196057786E+02  0.37110919356E+02  0.00000000000E+00 0. -1.
</event>
<event>
 8    1  0.3719512E-009  0.1031216E+03  0.7561462E-02  0.1273865E+00
          2   -1    0    0  501    0  0.00000000000E+00  0.00000000000E+00  0.30372873936E+02  0.30372873936E+02  0.00000000000E+00 0.  1.
         -2   -1    0    0    0  501 -0.00000000000E+00 -0.00000000000E+00 -0.48494783287E+03  0.48494783287E+03  0.00000000000E+00 0. -1.
         25    2    1    2    0    0  0.41944139305E+02 -0.18851858745E+02 -0.32166198755E+03  0.34817618032E+03  0.12508203273E+03 0.  0.
         23    2    1    2    0    0 -0.41944139305E+02  0.18851858745E+02 -0.13291297139E+03  0.16714452649E+03  0.90314624344E+02 0.  0.
          5    1    3    3  502    0 -0.20081068780E+02 -0.52858087061E+02 -0.94346574340E+02  0.11007259051E+03  0.41800000000E+01 0. -1.
         -5    1    3    3    0  502  0.62025208085E+02  0.34006228316E+02 -0.22731541321E+03  0.23810358982E+03  0.41800000000E+01 0. -1.
        -11    1    4    4    0    0 -0.55353560028E+02  0.28409944277E+02 -0.42749150116E+02  0.75489279883E+02  0.00000000000E+00 0.  1.
         11    1    4    4    0    0  0.13409420723E+02 -0.95580855325E+01 -0.90163821273E+02  0.91655246603E+02  0.00000000000E+00 0. -1.
</event>
<event>
 8    1  0.3719512E-009  0.1038471E+03  0.7561462E-02  0.1272408E+00
         -1   -1    0    0    0  501 -0.00000000000E+00  0.00000000000E+00  0.12593475931E+03  0.12593475931E+03  0.00000000000E+00 0. -1.
          1   -1    0    0  501    0  0.00000000000E+00 -0.00000000000E+00 -0.13502235385E+03  0.13502235385E+03  0.00000000000E+00 0.  1.
         25    2    1    2    0    0  0.21763730194E+02 -0.39363160690E+02 -0.60811471431E+02  0.14617976854E+03  0.12508945320E+03 0.  0.
         23    2    1    2    0    0 -0.21763730194E+02  0.39363160690E+02  0.51723876892E+02  0.11477734462E+03  0.92061723994E+02 0.  0.
          5    1    3    3  502    0  0.53224404016E+02  0.19545459211E+01  0.13800615963E+02  0.55177774815E+02  0.41800000000E+01 0. -1.
         -5    1    3    3    0  502 -0.31460673822E+02 -0.41317706611E+02 -0.74612087394E+02  0.91001993727E+02  0.41800000000E+01 0. -1.
        -11    1    4    4    0    0 -0.56217655372E+02  0.10425589110E+02  0.33226375226E+02  0.66129491866E+02  0.00000000000E+00 0.  1.
         11    1    4    4    0    0  0.34453925179E+02  0.28937571580E+02  0.18497501666E+02  0.48647852749E+02  0.00000000000E+00 0. -1.
</event>
<event>
 8    1  0.3719512E-009  0.8854590E+02  0.7561462E-02  0.1306412E+00
         -1   -1    0    0    0  501 -0.00000000000E+00  0.00000000000E+00  0.73207790105E+02  0.73207790105E+02  0.00000000000E+00 0.  1.
          1   -1    0    0  501    0  0.00000000000E+00 -0.00000000000E+00 -0.18770587801E+03  0.18770587801E+03  0.00000000000E+00 0. -1.
         25    2    1    2    0    0 -0.61366276066E+00 -0.88749808055E+01 -0.15342495906E+02  0.12633365873E+03  0.12508260983E+03 0.  0.
         23    2    1    2    0    0  0.61366276066E+00  0.88749808055E+01 -0.99155592001E+02  0.13458000938E+03  0.90558299645E+02 0.  0.
          5    1    3    3  502    0  0.17623939567E+02  0.42923549522E+02  0.29644992362E+02  0.55220759878E+02  0.41800000000E+01 0.  1.
         -5    1    3    3    0  502 -0.18237602328E+02 -0.51798530327E+02 -0.44987488269E+02  0.71112898854E+02  0.41800000000E+01 0.  1.
        -11    1    4    4    0    0  0.28782628527E+02 -0.20031486842E+02 -0.84760377004E+02  0.91727976539E+02  0.00000000000E+00 0. -1.
         11    1    4    4    0    0 -0.28168965766E+02  0.28906467647E+02 -0.14395214997E+02  0.42852032846E+02  0.00000000000E+00 0.  1.
</event>
<event>
 8    1  0.3719512E-009  0.1292394E+03  0.7561462E-02  0.1228589E+00
          2   -1    0    0  501    0  0.00000000000E+00  0.00000000000E+00  0.43582128053E+03  0.43582128053E+03  0.00000000000E+00 0. -1.
         -2   -1    0    0    0  501 -0.00000000000E+00 -0.00000000000E+00 -0.43384364227E+02  0.43384364227E+02  0.00000000000E+00 0.  1.
         25    2    1    2    0    0 -0.71494314206E+02 -0.36594723994E+02  0.16548584078E+03  0.22244948118E+03  0.12509035692E+03 0.  0.
         23    2    1    2    0    0  0.71494314206E+02  0.36594723994E+02  0.22695107552E+03  0.25675616357E+03  0.89254277552E+02 0.  0.
          5    1    3    3  502    0 -0.47510499523E+02 -0.80858641350E+02  0.13147425358E+03  0.16154974219E+03  0.41800000000E+01 0.  1.
         -5    1    3    3    0  502 -0.23983814683E+02  0.44263917356E+02  0.34011587193E+02  0.60899738996E+02  0.41800000000E+01 0.  1.
        -11    1    4    4    0    0  0.34416005595E+02  0.60757792873E+02  0.17554742045E+03  0.18892556117E+03  0.00000000000E+00 0. -1.
         11    1    4    4    0    0  0.37078308611E+02 -0.24163068879E+02  0.51403655069E+02  0.67830602397E+02  0.00000000000E+00 0.  1.
</event>
<event>
 8    1  0.3719512E-009  0.9687356E+02  0.7561462E-02  0.1287011E+00
          1   -1    0    0  501    0  0.00000000000E+00  0.00000000000E+00  0.96523688869E+02  0.96523688869E+02  0.00000000000E+00 0. -1.
         -1   -1    0    0    0  501 -0.00000000000E+00 -0.00000000000E+00 -0.16193013105E+03  0.16193013105E+03  0.00000000000E+00 0.  1.
         25    2    1    2    0    0 -0.28138970066E+02  0.49845080953E+02 -0.65951759393E+02  0.15256025736E+03  0.12509461949E+03 0.  0.
         23    2    1    2    0    0  0.28138970066E+02 -0.49845080953E+02  0.54531720985E+00  0.10589356256E+03  0.89088806758E+02 0.  0.
          5    1    3    3  502    0 -0.61854623023E+02  0.68829329375E+02 -0.24747495951E+02  0.95882125171E+02  0.41800000000E+01 0. -1.
         -5    1    3    3    0  502  0.33715652957E+02 -0.18984248422E+02 -0.41204263441E+02  0.56678132187E+02  0.41800000000E+01 0. -1.
        -11    1    4    4    0    0 -0.33308964064E+01 -0.14470381183E+02 -0.40560210772E+02  0.43192794542E+02  0.00000000000E+00 0.  1.
         11    1    4    4    0    0  0.31469866473E+02 -0.35374699769E+02  0.41105527982E+02  0.62700768020E+02  0.00000000000E+00 0. -1.
</event>
<event>
 8    1  0.3719512E-009  0.3808605E+02  0.7561462E-02  0.1522788E+00
          1   -1    0    0  501    0  0.00000000000E+00  0.00000000000E+00  0.35878164097E+03  0.35878164097E+03  0.00000000000E+00 0. -1.
         -1   -1    0    0    0  501 -0.00000000000E+00 -0.00000000000E+00 -0.43138294456E+02  0.43138294456E+02  0.00000000000E+00 0.  1.
         25    2    1    2    0    0  0.18267347701E+02  0.30579572263E+02  0.25914641273E+03  0.28995157601E+03  0.12508495901E+03 0.  0.
         23    2    1    2    0    0 -0.18267347701E+02 -0.30579572263E+02  0.56496933788E+02  0.11196835942E+03  0.89867701379E+02 0.  0.
          5    1    3    3  502    0  0.70465593717E+01  0.25369784120E+02 -0.35814219373E+01  0.26899422454E+02  0.41800000000E+01 0. -1.
         -5    1    3    3    0  502  0.11220788329E+02  0.52097881432E+01  0.26272783466E+03  0.26305215356E+03  0.41800000000E+01 0. -1.
        -11    1    4    4    0    0 -0.11462381734E+02 -0.11672945020E+02 -0.23975396786E+02  0.29025221644E+02  0.00000000000E+00 0.  1.
         11    1    4    4    0    0 -0.68049659664E+01 -0.18906627242E+02  0.80472330574E+02  0.82943137772E+02  0.00000000000E+00 0. -1.
</event>
<event>
 8    1  0.3719512E-009  0.1762810E+03  0.7561462E-02  0.1171452E+00
          1   -1    0    0  501    0  0.00000000000E+00  0.00000000000E+00  0.11416935398E+04  0.11416935398E+04  0.00000000000E+00 0. -1.
         -1   -1    0    0    0  501 -0.00000000000E+00 -0.00000000000E+00 -0.29108965432E+02  0.29108965432E+02  0.00000000000E+00 0.  1.
         25    2    1    2    0    0  0.13567488156E+03 -0.44536274707E+02  0.49262015771E+03  0.52793245123E+03  0.12508756944E+03 0.  0.
         23    2    1    2    0    0 -0.13567488156E+03  0.44536274707E+02  0.61996441670E+03  0.64287005405E+03  0.92384388075E+02 0.  0.
          5    1    3    3  502    0  0.22248421782E+02  0.37421606025E+02  0.68210182948E+02  0.81027589913E+02  0.41800000000E+01 0.  1.
         -5    1    3    3    0  502  0.11342645978E+03 -0.81957880732E+02  0.42440997476E+03  0.44690486132E+03  0.41800000000E+01 0.  1.
        -11    1    4    4    0    0 -0.87117470343E+02  0.72017438484E+02  0.45018063705E+03  0.46415360718E+03  0.00000000000E+00 0. -1.
         11    1    4    4    0    0 -0.48557411218E+02 -0.27481163777E+02  0.16978377965E+03  0.17871644687E+03  0.00000000000E+00 0.  1.
</event>
<event>
 8    1  0.3719512E-009  0.1385214E+03  0.7561462E-02  0.1215332E+00
         -2   -1    0    0    0  501 -0.00000000000E+00  0.00000000000E+00  0.88638329337E+02  0.88638329337E+02  0.00000000000E+00 0.  1.
          2   -1    0    0  501    0  0.00000000000E+00 -0.00000000000E+00 -0.53032018889E+03  0.53032018889E+03  0.00000000000E+00 0. -1.
         25    2    1    2    0    0  0.43811617606E+02 -0.11415317292E+03 -0.43452977198E+03  0.46841704694E+03  0.12509197577E+03 0.  0.
         23    2    1    2    0    0 -0.43811617606E+02  0.11415317292E+03 -0.71520875692E+01  0.15054147128E+03  0.87528152579E+02 0.  0.
          5    1    3    3  502    0  0.66151806077E+02 -0.10370261756E+03 -0.42360098120E+03  0.44111853057E+03  0.41800000000E+01 0. -1.
         -5    1    3    3    0  502 -0.22340188472E+02 -0.10450555359E+02 -0.10928790782E+02  0.27298516374E+02  0.41800000000E+01 0. -1.
        -11    1    4    4    0    0 -0.21006665189E+02  0.99841444820E+02  0.28436302926E+02  0.10591608665E+03  0.00000000000E+00 0. -1.
         11    1    4    4    0    0 -0.22804952417E+02  0.14311728103E+02 -0.35588390495E+02  0.44625384638E+02  0.00000000000E+00 0.  1.
</event>
<event>
 8    1  0.3719512E-009  0.9961363E+02  0.7561462E-02  0.1281111E+00
         -3   -1    0    0    0  501 -0.00000000000E+00  0.00000000000E+00  0.46797611654E+03  0.46797611654E+03  0.00000000000E+00 0.  1.
          3   -1    0    0  501    0  0.00000000000E+00 -0.00000000000E+00 -0.30835555751E+02  0.30835555751E+02  0.00000000000E+00 0. -1.
         25    2    1    2    0    0  0.28808334747E+02  0.47912786569E+02  0.25729110949E+03  0.29149867587E+03  0.12508879944E+03 0.  0.
         23    2    1    2    0    0 -0.28808334747E+02 -0.47912786569E+02  0.17984945131E+03  0.20731299642E+03  0.86644665636E+02 0.  0.
          5    1    3    3  502    0 -0.41765064322E+02  0.41462056851E+02  0.72073382617E+02  0.93142190430E+02  0.41800000000E+01 0. -1.
         -5    1    3    3    0  502  0.70573399069E+02  0.64507297181E+01  0.18521772687E+03  0.19835648544E+03  0.41800000000E+01 0. -1.
        -11    1    4    4    0    0 -0.13467369300E+01 -0.40863191852E+02  0.21018930629E+02  0.45971834784E+02  0.00000000000E+00 0. -1.
         11    1    4    4    0    0 -0.27461597817E+02 -0.70495947173E+01  0.15883052068E+03  0.16134116164E+03  0.00000000000E+00 0.  1.
</event>
<event>
 8    1  0.3719512E-009  0.1203591E+03  0.7561462E-02  0.1242506E+00
         -1   -1    0    0    0  501 -0.00000000000E+00  0.00000000000E+00  0.16167672336E+03  0.16167672336E+03  0.00000000000E+00 0.  1.
          1   -1    0    0  501    0  0.00000000000E+00 -0.00000000000E+00 -0.13932265823E+03  0.13932265823E+03  0.00000000000E+00 0. -1.
         25    2    1    2    0    0 -0.91046902687E+02  0.26688628833E+02 -0.25199136768E+02  0.15901364551E+03  0.12509405089E+03 0.  0.
         23    2    1    2    0    0  0.91046902687E+02 -0.26688628833E+02  0.47553201897E+02  0.14198573608E+03  0.94322960311E+02 0.  0.
          5    1    3    3  502    0 -0.57745092504E+02  0.40609379347E+02  0.42265687039E+02  0.82386152356E+02  0.41800000000E+01 0.  1.
         -5    1    3    3    0  502 -0.33301810183E+02 -0.13920750514E+02 -0.67464823806E+02  0.76627493157E+02  0.41800000000E+01 0.  1.
        -11    1    4    4    0    0 -0.43326083891E+01 -0.37431791906E+02  0.16146936912E+02  0.40995537713E+02  0.00000000000E+00 0. -1.
         11    1    4    4    0    0  0.95379511076E+02  0.10743163074E+02  0.31406264985E+02  0.10099019837E+03  0.00000000000E+00 0.  1.
</event>
<event>
 8    1  0.3719512E-009  0.1245066E+03  0.7561462E-02  0.1235842E+00
         -1   -1    0    0    0  501 -0.00000000000E+00  0.00000000000E+00  0.63688000337E+03  0.63688000337E+03  0.00000000000E+00 0.  1.
          1   -1    0    0  501    0  0.00000000000E+00 -0.00000000000E+00 -0.29185991230E+02  0.29185991230E+02  0.00000000000E+00 0. -1.
         25    2    1    2    0    0  0.27365116999E+02 -0.74701041860E+02  0.29797476654E+03  0.33280794379E+03  0.12507226178E+03 0.  0.
         23    2    1    2    0    0 -0.27365116999E+02  0.74701041860E+02  0.30971924559E+03  0.33325805081E+03  0.93839341722E+02 0.  0.
          5    1    3    3  502    0 -0.35684648754E+02  0.37416663372E+01  0.31489667216E+02  0.47921454120E+02  0.41800000000E+01 0.  1.
         -5    1    3    3    0  502  0.63049765753E+02 -0.78442708198E+02  0.26648509933E+03  0.28488648967E+03  0.41800000000E+01 0.  1.
        -11    1    4    4    0    0  0.81794773465E+01  0.76150744923E+02  0.26646848606E+03  0.27725672916E+03  0.00000000000E+00 0.  1.
         11    1    4    4    0    0 -0.35544594346E+02 -0.14497030630E+01  0.43250759537E+02  0.56001321651E+02  0.00000000000E+00 0. -1.
</event>
<event>
 8    1  0.3719512E-009  0.1239683E+03  0.7561462E-02  0.1236691E+00
          2   -1    0    0  501    0  0.00000000000E+00  0.00000000000E+00  0.10531628491E+04  0.10531628491E+04  0.00000000000E+00 0. -1.
         -2   -1    0    0    0  501 -0.00000000000E+00 -0.00000000000E+00 -0.23571903526E+02  0.23571903526E+02  0.00000000000E+00 0.  1.
         25    2    1    2    0    0 -0.82314517497E+02 -0.24068753984E+02  0.80295231446E+03  0.81715150419E+03  0.12509666981E+03 0.  0.
         23    2    1    2    0    0  0.82314517497E+02  0.24068753984E+02  0.22663863110E+03  0.25958324842E+03  0.93077435738E+02 0.  0.
          5    1    3    3  502    0 -0.35209662498E+02  0.40471114687E+02  0.52970926161E+03  0.53243497790E+03  0.41800000000E+01 0.  1.
         -5    1    3    3    0  502 -0.47104854999E+02 -0.64539868671E+02  0.27324305285E+03  0.28471652629E+03  0.41800000000E+01 0.  1.
        -11    1    4    4    0    0  0.39729654220E+02  0.50304718601E+02  0.18046423080E+03  0.19151070136E+03  0.00000000000E+00 0. -1.
         11    1    4    4    0    0  0.42584863277E+02 -0.26235964617E+02  0.46174400299E+02  0.68072547056E+02  0.00000000000E+00 0.  1.
</event>
<event>
 8    1  0.3719512E-009  0.2907068E+03  0.7561462E-02  0.1089981E+00
         -1   -1    0    0    0  501 -0.00000000000E+00  0.00000000000E+00  0.51660438652E+02  0.51660438652E+02  0.00000000000E+00 0.  1.
          1   -1    0    0  501    0  0.00000000000E+00 -0.00000000000E+00 -0.18143505579E+04  0.18143505579E+04  0.00000000000E+00 0. -1.
         25    2    1    2    0    0 -0.58002532223E+02 -0.28000624587E+03 -0.85271672452E+03  0.90804163171E+03  0.12508397653E+03 0.  0.
         23    2    1    2    0    0  0.58002532223E+02  0.28000624587E+03 -0.90997339468E+03  0.95796936479E+03  0.88802777970E+02 0.  0.
          5    1    3    3  502    0  0.58950368907E+01 -0.23602241399E+02 -0.13370059895E+02  0.28072195507E+02  0.41800000000E+01 0. -1.
         -5    1    3    3    0  502 -0.63897569113E+02 -0.25640400447E+03 -0.83934666462E+03  0.87996943621E+03  0.41800000000E+01 0. -1.
        -11    1    4    4    0    0  0.80914194158E+00  0.15477797629E+03 -0.58297061053E+03  0.60316797777E+03  0.00000000000E+00 0.  1.
         11    1    4    4    0    0  0.57193390281E+02  0.12522826958E+03 -0.32700278415E+03  0.35480138702E+03  0.00000000000E+00 0. -1.
</event>
<event>
 8    1  0.3719512E-009  0.1739864E+03  0.7561462E-02  0.1173753E+00
          2   -1    0    0  501    0  0.00000000000E+00  0.00000000000E+00  0.35341704343E+03  0.35341704343E+03  0.00000000000E+00 0.  1.
         -2   -1    0    0    0  501 -0.00000000000E+00 -0.00000000000E+00 -0.10690043884E+03  0.10690043884E+03  0.00000000000E+00 0. -1.
         25    2    1    2    0    0 -0.12486868361E+03 -0.99884860496E+02  0.10450041979E+03  0.22833621279E+03  0.12509162575E+03 0.  0.
         23    2    1    2    0    0  0.12486868361E+03  0.99884860496E+02  0.14201618481E+03  0.23198126948E+03  0.89875130821E+02 0.  0.
          5    1    3    3  502    0  0.16170640731E+02 -0.15972687167E+02 -0.12940592046E+02  0.26486745355E+02  0.41800000000E+01 0. -1.
         -5    1    3    3    0  502 -0.14103932434E+03 -0.83912173329E+02  0.11744101183E+03  0.20184946743E+03  0.41800000000E+01 0. -1.
        -11    1    4    4    0    0  0.90289466376E+02  0.62747634320E+02  0.38149956719E+02  0.11638244090E+03  0.00000000000E+00 0. -1.
         11    1    4    4    0    0  0.34579217231E+02  0.37137226176E+02  0.10386622809E+03  0.11559882859E+03  0.00000000000E+00 0.  1.
</event>
<event>
 8    1  0.3719512E-009  0.1355679E+03  0.7561462E-02  0.1219420E+00
         -2   -1    0    0    0  501 -0.00000000000E+00  0.00000000000E+00  0.25427817848E+03  0.25427817848E+03  0.00000000000E+00 0.  1.
          2   -1    0    0  501    0  0.00000000000E+00 -0.00000000000E+00 -0.93827834675E+02  0.93827834675E+02  0.00000000000E+00 0. -1.
         25    2    1    2    0    0  0.98323368167E+02 -0.43336590410E+02  0.59630990970E+02  0.17535297783E+03  0.12508903611E+03 0.  0.
         23    2    1    2    0    0 -0.98323368167E+02  0.43336590410E+02  0.10081935283E+03  0.17275303532E+03  0.90186054969E+02 0.  0.
          5    1    3    3  502    0  0.10576322536E+03 -0.75286365906E+02  0.36252585600E+02  0.13485406591E+03  0.41800000000E+01 0. -1.
         -5    1    3    3    0  502 -0.74398571930E+01  0.31949775495E+02  0.23378405371E+02  0.40498911923E+02  0.41800000000E+01 0. -1.
        -11    1    4    4    0    0 -0.80656569816E+02  0.30057126365E+02  0.19194823744E+02  0.88189309774E+02  0.00000000000E+00 0. -1.
         11    1    4    4    0    0 -0.17666798351E+02  0.13279464046E+02  0.81624529090E+02  0.84563725548E+02  0.00000000000E+00 0.  1.
</event>
<event>
 8    1  0.3719512E-009  0.1524761E+03  0.7561462E-02  0.1197463E+00
          1   -1    0    0  501    0  0.00000000000E+00  0.00000000000E+00  0.14559507492E+03  0.14559507492E+03  0.00000000000E+00 0. -1.
         -1   -1    0    0    0  501 -0.00000000000E+00 -0.00000000000E+00 -0.23106502781E+03  0.23106502781E+03  0.00000000000E+00 0.  1.
         25    2    1    2    0    0  0.12192051934E+03 -0.72263264008E+02 -0.36903791170E+01  0.18907005858E+03  0.12508907143E+03 0.  0.
         23    2    1    2    0    0 -0.12192051934E+03  0.72263264008E+02 -0.81779573767E+02  0.18759004415E+03  0.91736217582E+02 0.  0.
          5    1    3    3  502    0  0.15177400668E+02  0.17554194941E+02 -0.38574492859E+02  0.45210254925E+02  0.41800000000E+01 0. -1.
         -5    1    3    3    0  502  0.10674311868E+03 -0.89817458949E+02  0.34884113742E+02  0.14385980366E+03  0.41800000000E+01 0. -1.
        -11    1    4    4    0    0 -0.83874690198E+02  0.52252429862E+02 -0.10028206941E+03  0.14078982039E+03  0.00000000000E+00 0.  1.
         11    1    4    4    0    0 -0.38045829147E+02  0.20010834146E+02  0.18502495639E+02  0.46800223756E+02  0.00000000000E+00 0. -1.
</event>
<event>
 8    1  0.3719512E-009  0.1628762E+03  0.7561462E-02  0.1185487E+00
          3   -1    0    0  501    0  0.00000000000E+00  0.00000000000E+00  0.10037008855E+03  0.10037008855E+03  0.00000000000E+00 0. -1.
         -3   -1    0    0    0  501 -0.00000000000E+00 -0.00000000000E+00 -0.32645454055E+03  0.32645454055E+03  0.00000000000E+00 0.  1.
         25    2    1    2    0    0  0.32326928844E+02  0.13146758665E+03 -0.18061905328E+03  0.25806848493E+03  0.12508934343E+03 0.  0.
         23    2    1    2    0    0 -0.32326928844E+02 -0.13146758665E+03 -0.45465398715E+02  0.16875614417E+03  0.89904266003E+02 0.  0.
          5    1    3    3  502    0 -0.40357956072E+02  0.92922005232E+02 -0.10953161646E+03  0.14925786773E+03  0.41800000000E+01 0.  1.
         -5    1    3    3    0  502  0.72684884916E+02  0.38545581417E+02 -0.71087436819E+02  0.10881061720E+03  0.41800000000E+01 0.  1.
        -11    1    4    4    0    0 -0.42044754615E+02 -0.89249131744E+02 -0.68098966078E+02  0.11987759627E+03  0.00000000000E+00 0.  1.
         11    1    4    4    0    0  0.97178257715E+01 -0.42218454905E+02  0.22633567363E+02  0.48878547890E+02  0.00000000000E+00 0. -1.
</event>
<event>
 8    1  0.3719512E-009  0.1039000E+03  0.7561462E-02  0.1272302E+00
         -1   -1    0    0    0  501 -0.00000000000E+00  0.00000000000E+00  0.24632280835E+02  0.24632280835E+02  0.00000000000E+00 0.  1.
          1   -1    0    0  501    0  0.00000000000E+00 -0.00000000000E+00 -0.66199413863E+03  0.66199413863E+03  0.00000000000E+00 0. -1.
         25    2    1    2    0    0  0.27143614125E+01 -0.53001745063E+02 -0.46547331612E+03  0.48490142190E+03  0.12508968064E+03 0.  0.
         23    2    1    2    0    0 -0.27143614125E+01  0.53001745063E+02 -0.17188854167E+03  0.20172499756E+03  0.91272948596E+02 0.  0.
          5    1    3    3  502    0  0.10291051523E+02 -0.89698754998E+02 -0.39239692132E+03  0.40267181258E+03  0.41800000000E+01 0.  1.
         -5    1    3    3    0  502 -0.75766901103E+01  0.36697009935E+02 -0.73076394806E+02  0.82229609321E+02  0.41800000000E+01 0.  1.
        -11    1    4    4    0    0 -0.29719856148E+02  0.39747671359E+02 -0.16295305001E+03  0.17034331139E+03  0.00000000000E+00 0. -1.
         11    1    4    4    0    0  0.27005494736E+02  0.13254073704E+02 -0.89354916618E+01  0.31381686171E+02  0.00000000000E+00 0.  1.
</event>
<event>
 8    1  0.3719512E-009  0.7217434E+02  0.7561462E-02  0.1352851E+00
         -2   -1    0    0    0  501 -0.00000000000E+00  0.00000000000E+00  0.36441898909E+02  0.36441898909E+02  0.00000000000E+00 0.  1.
          2   -1    0    0  501    0  0.00000000000E+00 -0.00000000000E+00 -0.33320621946E+03  0.33320621946E+03  0.00000000000E+00 0. -1.
         25    2    1    2    0    0  0.41706712438E+01 -0.21556314141E+02 -0.16456731313E+03  0.20787665315E+03  0.12509289825E+03 0.  0.
         23    2    1    2    0    0 -0.41706712438E+01  0.21556314141E+02 -0.13219700741E+03  0.16177146522E+03  0.90619473694E+02 0.  0.
          5    1    3    3  502    0 -0.12937412324E+02 -0.49379846254E+02 -0.16717494754E+03  0.17484473495E+03  0.41800000000E+01 0.  1.
         -5    1    3    3    0  502  0.17108083568E+02  0.27823532113E+02  0.26076344060E+01  0.33031918197E+02  0.41800000000E+01 0.  1.
        -11    1    4    4    0    0  0.19001039733E+02  0.30024562190E+02 -0.13241549405E+03  0.13709987932E+03  0.00000000000E+00 0. -1.
         11    1    4    4    0    0 -0.23171710977E+02 -0.84682480493E+01  0.21848663078E+00  0.24671585904E+02  0.00000000000E+00 0.  1.
</event>
<event>
 8    1  0.3719512E-009  0.1061797E+03  0.7561462E-02  0.1267813E+00
          1   -1    0    0  501    0  0.00000000000E+00  0.00000000000E+00  0.12077882064E+03  0.12077882064E+03  0.00000000000E+00 0. -1.
         -1   -1    0    0    0  501 -0.00000000000E+00 -0.00000000000E+00 -0.10016012582E+03  0.10016012582E+03  0.00000000000E+00 0.  1.
         25    2    1    2    0    0 -0.15411670453E+02  0.20305268609E+02  0.18468156528E+02  0.12898985303E+03  0.12508991110E+03 0.  0.
         23    2    1    2    0    0  0.15411670453E+02 -0.20305268609E+02  0.21505382946E+01  0.91949093423E+02  0.88318669866E+02 0.  0.
          5    1    3    3  502    0 -0.68288586387E+02  0.86290426998E+00  0.23325579351E+02  0.72288523892E+02  0.41800000000E+01 0. -1.
         -5    1    3    3    0  502  0.52876915933E+02  0.19442364339E+02 -0.48574228230E+01  0.56701329140E+02  0.41800000000E+01 0. -1.
        -11    1    4    4    0    0 -0.28178866298E+02 -0.31675544927E+02 -0.13124720611E+02  0.44380704629E+02  0.00000000000E+00 0.  1.
         11    1    4    4    0    0  0.43590536751E+02  0.11370276319E+02  0.15275258906E+02  0.47568388794E+02  0.00000000000E+00 0. -1.
</event>
<event>
 8    1  0.3719512E-009  0.1064441E+03  0.7561462E-02  0.1267300E+00
         -1   -1    0    0    0  501 -0.00000000000E+00  0.00000000000E+00  0.68587479376E+02  0.68587479376E+02  0.00000000000E+00 0.  1.
          1   -1    0    0  501    0  0.00000000000E+00 -0.00000000000E+00 -0.30097258905E+03  0.30097258905E+03  0.00000000000E+00 0. -1.
         25    2    1    2    0    0  0.79770704308E+02 -0.34710149421E+02 -0.17632274565E+03  0.23303771399E+03  0.12509478714E+03 0.  0.
         23    2    1    2    0    0 -0.79770704308E+02  0.34710149421E+02 -0.56062364024E+02  0.13652235444E+03  0.89034851955E+02 0.  0.
          5    1    3    3  502    0  0.51623727303E+02 -0.15422243626E+02 -0.18886532099E+03  0.19644448756E+03  0.41800000000E+01 0. -1.
         -5    1    3    3    0  502  0.28146977005E+02 -0.19287905796E+02  0.12542575340E+02  0.36593226431E+02  0.41800000000E+01 0. -1.
        -11    1    4    4    0    0 -0.13475269992E+01  0.45314625320E+02 -0.21201865908E+02  0.50047479606E+02  0.00000000000E+00 0. -1.
         11    1    4    4    0    0 -0.78423177308E+02 -0.10604475899E+02 -0.34860498116E+02  0.86474874831E+02  0.00000000000E+00 0.  1.
</event>
<event>
 8    1  0.3719512E-009  0.8559592E+02  0.7561462E-02  0.1313881E+00
          1   -1    0    0  501    0  0.00000000000E+00  0.00000000000E+00  0.49101342833E+02  0.49101342833E+02  0.00000000000E+00 0. -1.
         -1   -1    0    0    0  501 -0.00000000000E+00 -0.00000000000E+00 -0.26396813506E+03  0.26396813506E+03  0.00000000000E+00 0.  1.
         25    2    1    2    0    0  0.34816139666E+01  0.72848703191E+01 -0.75290470734E+02  0.14622028611E+03  0.12508607483E+03 0.  0.
         23    2    1    2    0    0 -0.34816139666E+01 -0.72848703191E+01 -0.13957632149E+03  0.16684919178E+03  0.91059937976E+02 0.  0.
          5    1    3    3  502    0  0.28789785661E+02  0.59927886818E+02 -0.36256222278E+02  0.75843189746E+02  0.41800000000E+01 0.  1.
         -5    1    3    3    0  502 -0.25308171695E+02 -0.52643016499E+02 -0.39034248456E+02  0.70377096368E+02  0.41800000000E+01 0.  1.
        -11    1    4    4    0    0 -0.24326914861E+02 -0.14527338895E+01 -0.14288817059E+03  0.14495150402E+03  0.00000000000E+00 0.  1.
         11    1    4    4    0    0  0.20845300894E+02 -0.58321364297E+01  0.33118490992E+01  0.21897687758E+02  0.00000000000E+00 0. -1.
</event>
<event>
 8    1  0.3719512E-009  0.1392589E+03  0.7561462E-02  0.1214330E+00
          2   -1    0    0  501    0  0.00000000000E+00  0.00000000000E+00  0.34205324926E+03  0.34205324926E+03  0.00000000000E+00 0. -1.
         -2   -1    0    0    0  501 -0.00000000000E+00 -0.00000000000E+00 -0.72190491331E+02  0.72190491331E+02  0.00000000000E+00 0.  1.
         25    2    1    2    0    0 -0.52604237267E+02  0.81051546333E+02  0.60945354461E+02  0.16941033337E+03  0.12509582679E+03 0.  0.
         23    2    1    2    0    0  0.52604237267E+02 -0.81051546333E+02  0.20891740347E+03  0.24483340722E+03  0.83428753305E+02 0.  0.
          5    1    3    3  502    0  0.40500284296E+02  0.14827427339E+02  0.11400168165E+02  0.44805823993E+02  0.41800000000E+01 0.  1.
         -5    1    3    3    0  502 -0.93104521563E+02  0.66224118994E+02  0.49545186296E+02  0.12460450938E+03  0.41800000000E+01 0.  1.
        -11    1    4    4    0    0 -0.85448363971E+00 -0.65046895650E+02  0.15095130669E+03  0.16437191295E+03  0.00000000000E+00 0. -1.
         11    1    4    4    0    0  0.53458720906E+02 -0.16004650683E+02  0.57966096783E+02  0.80461494273E+02  0.00000000000E+00 0.  1.
</event>
<event>
 8    1  0.3719512E-009  0.1661329E+03  0.7561462E-02  0.1181942E+00
         -1   -1    0    0    0  501 -0.00000000000E+00  0.00000000000E+00  0.11057300459E+04  0.11057300459E+04  0.00000000000E+00 0.  1.
          1   -1    0    0  501    0  0.00000000000E+00 -0.00000000000E+00 -0.37242828234E+02  0.37242828234E+02  0.00000000000E+00 0. -1.
         25    2    1    2    0    0  0.13717068356E+03  0.59363278015E+02  0.78058195973E+03  0.80454668826E+03  0.12508949805E+03 0.  0.
         23    2    1    2    0    0 -0.13717068356E+03 -0.59363278015E+02  0.28790525789E+03  0.33842618584E+03  0.96452322593E+02 0.  0.
          5    1    3    3  502    0  0.69755202951E+02  0.97028396679E+01  0.61417981607E+03  0.61821861206E+03  0.41800000000E+01 0. -1.
         -5    1    3    3    0  502  0.67415480606E+02  0.49660438347E+02  0.16640214367E+03  0.18632807620E+03  0.41800000000E+01 0. -1.
        -11    1    4    4    0    0  0.96174693618E+01 -0.25474877864E+02  0.43138899105E+02  0.51014015085E+02  0.00000000000E+00 0.  1.
         11    1    4    4    0    0 -0.14678815292E+03 -0.33888400151E+02  0.24476635879E+03  0.28741217075E+03  0.00000000000E+00 0. -1.
</event>
<event>
 8    1  0.3719512E-009  0.1252173E+03  0.7561462E-02  0.1234730E+00
          3   -1    0    0  501    0  0.00000000000E+00  0.00000000000E+00  0.73144528875E+02  0.73144528875E+02  0.00000000000E+00 0. -1.
         -3   -1    0    0    0  501 -0.00000000000E+00 -0.00000000000E+00 -0.38498860623E+03  0.38498860623E+03  0.00000000000E+00 0.  1.
         25    2    1    2    0    0  0.25923320327E+02  0.12011522852E+03 -0.21120450012E+03  0.27450874252E+03  0.12509205487E+03 0.  0.
         23    2    1    2    0    0 -0.25923320327E+02 -0.12011522852E+03 -0.10063957724E+03  0.18362439259E+03  0.92140688009E+02 0.  0.
          5    1    3    3  502    0  0.32391643368E+02  0.80742277120E+02 -0.21713642777E+03  0.23395348798E+03  0.41800000000E+01 0. -1.
         -5    1    3    3    0  502 -0.64683230405E+01  0.39372951400E+02  0.59319276538E+01  0.40555254538E+02  0.41800000000E+01 0. -1.
        -11    1    4    4    0    0 -0.19188547402E+02 -0.10394403475E+03 -0.11837351196E+03  0.15869735677E+03  0.00000000000E+00 0.  1.
         11    1    4    4    0    0 -0.67347729255E+01 -0.16171193770E+02  0.17733934716E+02  0.24927035821E+02  0.00000000000E+00 0. -1.
</event>
<event>
 8    1  0.3719512E-009  0.1073369E+03  0.7561462E-02  0.1265583E+00
          2   -1    0    0  501    0  0.00000000000E+00  0.00000000000E+00  0.52007134739E+02  0.52007134739E+02  0.00000000000E+00 0. -1.
         -2   -1    0    0    0  501 -0.00000000000E+00 -0.00000000000E+00 -0.30625870294E+03  0.30625870294E+03  0.00000000000E+00 0.  1.
         25    2    1    2    0    0 -0.39224197362E+02  0.25690895451E+02 -0.78996979961E+02  0.15519885972E+03  0.12509038112E+03 0.  0.
         23    2    1    2    0    0  0.39224197362E+02 -0.25690895451E+02 -0.17525458824E+03  0.20306697795E+03  0.91233037156E+02 0.  0.
          5    1    3    3  502    0 -0.77240382323E+02  0.40668005482E+02 -0.72633251122E+02  0.11363549137E+03  0.41800000000E+01 0. -1.
         -5    1    3    3    0  502  0.38016184961E+02 -0.14977110032E+02 -0.63637288389E+01  0.41563368350E+02  0.41800000000E+01 0. -1.
        -11    1    4    4    0    0  0.81482654929E+01 -0.47531490552E+02 -0.14972926481E+03  0.15730381294E+03  0.00000000000E+00 0.  1.
         11    1    4    4    0    0  0.31075931869E+02  0.21840595101E+02 -0.25525323426E+02  0.45763165012E+02  0.00000000000E+00 0. -1.
</event>
<event>
 8    1  0.3719512E-009  0.1075409E+03  0.7561462E-02  0.1265193E+00
          2   -1    0    0  501    0  0.00000000000E+00  0.00000000000E+00  0.23329119324E+02  0.23329119324E+02  0.00000000000E+00 0.  1.
         -2   -1    0    0    0  501 -0.00000000000E+00 -0.00000000000E+00 -0.16010694288E+04  0.16010694288E+04  0.00000000000E+00 0. -1.
         25    2    1    2    0    0 -0.27491914023E+02 -0.23847944205E+02 -0.14608533164E+04  0.14666505070E+04  0.12508704119E+03 0.  0.
         23    2    1    2    0    0  0.27491914023E+02  0.23847944205E+02 -0.11688699309E+03  0.15774804114E+03  0.99485403702E+02 0.  0.
          5    1    3    3  502    0 -0.53755826861E+02 -0.51105193787E+02 -0.12619305694E+04  0.12641153682E+04  0.41800000000E+01 0. -1.
         -5    1    3    3    0  502  0.26263912838E+02  0.27257249582E+02 -0.19892274700E+03  0.20253513879E+03  0.41800000000E+01 0. -1.
        -11    1    4    4    0    0 -0.27286607749E+02 -0.18928196613E+02 -0.57168443520E+02  0.66114041807E+02  0.00000000000E+00 0. -1.
         11    1    4    4    0    0  0.54778521772E+02  0.42776140818E+02 -0.59718549574E+02  0.91633999334E+02  0.00000000000E+00 0.  1.
</event>
<event>
 8    1  0.3719512E-009  0.1484969E+03  0.7561462E-02  0.1202332E+00
         -2   -1    0    0    0  501 -0.00000000000E+00  0.00000000000E+00  0.49301749912E+02  0.49301749912E+02  0.00000000000E+00 0.  1.
          2   -1    0    0  501    0  0.00000000000E+00 -0.00000000000E+00 -0.47338207283E+03  0.47338207283E+03  0.00000000000E+00 0. -1.
         25    2    1    2    0    0 -0.27345764974E+02  0.10286397574E+03 -0.23888591461E+03  0.28989626824E+03  0.12507828658E+03 0.  0.
         23    2    1    2    0    0  0.27345764974E+02 -0.10286397574E+03 -0.18519440831E+03  0.23278755451E+03  0.92543440055E+02 0.  0.
          5    1    3    3  502    0 -0.48914532025E+02  0.12075721529E+03 -0.16186330238E+03  0.20782718192E+03  0.41800000000E+01 0. -1.
         -5    1    3    3    0  502  0.21568767052E+02 -0.17893239558E+02 -0.77022612230E+02  0.82069086316E+02  0.41800000000E+01 0. -1.
        -11    1    4    4    0    0 -0.13796340186E+02 -0.95520624108E+02 -0.10678619030E+03  0.14393685793E+03  0.00000000000E+00 0.  1.
         11    1    4    4    0    0  0.41142105159E+02 -0.73433516273E+01 -0.78408218011E+02  0.88850696574E+02  0.00000000000E+00 0. -1.
</event>
<event>
 8    1  0.3719512E-009  0.9872794E+02  0.7561462E-02  0.1282994E+00
         -1   -1    0    0    0  501 -0.00000000000E+00  0.00000000000E+00  0.11963052962E+03  0.11963052962E+03  0.00000000000E+00 0.  1.
          1   -1    0    0  501    0  0.00000000000E+00 -0.00000000000E+00 -0.13899924410E+03  0.13899924410E+03  0.00000000000E+00 0. -1.
         25    2    1    2    0    0  0.51920574936E+02  0.34179243344E+01  0.35488935362E+02  0.14004556092E+03  0.12508343732E+03 0.  0.
         23    2    1    2    0    0 -0.51920574936E+02 -0.34179243344E+01 -0.54857649838E+02  0.11858421280E+03  0.91353300275E+02 0.  0.
          5    1    3    3  502    0  0.61859148479E+02  0.26276727920E+02 -0.27068556033E+02  0.72575476618E+02  0.41800000000E+01 0.  1.
         -5    1    3    3    0  502 -0.99385735432E+01 -0.22858803585E+02  0.62557491395E+02  0.67470084297E+02  0.41800000000E+01 0.  1.
        -11    1    4    4    0    0 -0.21223798024E+02 -0.46980292991E+02 -0.22581443560E+02  0.56280717172E+02  0.00000000000E+00 0.  1.
         11    1    4    4    0    0 -0.30696776911E+02  0.43562368657E+02 -0.32276206278E+02  0.62303495628E+02  0.00000000000E+00 0. -1.
</event>
<event>
 8    1  0.3719512E-009  0.8734892E+02  0.7561462E-02  0.1309402E+00
         -2   -1    0    0    0  501 -0.00000000000E+00  0.00000000000E+00  0.19350420259E+02  0.19350420259E+02  0.00000000000E+00 0.  1.
          2   -1    0    0  501    0  0.00000000000E+00 -0.00000000000E+00 -0.92667447003E+03  0.92667447003E+03  0.00000000000E+00 0. -1.
         25    2    1    2    0    0  0.51061302302E+02  0.95984233604E+00 -0.71015205282E+03  0.72289069242E+03  0.12508731824E+03 0.  0.
         23    2    1    2    0    0 -0.51061302302E+02 -0.95984233604E+00 -0.19717199695E+03  0.22313419786E+03  0.91125715273E+02 0.  0.
          5    1    3    3  502    0 -0.57337324123E+01 -0.10384493579E+02 -0.58268120091E+03  0.58281692467E+03  0.41800000000E+01 0.  1.
         -5    1    3    3    0  502  0.56795034714E+02  0.11344335915E+02 -0.12747085191E+03  0.14007376775E+03  0.41800000000E+01 0.  1.
        -11    1    4    4    0    0  0.11283854120E+02  0.31716337774E+02 -0.73280984360E+02  0.80643376135E+02  0.00000000000E+00 0.  1.
         11    1    4    4    0    0 -0.62345156421E+02 -0.32676180110E+02 -0.12389101259E+03  0.14249082173E+03  0.00000000000E+00 0. -1.
</event>
<event>
 8    1  0.3719512E-009  0.1227422E+03  0.7561462E-02  0.1238641E+00
         -1   -1    0    0    0  501 -0.00000000000E+00  0.00000000000E+00  0.63859400836E+02  0.63859400836E+02  0.00000000000E+00 0.  1.
          1   -1    0    0  501    0  0.00000000000E+00 -0.00000000000E+00 -0.24572559900E+03  0.24572559900E+03  0.00000000000E+00 0. -1.
         25    2    1    2    0    0 -0.43148794295E+02  0.41966067724E+02 -0.78389501521E+02  0.15941296130E+03  0.12507841137E+03 0.  0.
         23    2    1    2    0    0  0.43148794295E+02 -0.41966067724E+02 -0.10347669664E+03  0.15017203854E+03  0.90671082060E+02 0.  0.
          5    1    3    3  502    0  0.43361369703E+02  0.10843781445E+02 -0.38370546005E+02  0.59055627838E+02  0.41800000000E+01 0.  1.
         -5    1    3    3    0  502 -0.86510163998E+02  0.31122286279E+02 -0.40018955516E+02  0.10035733346E+03  0.41800000000E+01 0.  1.
        -11    1    4    4    0    0 -0.16346744628E+02 -0.46108189619E+02 -0.41381135809E+02  0.64074797001E+02  0.00000000000E+00 0.  1.
         11    1    4    4    0    0  0.59495538923E+02  0.41421218944E+01 -0.62095560835E+02  0.86097241541E+02  0.00000000000E+00 0. -1.
</event>
<event>
 8    1  0.3719512E-009  0.1006323E+03  0.7561462E-02  0.1278972E+00
         -1   -1    0    0    0  501 -0.00000000000E+00  0.00000000000E+00  0.40560257329E+02  0.40560257329E+02  0.00000000000E+00 0.  1.
          1   -1    0    0  501    0  0.00000000000E+00 -0.00000000000E+00 -0.35347188659E+03  0.35347188659E+03  0.00000000000E+00 0. -1.
         25    2    1    2    0    0 -0.41044863785E+02 -0.25661816005E+02 -0.19822970354E+03  0.23934131423E+03  0.12508413045E+03 0.  0.
         23    2    1    2    0    0  0.41044863785E+02  0.25661816005E+02 -0.11468192572E+03  0.15469082968E+03  0.91837351104E+02 0.  0.
          5    1    3    3  502    0  0.28188215918E+02 -0.61446650733E+01 -0.78674452182E+00  0.29162026549E+02  0.41800000000E+01 0.  1.
         -5    1    3    3    0  502 -0.69233079702E+02 -0.19517150932E+02 -0.19744295902E+03  0.21017928768E+03  0.41800000000E+01 0.  1.
        -11    1    4    4    0    0  0.43274989728E+02  0.55366450883E+02 -0.97871785493E+02  0.12048674207E+03  0.00000000000E+00 0. -1.
         11    1    4    4    0    0 -0.22301259429E+01 -0.29704634878E+02 -0.16810140225E+02  0.34204087612E+02  0.00000000000E+00 0.  1.
</event>
<event>
 8    1  0.3719512E-009  0.9730257E+02  0.7561462E-02  0.1286073E+00
         -1   -1    0    0    0  501 -0.00000000000E+00  0.00000000000E+00  0.25948663316E+02  0.25948663316E+02  0.00000000000E+00 0.  1.
          1   -1    0    0  501    0  0.00000000000E+00 -0.00000000000E+00 -0.12057599723E+04  0.12057599723E+04  0.00000000000E+00 0. -1.
         25    2    1    2    0    0  0.19376474464E+02  0.55116190226E+02 -0.10671374077E+04  0.10760309981E+04  0.12508884739E+03 0.  0.
         23    2    1    2    0    0 -0.19376474464E+02 -0.55116190226E+02 -0.11267390129E+03  0.15567763754E+03  0.90149190841E+02 0.  0.
          5    1    3    3  502    0 -0.29546387339E+02 -0.26624574771E+02 -0.42104687683E+03  0.42294184219E+03  0.41800000000E+01 0.  1.
         -5    1    3    3    0  502  0.48922861802E+02  0.81740764997E+02 -0.64609053086E+03  0.65308915589E+03  0.41800000000E+01 0.  1.
        -11    1    4    4    0    0 -0.15168135089E+02 -0.28243161228E+02  0.71156343502E+01  0.32838707807E+02  0.00000000000E+00 0.  1.
         11    1    4    4    0    0 -0.42083393742E+01 -0.26873028998E+02 -0.11978953564E+03  0.12283892973E+03  0.00000000000E+00 0. -1.
</event>
<event>
 8    1  0.3719512E-009  0.2713825E+03  0.7561462E-02  0.1100491E+00
          2   -1    0    0  501    0  0.00000000000E+00  0.00000000000E+00  0.15343461845E+04  0.15343461845E+04  0.00000000000E+00 0. -1.
         -2   -1    0    0    0  501 -0.00000000000E+00 -0.00000000000E+00 -0.48640878316E+02  0.48640878316E+02  0.00000000000E+00 0.  1.
         25    2    1    2    0    0 -0.23459050014E+03 -0.84723390509E+02  0.68964003565E+03  0.74394975656E+03  0.12508839217E+03 0.  0.
         23    2    1    2    0    0  0.23459050014E+03  0.84723390509E+02  0.79606527054E+03  0.83903730626E+03  0.89738122819E+02 0.  0.
          5    1    3    3  502    0 -0.19775686706E+02  0.28419393377E+02  0.64870858404E+02  0.73650800231E+02  0.41800000000E+01 0. -1.
         -5    1    3    3    0  502 -0.21481481344E+03 -0.11314278389E+03  0.62476917725E+03  0.67029895633E+03  0.41800000000E+01 0. -1.
        -11    1    4    4    0    0  0.15017248434E+03  0.98410398830E+02  0.54219983311E+03  0.57115413040E+03  0.00000000000E+00 0.  1.
         11    1    4    4    0    0  0.84418015799E+02 -0.13687008320E+02  0.25386543743E+03  0.26788317586E+03  0.00000000000E+00 0. -1.
</event>
<event>
 8    1  0.3719512E-009  0.1094199E+03  0.7561462E-02  0.1261648E+00
          4   -1    0    0  501    0  0.00000000000E+00  0.00000000000E+00  0.26179475352E+02  0.26179475352E+02  0.00000000000E+00 0.  1.
         -4   -1    0    0    0  501 -0.00000000000E+00 -0.00000000000E+00 -0.62420426660E+03  0.62420426660E+03  0.00000000000E+00 0. -1.
         25    2    1    2    0    0  0.38254823273E+01  0.55563294129E+02 -0.42844573430E+03  0.44979489597E+03  0.12509111570E+03 0.  0.
         23    2    1    2    0    0 -0.38254823273E+01 -0.55563294129E+02 -0.16957905695E+03  0.20058884598E+03  0.91525486116E+02 0.  0.
          5    1    3    3  502    0 -0.47268982648E+02  0.56646283161E+02 -0.15665115994E+03  0.17320570553E+03  0.41800000000E+01 0.  1.
         -5    1    3    3    0  502  0.51094464975E+02 -0.10829890312E+01 -0.27179457436E+03  0.27658919044E+03  0.41800000000E+01 0.  1.
        -11    1    4    4    0    0 -0.18482732776E+02 -0.70415231077E+02 -0.16330855708E+03  0.17880045021E+03  0.00000000000E+00 0. -1.
         11    1    4    4    0    0  0.14657250449E+02  0.14851936948E+02 -0.62704998613E+01  0.21788395772E+02  0.00000000000E+00 0.  1.
</event>
<event>
 8    1  0.3719512E-009  0.1033832E+03  0.7561462E-02  0.1273338E+00
          1   -1    0    0  501    0  0.00000000000E+00  0.00000000000E+00  0.15115746521E+03  0.15115746521E+03  0.00000000000E+00 0. -1.
         -1   -1    0    0    0  501 -0.00000000000E+00 -0.00000000000E+00 -0.11596202423E+03  0.11596202423E+03  0.00000000000E+00 0.  1.
         25    2    1    2    0    0 -0.51141274361E+02 -0.36603317199E+02 -0.17629241358E+02  0.14111880736E+03  0.12509394417E+03 0.  0.
         23    2    1    2    0    0  0.51141274361E+02  0.36603317199E+02  0.52824682341E+02  0.12600068208E+03  0.95553608240E+02 0.  0.
          5    1    3    3  502    0 -0.65737713236E+02  0.25580681743E+02 -0.28495253403E+02  0.76192323015E+02  0.41800000000E+01 0. -1.
         -5    1    3    3    0  502  0.14596438874E+02 -0.62183998942E+02  0.10866012045E+02  0.64926484349E+02  0.41800000000E+01 0. -1.
        -11    1    4    4    0    0  0.31899865523E+01  0.21620811499E+02 -0.25102788620E+02  0.33283411793E+02  0.00000000000E+00 0.  1.
         11    1    4    4    0    0  0.47951287809E+02  0.14982505700E+02  0.77927470961E+02  0.92717270290E+02  0.00000000000E+00 0. -1.
</event>
<event>
 8    1  0.3719512E-009  0.1087007E+03  0.7561462E-02  0.1262995E+00
         -1   -1    0    0    0  501 -0.00000000000E+00  0.00000000000E+00  0.82797351121E+02  0.82797351121E+02  0.00000000000E+00 0.  1.
          1   -1    0    0  501    0  0.00000000000E+00 -0.00000000000E+00 -0.14946503775E+03  0.14946503775E+03  0.00000000000E+00 0. -1.
         25    2    1    2    0    0 -0.22728124956E+01 -0.23222293264E+02 -0.27758795150E+02  0.13024089493E+03  0.12509076474E+03 0.  0.
         23    2    1    2    0    0  0.22728124956E+01  0.23222293264E+02 -0.38908891478E+02  0.10202149394E+03  0.91378568651E+02 0.  0.
          5    1    3    3  502    0  0.60963138865E+02 -0.17470523602E+02 -0.11883853419E+02  0.64656181972E+02  0.41800000000E+01 0. -1.
         -5    1    3    3    0  502 -0.63235951360E+02 -0.57517696622E+01 -0.15874941730E+02  0.65584712957E+02  0.41800000000E+01 0. -1.
        -11    1    4    4    0    0  0.26778079563E+02  0.48251593119E+02 -0.89011640446E+01  0.55897338979E+02  0.00000000000E+00 0.  1.
         11    1    4    4    0    0 -0.24505267067E+02 -0.25029299854E+02 -0.30007727433E+02  0.46124154962E+02  0.00000000000E+00 0. -1.
</event>
<event>
 8    1  0.3719512E-009  0.5982931E+02  0.7561462E-02  0.1398549E+00
          1   -1    0    0  501    0  0.00000000000E+00  0.00000000000E+00  0.16825824385E+03  0.16825824385E+03  0.00000000000E+00 0. -1.
         -1   -1    0    0    0  501 -0.00000000000E+00 -0.00000000000E+00 -0.88929176386E+02  0.88929176386E+02  0.00000000000E+00 0.  1.
         25    2    1    2    0    0  0.30740003908E+02  0.73597820156E+01 -0.25104648654E+01  0.12904213960E+03  0.12508579906E+03 0.  0.
         23    2    1    2    0    0 -0.30740003908E+02 -0.73597820156E+01  0.81839532328E+02  0.12814528064E+03  0.93404441364E+02 0.  0.
          5    1    3    3  502    0  0.49679800070E+02 -0.11253640568E+02 -0.51880965166E+02  0.72827425518E+02  0.41800000000E+01 0.  1.
         -5    1    3    3    0  502 -0.18939796161E+02  0.18613422583E+02  0.49370500301E+02  0.56214714078E+02  0.41800000000E+01 0.  1.
        -11    1    4    4    0    0 -0.17713232061E+02  0.97053904832E+01 -0.17369843154E+02  0.26639531634E+02  0.00000000000E+00 0.  1.
         11    1    4    4    0    0 -0.13026771847E+02 -0.17065172499E+02  0.99209375482E+02  0.10150574900E+03  0.00000000000E+00 0. -1.
</event>
<event>
 8    1  0.3719512E-009  0.9475238E+02  0.7561462E-02  0.1291735E+00
          1   -1    0    0  501    0  0.00000000000E+00  0.00000000000E+00  0.39753353341E+03  0.39753353341E+03  0.00000000000E+00 0. -1.
         -1   -1    0    0    0  501 -0.00000000000E+00 -0.00000000000E+00 -0.33317285609E+02  0.33317285609E+02  0.00000000000E+00 0.  1.
         25    2    1    2    0    0 -0.15453340870E+02  0.11057604778E+02  0.26733650769E+03  0.29576652967E+03  0.12509178774E+03 0.  0.
         23    2    1    2    0    0  0.15453340870E+02 -0.11057604778E+02  0.96879740110E+02  0.13508428935E+03  0.92200893799E+02 0.  0.
          5    1    3    3  502    0 -0.38450029789E+02 -0.48299861515E+02  0.14883033686E+03  0.16118071529E+03  0.41800000000E+01 0.  1.
         -5    1    3    3    0  502  0.22996688919E+02  0.59357466293E+02  0.11850617083E+03  0.13458581437E+03  0.41800000000E+01 0.  1.
        -11    1    4    4    0    0 -0.79261616253E+01 -0.31681619366E+02  0.98593015927E+02  0.10386111801E+03  0.00000000000E+00 0. -1.
         11    1    4    4    0    0  0.23379502495E+02  0.20624014588E+02 -0.17132758171E+01  0.31223171342E+02  0.00000000000E+00 0.  1.
</event>
<event>
 8    1  0.3719512E-009  0.1519853E+03  0.7561462E-02  0.1198054E+00
          1   -1    0    0  501    0  0.00000000000E+00  0.00000000000E+00  0.77257575909E+03  0.77257575909E+03  0.00000000000E+00 0. -1.
         -1   -1    0    0    0  501 -0.00000000000E+00 -0.00000000000E+00 -0.41115078563E+02  0.41115078563E+02  0.00000000000E+00 0.  1.
         25    2    1    2    0    0  0.10244728619E+03 -0.66751136563E+02  0.54368661538E+03  0.57113531193E+03  0.12509695485E+03 0.  0.
         23    2    1    2    0    0 -0.10244728619E+03  0.66751136563E+02  0.18777406515E+03  0.24255552572E+03  0.92859694350E+02 0.  0.
          5    1    3    3  502    0  0.81196856398E+02 -0.93909258793E+02  0.29573628100E+03  0.32076361806E+03  0.41800000000E+01 0. -1.
         -5    1    3    3    0  502  0.21250429795E+02  0.27158122230E+02  0.24795033438E+03  0.25037169387E+03  0.41800000000E+01 0. -1.
        -11    1    4    4    0    0 -0.20039228118E+00  0.39098659612E+02  0.91159575419E+02  0.99190793581E+02  0.00000000000E+00 0. -1.
         11    1    4    4    0    0 -0.10224689391E+03  0.27652476951E+02  0.96614489728E+02  0.14336473214E+03  0.00000000000E+00 0.  1.
</event>
<event>
 8    1  0.3719512E-009  0.1757034E+03  0.7561462E-02  0.1172027E+00
         -2   -1    0    0    0  501 -0.00000000000E+00  0.00000000000E+00  0.46095808622E+02  0.46095808622E+02  0.00000000000E+00 0.  1.
          2   -1    0    0  501    0  0.00000000000E+00 -0.00000000000E+00 -0.78675523790E+03  0.78675523790E+03  0.00000000000E+00 0. -1.
         25    2    1    2    0    0 -0.14709291113E+03  0.44797214053E+02 -0.45057558080E+03  0.49224869365E+03  0.12508919815E+03 0.  0.
         23    2    1    2    0    0  0.14709291113E+03 -0.44797214053E+02 -0.29008384848E+03  0.34060235287E+03  0.90654336589E+02 0.  0.
          5    1    3    3  502    0 -0.95814967740E+01  0.44122834334E+02 -0.44627630309E+02  0.63621752389E+02  0.41800000000E+01 0.  1.
         -5    1    3    3    0  502 -0.13751141436E+03  0.67437971968E+00 -0.40594795049E+03  0.42862694126E+03  0.41800000000E+01 0.  1.
        -11    1    4    4    0    0  0.13221504950E+03 -0.12350338921E+02 -0.17232806104E+03  0.21755530517E+03  0.00000000000E+00 0.  1.
         11    1    4    4    0    0  0.14877861627E+02 -0.32446875132E+02 -0.11775578744E+03  0.12304704770E+03  0.00000000000E+00 0. -1.
</event>
<event>
 8    1  0.3719512E-009  0.7591112E+02  0.7561462E-02  0.1341073E+00
          1   -1    0    0  501    0  0.00000000000E+00  0.00000000000E+00  0.98129124700E+02  0.98129124700E+02  0.00000000000E+00 0. -1.
         -1   -1    0    0    0  501 -0.00000000000E+00 -0.00000000000E+00 -0.21069688703E+03  0.21069688703E+03  0.00000000000E+00 0.  1.
         25    2    1    2    0    0  0.34985401887E+02  0.36639766977E+02  0.23093649038E+02  0.13691990735E+03  0.12508914235E+03 0.  0.
         23    2    1    2    0    0 -0.34985401887E+02 -0.36639766977E+02 -0.13566141136E+03  0.17190610438E+03  0.92634978923E+02 0.  0.
          5    1    3    3  502    0  0.24998048672E+02 -0.15065759737E+01  0.70607345446E+02  0.75033604735E+02  0.41800000000E+01 0. -1.
         -5    1    3    3    0  502  0.99873532149E+01  0.38146342951E+02 -0.47513696408E+02  0.61886302613E+02  0.41800000000E+01 0. -1.
        -11    1    4    4    0    0 -0.24722006602E+02  0.18382931038E+02 -0.69938059928E+01  0.31591503386E+02  0.00000000000E+00 0. -1.
         11    1    4    4    0    0 -0.10263395286E+02 -0.55022698015E+02 -0.12866760537E+03  0.14031460099E+03  0.00000000000E+00 0.  1.
</event>
<event>
 8    1  0.3719512E-009  0.9320944E+02  0.7561462E-02  0.1295261E+00
         -2   -1    0    0    0  501 -0.00000000000E+00  0.00000000000E+00  0.17407199771E+02  0.17407199771E+02  0.00000000000E+00 0.  1.
          2   -1    0    0  501    0  0.00000000000E+00 -0.00000000000E+00 -0.12442464597E+04  0.12442464597E+04  0.00000000000E+00 0. -1.
         25    2    1    2    0    0 -0.43438343432E+02  0.41828725402E+02 -0.10068620096E+04  0.10163935633E+04  0.12509291460E+03 0.  0.
         23    2    1    2    0    0  0.43438343432E+02 -0.41828725402E+02 -0.21997725038E+03  0.24526009618E+03  0.90144285142E+02 0.  0.
          5    1    3    3  502    0 -0.20116692051E+02 -0.15884993551E+02 -0.41095599365E+02  0.48614144098E+02  0.41800000000E+01 0.  1.
         -5    1    3    3    0  502 -0.23321651382E+02  0.57713718953E+02 -0.96576641020E+03  0.96777941922E+03  0.41800000000E+01 0.  1.
        -11    1    4    4    0    0  0.24029232042E+01 -0.54931167460E+02 -0.17297860530E+03  0.18150703868E+03  0.00000000000E+00 0. -1.
         11    1    4    4    0    0  0.41035420228E+02  0.13102442058E+02 -0.46998645080E+02  0.63753057499E+02  0.00000000000E+00 0.  1.
</event>
<event>
 8    1  0.3719512E-009  0.1240094E+03  0.7561462E-02  0.1236626E+00
          2   -1    0    0  501    0  0.00000000000E+00  0.00000000000E+00  0.56107444239E+02  0.56107444239E+02  0.00000000000E+00 0. -1.
         -2   -1    0    0    0  501 -0.00000000000E+00 -0.00000000000E+00 -0.29248664658E+03  0.29248664658E+03  0.00000000000E+00 0.  1.
         25    2    1    2    0    0 -0.17473142209E+02  0.58722990476E+02 -0.17350900922E+03  0.22250102302E+03  0.12509048187E+03 0.  0.
         23    2    1    2    0    0  0.17473142209E+02 -0.58722990476E+02 -0.62870193118E+02  0.12609306780E+03  0.90515745894E+02 0.  0.
          5    1    3    3  502    0 -0.69242845347E+02  0.14216187784E+02 -0.92001071726E+02  0.11609625845E+03  0.41800000000E+01 0.  1.
         -5    1    3    3    0  502  0.51769703138E+02  0.44506802692E+02 -0.81507937493E+02  0.10640476457E+03  0.41800000000E+01 0.  1.
        -11    1    4    4    0    0  0.36614425401E+02  0.96028207302E+01 -0.16260942908E+02  0.41197676848E+02  0.00000000000E+00 0.  1.
         11    1    4    4    0    0 -0.19141283192E+02 -0.68325811206E+02 -0.46609250210E+02  0.84895390949E+02  0.00000000000E+00 0. -1.
</event>
<event>
 8    1  0.3719512E-009  0.1243220E+03  0.7561462E-02  0.1236133E+00
         -2   -1    0    0    0  501 -0.00000000000E+00  0.00000000000E+00  0.20062629852E+03  0.20062629852E+03  0.00000000000E+00 0.  1.
          2   -1    0    0  501    0  0.00000000000E+00 -0.00000000000E+00 -0.13913562296E+03  0.13913562296E+03  0.00000000000E+00 0. -1.
         25    2    1    2    0    0  0.23566285790E+01 -0.10189537405E+03  0.10955754249E+03  0.19503462386E+03  0.12508968157E+03 0.  0.
         23    2    1    2    0    0 -0.23566285790E+01  0.10189537405E+03 -0.48066866929E+02  0.14472729762E+03  0.90814899815E+02 0.  0.
          5    1    3    3  502    0  0.28250875930E+02 -0.40675967501E+02  0.11786652719E+03  0.12791652338E+03  0.41800000000E+01 0. -1.
         -5    1    3    3    0  502 -0.25894247351E+02 -0.61219406552E+02 -0.83089847009E+01  0.67118100474E+02  0.41800000000E+01 0. -1.
        -11    1    4    4    0    0  0.31528192295E+02  0.91681456183E+02 -0.50382721528E+02  0.10926085734E+03  0.00000000000E+00 0. -1.
         11    1    4    4    0    0 -0.33884820874E+02  0.10213917871E+02  0.23158545993E+01  0.35466440285E+02  0.00000000000E+00 0.  1.
</event>
<event>
 8    1  0.3719512E-009  0.8691475E+02  0.7561462E-02  0.1310500E+00
         -2   -1    0    0    0  501 -0.00000000000E+00  0.00000000000E+00  0.20298995001E+02  0.20298995001E+02  0.00000000000E+00 0.  1.
          2   -1    0    0  501    0  0.00000000000E+00 -0.00000000000E+00 -0.59213813848E+03  0.59213813848E+03  0.00000000000E+00 0. -1.
         25    2    1    2    0    0  0.58623922505E+01  0.21220840188E+02 -0.36311533360E+03  0.38468756830E+03  0.12508832084E+03 0.  0.
         23    2    1    2    0    0 -0.58623922505E+01 -0.21220840188E+02 -0.20872380988E+03  0.22774956518E+03  0.88428185137E+02 0.  0.
          5    1    3    3  502    0  0.18659697157E+02  0.48732573844E+02 -0.58368417048E+02  0.78405309515E+02  0.41800000000E+01 0.  1.
         -5    1    3    3    0  502 -0.12797304907E+02 -0.27511733656E+02 -0.30474691655E+03  0.30628225879E+03  0.41800000000E+01 0.  1.
        -11    1    4    4    0    0 -0.28948074254E+01  0.34715238954E+02 -0.88811738408E+02  0.95399437130E+02  0.00000000000E+00 0. -1.
         11    1    4    4    0    0 -0.29675848252E+01 -0.55936079142E+02 -0.11991207147E+03  0.13235012805E+03  0.00000000000E+00 0.  1.
</event>
<event>
 8    1  0.3719512E-009  0.1060870E+03  0.7561462E-02  0.1267993E+00
         -2   -1    0    0    0  501 -0.00000000000E+00  0.00000000000E+00  0.14222678288E+03  0.14222678288E+03  0.00000000000E+00 0.  1.
          2   -1    0    0  501    0  0.00000000000E+00 -0.00000000000E+00 -0.87554630227E+02  0.87554630227E+02  0.00000000000E+00 0. -1.
         25    2    1    2    0    0 -0.10253896789E+02 -0.21815143026E+01  0.55845366506E+02  0.13739112983E+03  0.12509083176E+03 0.  0.
         23    2    1    2    0    0  0.10253896789E+02  0.21815143026E+01 -0.11732138571E+01  0.92390283275E+02  0.91786091587E+02 0.  0.
          5    1    3    3  502    0  0.55350060347E+02 -0.21932895042E+01  0.80856925718E+01  0.56136356523E+02  0.41800000000E+01 0. -1.
         -5    1    3    3    0  502 -0.65603957136E+02  0.11775201626E-01  0.47759673934E+02  0.81254773305E+02  0.41800000000E+01 0. -1.
        -11    1    4    4    0    0  0.51878734356E+01 -0.44061768125E+02 -0.88527003870E+01  0.45240731043E+02  0.00000000000E+00 0. -1.
         11    1    4    4    0    0  0.50660233530E+01  0.46243282428E+02  0.76794865299E+01  0.47149552232E+02  0.00000000000E+00 0.  1.
</event>
<event>
 8    1  0.3719512E-009  0.1059047E+03  0.7561462E-02  0.1268347E+00
          2   -1    0    0  501    0  0.00000000000E+00  0.00000000000E+00  0.48792465755E+03  0.48792465755E+03  0.00000000000E+00 0. -1.
         -2   -1    0    0    0  501 -0.00000000000E+00 -0.00000000000E+00 -0.62255077712E+02  0.62255077712E+02  0.00000000000E+00 0.  1.
         25    2    1    2    0    0  0.55637450225E+02 -0.71608361581E+02  0.38473058674E+03  0.41459420712E+03  0.12508976334E+03 0.  0.
         23    2    1    2    0    0 -0.55637450225E+02  0.71608361581E+02  0.40938993103E+02  0.13558552814E+03  0.92109451030E+02 0.  0.
          5    1    3    3  502    0  0.69792346067E+02 -0.28400222485E+02  0.95186685343E+02  0.12147230826E+03  0.41800000000E+01 0.  1.
         -5    1    3    3    0  502 -0.14154895842E+02 -0.43208139096E+02  0.28954390139E+03  0.29312189886E+03  0.41800000000E+01 0.  1.
        -11    1    4    4    0    0 -0.47278796493E+02  0.60468966234E+02  0.69667259131E+02  0.10365957491E+03  0.00000000000E+00 0. -1.
         11    1    4    4    0    0 -0.83586537326E+01  0.11139395347E+02 -0.28728266028E+02  0.31925953234E+02  0.00000000000E+00 0.  1.
</event>
<event>
 8    1  0.3719512E-009  0.1608006E+03  0.7561462E-02  0.1187796E+00
         -2   -1    0    0    0  501 -0.00000000000E+00  0.00000000000E+00  0.40976927878E+02  0.40976927878E+02  0.00000000000E+00 0.  1.
          2   -1    0    0  501    0  0.00000000000E+00 -0.00000000000E+00 -0.71919883297E+03  0.71919883297E+03  0.00000000000E+00 0. -1.
         25    2    1    2    0    0  0.12120992128E+03 -0.52677112950E+01 -0.23750567349E+03  0.29457868603E+03  0.12509222006E+03 0.  0.
         23    2    1    2    0    0 -0.12120992128E+03  0.52677112950E+01 -0.44071623160E+03  0.46559707483E+03  0.88488674363E+02 0.  0.
          5    1    3    3  502    0  0.88838119942E+02  0.53885063623E+02 -0.11786055274E+03  0.15717631478E+03  0.41800000000E+01 0. -1.
         -5    1    3    3    0  502  0.32371801342E+02 -0.59152774918E+02 -0.11964512076E+03  0.13740237124E+03  0.41800000000E+01 0. -1.
        -11    1    4    4    0    0 -0.12356387592E+03 -0.19570365592E+02 -0.37393351814E+03  0.39430610777E+03  0.00000000000E+00 0. -1.
         11    1    4    4    0    0  0.23539546317E+01  0.24838076887E+02 -0.66782713464E+02  0.71290967054E+02  0.00000000000E+00 0.  1.
</event>
<event>
 8    1  0.3719512E-009  0.1584974E+03  0.7561462E-02  0.1190404E+00
          1   -1    0    0  501    0  0.00000000000E+00  0.00000000000E+00  0.56812815389E+03  0.56812815389E+03  0.00000000000E+00 0. -1.
         -1   -1    0    0    0  501 -0.00000000000E+00 -0.00000000000E+00 -0.60542620788E+02  0.60542620788E+02  0.00000000000E+00 0.  1.
         25    2    1    2    0    0 -0.14546478323E+03 -0.36614969342E+02  0.26896599383E+03  0.33240333500E+03  0.12509441291E+03 0.  0.
         23    2    1    2    0    0  0.14546478323E+03  0.36614969342E+02  0.23861953928E+03  0.29626743968E+03  0.91293220735E+02 0.  0.
          5    1    3    3  502    0 -0.29926400091E+00 -0.17728768112E+02 -0.73761401268E+01  0.19653972140E+02  0.41800000000E+01 0.  1.
         -5    1    3    3    0  502 -0.14516551923E+03 -0.18886201230E+02  0.27634213395E+03  0.31274936286E+03  0.41800000000E+01 0.  1.
        -11    1    4    4    0    0  0.29626025597E+02 -0.32927109643E+01  0.20809626097E+01  0.29880993015E+02  0.00000000000E+00 0.  1.
         11    1    4    4    0    0  0.11583875763E+03  0.39907680306E+02  0.23653857667E+03  0.26638644667E+03  0.00000000000E+00 0. -1.
</event>
<event>
 8    1  0.3719512E-009  0.2055077E+03  0.7561462E-02  0.1145174E+00
         -3   -1    0    0    0  501 -0.00000000000E+00  0.00000000000E+00  0.55633621395E+02  0.55633621395E+02  0.00000000000E+00 0. -1.
          3   -1    0    0  501    0  0.00000000000E+00 -0.00000000000E+00 -0.99291006456E+03  0.99291006456E+03  0.00000000000E+00 0.  1.
         25    2    1    2    0    0  0.10448364648E+03  0.17395678369E+03 -0.60928184616E+03  0.65425503298E+03  0.12508990827E+03 0.  0.
         23    2    1    2    0    0 -0.10448364648E+03 -0.17395678369E+03 -0.32799459700E+03  0.39428865297E+03  0.81885842643E+02 0.  0.
          5    1    3    3  502    0 -0.12335255936E+01  0.21952142777E+02 -0.24091957185E+03  0.24195687768E+03  0.41800000000E+01 0.  1.
         -5    1    3    3    0  502  0.10571717207E+03  0.15200464091E+03 -0.36836227431E+03  0.41229815530E+03  0.41800000000E+01 0.  1.
        -11    1    4    4    0    0 -0.28514712341E+02 -0.60633875295E+02 -0.18449254610E+03  0.19628309968E+03  0.00000000000E+00 0.  1.
         11    1    4    4    0    0 -0.75968934138E+02 -0.11332290839E+03 -0.14350205090E+03  0.19800555329E+03  0.00000000000E+00 0. -1.
</event>
<event>
 8    1  0.3719512E-009  0.7769837E+02  0.7561462E-02  0.1335713E+00
         -2   -1    0    0    0  501 -0.00000000000E+00  0.00000000000E+00  0.16910983496E+02  0.16910983496E+02  0.00000000000E+00 0.  1.
          2   -1    0    0  501    0  0.00000000000E+00 -0.00000000000E+00 -0.67058440802E+03  0.67058440802E+03  0.00000000000E+00 0. -1.
         25    2    1    2    0    0  0.92153233847E+01  0.22202572083E+01 -0.44062289474E+03  0.45813230647E+03  0.12508726206E+03 0.  0.
         23    2    1    2    0    0 -0.92153233847E+01 -0.22202572083E+01 -0.21305052978E+03  0.22936308504E+03  0.84421826654E+02 0.  0.
          5    1    3    3  502    0 -0.32567222114E+01 -0.34021125673E+02 -0.40230234036E+03  0.40377306583E+03  0.41800000000E+01 0.  1.
         -5    1    3    3    0  502  0.12472045596E+02  0.36241382881E+02 -0.38320554386E+02  0.54359240640E+02  0.41800000000E+01 0.  1.
        -11    1    4    4    0    0  0.51369553242E+01 -0.40865166698E+02 -0.13432187258E+03  0.14049453944E+03  0.00000000000E+00 0.  1.
         11    1    4    4    0    0 -0.14352278709E+02  0.38644909490E+02 -0.78728657195E+02  0.88868545602E+02  0.00000000000E+00 0. -1.
</event>
<event>
 8    1  0.3719512E-009  0.3650403E+03  0.7561462E-02  0.1056606E+00
          1   -1    0    0  501    0  0.00000000000E+00  0.00000000000E+00  0.80942373091E+03  0.80942373091E+03  0.00000000000E+00 0. -1.
         -1   -1    0    0    0  501 -0.00000000000E+00 -0.00000000000E+00 -0.19395130441E+03  0.19395130441E+03  0.00000000000E+00 0.  1.
         25    2    1    2    0    0 -0.35508665415E+03  0.72793993834E+02  0.16411961443E+03  0.41709468165E+03  0.12508888091E+03 0.  0.
         23    2    1    2    0    0  0.35508665415E+03 -0.72793993834E+02  0.45135281207E+03  0.58628035367E+03  0.92842849155E+02 0.  0.
          5    1    3    3  502    0 -0.12796461703E+03  0.35973254732E+02  0.12719729578E+03  0.18402620118E+03  0.41800000000E+01 0.  1.
         -5    1    3    3    0  502 -0.22712203712E+03  0.36820739102E+02  0.36922318647E+02  0.23306848047E+03  0.41800000000E+01 0.  1.
        -11    1    4    4    0    0  0.16115998341E+03 -0.62207316344E+02  0.27014631703E+03  0.32065764152E+03  0.00000000000E+00 0.  1.
         11    1    4    4    0    0  0.19392667074E+03 -0.10586677490E+02  0.18120649504E+03  0.26562271215E+03  0.00000000000E+00 0. -1.
</event>
<event>
 8    1  0.3719512E-009  0.1104180E+03  0.7561462E-02  0.1259798E+00
          2   -1    0    0  501    0  0.00000000000E+00  0.00000000000E+00  0.28878687848E+03  0.28878687848E+03  0.00000000000E+00 0. -1.
         -2   -1    0    0    0  501 -0.00000000000E+00 -0.00000000000E+00 -0.57532466869E+02  0.57532466869E+02  0.00000000000E+00 0.  1.
         25    2    1    2    0    0 -0.61833281293E+02  0.20339669962E+02  0.97506963005E+02  0.17144405530E+03  0.12509356264E+03 0.  0.
         23    2    1    2    0    0  0.61833281293E+02 -0.20339669962E+02  0.13374744861E+03  0.17487529005E+03  0.91956131994E+02 0.  0.
          5    1    3    3  502    0 -0.84231247883E+02  0.53643720114E+02  0.61448795818E+02  0.11732850777E+03  0.41800000000E+01 0.  1.
         -5    1    3    3    0  502  0.22397966591E+02 -0.33304050152E+02  0.36058167187E+02  0.54115547533E+02  0.41800000000E+01 0.  1.
        -11    1    4    4    0    0  0.39035683801E+02 -0.35817805627E+02  0.13722943784E+03  0.14710070843E+03  0.00000000000E+00 0. -1.
         11    1    4    4    0    0  0.22797597492E+02  0.15478135665E+02 -0.34819892369E+01  0.27774581619E+02  0.00000000000E+00 0.  1.
</event>
<event>
 8    1  0.3719512E-009  0.8499101E+02  0.7561462E-02  0.1315456E+00
         -2   -1    0    0    0  501 -0.00000000000E+00  0.00000000000E+00  0.44235479855E+02  0.44235479855E+02  0.00000000000E+00 0. -1.
          2   -1    0    0  501    0  0.00000000000E+00 -0.00000000000E+00 -0.37192689359E+03  0.37192689359E+03  0.00000000000E+00 0.  1.
         25    2    1    2    0    0  0.58921089378E+02 -0.34779832265E+02 -0.16368396172E+03  0.21707541736E+03  0.12509183023E+03 0.  0.
         23    2    1    2    0    0 -0.58921089378E+02  0.34779832265E+02 -0.16400745201E+03  0.19908695609E+03  0.89754332829E+02 0.  0.
          5    1    3    3  502    0  0.11639095168E+01 -0.40244871659E+02  0.29460942206E+01  0.40585172802E+02  0.41800000000E+01 0. -1.
         -5    1    3    3    0  502  0.57757179861E+02  0.54650393939E+01 -0.16663005594E+03  0.17649024456E+03  0.41800000000E+01 0. -1.
        -11    1    4    4    0    0 -0.31137244145E+02  0.29823782726E+02 -0.12383910623E+02  0.44859193388E+02  0.00000000000E+00 0. -1.
         11    1    4    4    0    0 -0.27783845233E+02  0.49560495386E+01 -0.15162354139E+03  0.15422776270E+03  0.00000000000E+00 0.  1.
</event>
<event>
 8    1  0.3719512E-009  0.8495560E+02  0.7561462E-02  0.1315549E+00
         -3   -1    0    0    0  501 -0.00000000000E+00  0.00000000000E+00  0.40078944368E+02  0.40078944368E+02  0.00000000000E+00 0.  1.
          3   -1    0    0  501    0  0.00000000000E+00 -0.00000000000E+00 -0.32593572378E+03  0.32593572378E+03  0.00000000000E+00 0. -1.
         25    2    1    2    0    0 -0.14911160757E+02 -0.13493708696E+02 -0.18689494764E+03  0.22579103217E+03  0.12508975125E+03 0.  0.
         23    2    1    2    0    0  0.14911160757E+02  0.13493708696E+02 -0.98961831773E+02  0.14022363598E+03  0.97287209071E+02 0.  0.
          5    1    3    3  502    0  0.35924494952E+02  0.25599672411E+02 -0.13828937209E+03  0.14521479056E+03  0.41800000000E+01 0.  1.
         -5    1    3    3    0  502 -0.50835655710E+02 -0.39093381107E+02 -0.48605575553E+02  0.80576241614E+02  0.41800000000E+01 0.  1.
        -11    1    4    4    0    0  0.36857468393E+02  0.29139563750E+01 -0.10806534226E+03  0.11421507044E+03  0.00000000000E+00 0. -1.
         11    1    4    4    0    0 -0.21946307636E+02  0.10579752321E+02  0.91035104860E+01  0.26008565535E+02  0.00000000000E+00 0.  1.
</event>
<event>
 8    1  0.3719512E-009  0.1153912E+03  0.7561462E-02  0.1250900E+00
         -2   -1    0    0    0  501 -0.00000000000E+00  0.00000000000E+00  0.74485206712E+02  0.74485206712E+02  0.00000000000E+00 0. -1.
          2   -1    0    0  501    0  0.00000000000E+00 -0.00000000000E+00 -0.25029622116E+03  0.25029622116E+03  0.00000000000E+00 0.  1.
         25    2    1    2    0    0 -0.81808684155E+01  0.55906918497E+02 -0.16449189945E+03  0.21423602083E+03  0.12508787906E+03 0.  0.
         23    2    1    2    0    0  0.81808684155E+01 -0.55906918497E+02 -0.11319114995E+02  0.11054540705E+03  0.94337980215E+02 0.  0.
          5    1    3    3  502    0 -0.62696417989E+02  0.70909137973E+01 -0.87219905631E+02  0.10773071162E+03  0.41800000000E+01 0. -1.
         -5    1    3    3    0  502  0.54515549573E+02  0.48816004700E+02 -0.77271993823E+02  0.10650530921E+03  0.41800000000E+01 0. -1.
        -11    1    4    4    0    0 -0.17278536289E+02  0.12456726592E+02 -0.28518086399E+02  0.35594930897E+02  0.00000000000E+00 0.  1.
         11    1    4    4    0    0  0.25459404704E+02 -0.68363645090E+02  0.17198971404E+02  0.74950476151E+02  0.00000000000E+00 0. -1.
</event>
<event>
 8    1  0.3719512E-009  0.9301401E+02  0.7561462E-02  0.1295713E+00
          3   -1    0    0  501    0  0.00000000000E+00  0.00000000000E+00  0.27437770331E+02  0.27437770331E+02  0.00000000000E+00 0. -1.
         -3   -1    0    0    0  501 -0.00000000000E+00 -0.00000000000E+00 -0.51805276119E+03  0.51805276119E+03  0.00000000000E+00 0.  1.
         25    2    1    2    0    0 -0.34402100212E+02 -0.20214659285E+02 -0.34408871782E+03  0.36828823210E+03  0.12508812582E+03 0.  0.
         23    2    1    2    0    0  0.34402100212E+02  0.20214659285E+02 -0.14652627303E+03  0.17720229942E+03  0.91315766880E+02 0.  0.
          5    1    3    3  502    0 -0.67852165062E+02 -0.35148866082E+02 -0.30540711125E+03  0.31484970239E+03  0.41800000000E+01 0. -1.
         -5    1    3    3    0  502  0.33450064849E+02  0.14934206796E+02 -0.38681606572E+02  0.53438529715E+02  0.41800000000E+01 0. -1.
        -11    1    4    4    0    0  0.10703224863E+02  0.40216522340E+02 -0.13926761681E+03  0.14535266349E+03  0.00000000000E+00 0.  1.
         11    1    4    4    0    0  0.23698875349E+02 -0.20001863054E+02 -0.72586562208E+01  0.31849635926E+02  0.00000000000E+00 0. -1.
</event>
<event>
 8    1  0.3719512E-009  0.6779540E+02  0.7561462E-02  0.1367755E+00
         -4   -1    0    0    0  501 -0.00000000000E+00  0.00000000000E+00  0.50212520469E+02  0.50212520469E+02  0.00000000000E+00 0.  1.
          4   -1    0    0  501    0  0.00000000000E+00 -0.00000000000E+00 -0.28511382326E+03  0.28511382326E+03  0.00000000000E+00 0. -1.
         25    2    1    2    0    0 -0.12857480970E+02  0.10307508451E+02 -0.20591800740E+03  0.24149184120E+03  0.12507807181E+03 0.  0.
         23    2    1    2    0    0  0.12857480970E+02 -0.10307508451E+02 -0.28983295393E+02  0.93834502531E+02  0.87711589348E+02 0.  0.
          5    1    3    3  502    0 -0.37587617637E+02  0.84867488003E+01 -0.21208668921E+03  0.21559937395E+03  0.41800000000E+01 0. -1.
         -5    1    3    3    0  502  0.24730136667E+02  0.18207596502E+01  0.61686818111E+01  0.25892467255E+02  0.41800000000E+01 0. -1.
        -11    1    4    4    0    0  0.49513698600E+01 -0.40332641920E+02 -0.43528294223E+02  0.59547883805E+02  0.00000000000E+00 0. -1.
         11    1    4    4    0    0  0.79061111100E+01  0.30025133469E+02  0.14544998829E+02  0.34286618726E+02  0.00000000000E+00 0.  1.
</event>
<event>
 8    1  0.3719512E-009  0.1801036E+03  0.7561462E-02  0.1167703E+00
          1   -1    0    0  501    0  0.00000000000E+00  0.00000000000E+00  0.57120255368E+03  0.57120255368E+03  0.00000000000E+00 0. -1.
         -1   -1    0    0    0  501 -0.00000000000E+00 -0.00000000000E+00 -0.75864296233E+02  0.75864296233E+02  0.00000000000E+00 0.  1.
         25    2    1    2    0    0 -0.21682782140E+02  0.16005905362E+03  0.14648190718E+03  0.25138640419E+03  0.12509648834E+03 0.  0.
         23    2    1    2    0    0  0.21682782140E+02 -0.16005905362E+03  0.34885635027E+03  0.39568044572E+03  0.93665459554E+02 0.  0.
          5    1    3    3  502    0  0.24773538378E+02  0.37791387568E+02 -0.10934615189E+02  0.46679282208E+02  0.41800000000E+01 0. -1.
         -5    1    3    3    0  502 -0.46456320519E+02  0.12226766605E+03  0.15741652237E+03  0.20470712199E+03  0.41800000000E+01 0. -1.
        -11    1    4    4    0    0  0.55775886300E+02 -0.11094942121E+03  0.20194425074E+03  0.23707004021E+03  0.00000000000E+00 0.  1.
         11    1    4    4    0    0 -0.34093104160E+02 -0.49109632414E+02  0.14691209953E+03  0.15861040551E+03  0.00000000000E+00 0. -1.
</event>
<event>
 8    1  0.3719512E-009  0.1725436E+03  0.7561462E-02  0.1175221E+00
         -2   -1    0    0    0  501 -0.00000000000E+00  0.00000000000E+00  0.55573659168E+02  0.55573659168E+02  0.00000000000E+00 0.  1.
          2   -1    0    0  501    0  0.00000000000E+00 -0.00000000000E+00 -0.69020318168E+03  0.69020318168E+03  0.00000000000E+00 0. -1.
         25    2    1    2    0    0 -0.14854379597E+03 -0.50125717005E+02 -0.40596773505E+03  0.45280810454E+03  0.12509009075E+03 0.  0.
         23    2    1    2    0    0  0.14854379597E+03  0.50125717005E+02 -0.22866178746E+03  0.29296873632E+03  0.94692241424E+02 0.  0.
          5    1    3    3  502    0 -0.10482037308E+03 -0.75043295494E+01 -0.11653887824E+03  0.15697900533E+03  0.41800000000E+01 0. -1.
         -5    1    3    3    0  502 -0.43723422892E+02 -0.42621387455E+02 -0.28942885682E+03  0.29582909920E+03  0.41800000000E+01 0. -1.
        -11    1    4    4    0    0  0.71728787947E+02 -0.20251032115E+02 -0.64640260449E+02  0.98658433968E+02  0.00000000000E+00 0.  1.
         11    1    4    4    0    0  0.76815008024E+02  0.70376749120E+02 -0.16402152701E+03  0.19431030235E+03  0.00000000000E+00 0. -1.
</event>
<event>
 8    1  0.3719512E-009  0.1771717E+03  0.7561462E-02  0.1170569E+00
          3   -1    0    0  501    0  0.00000000000E+00  0.00000000000E+00  0.19392713932E+03  0.19392713932E+03  0.00000000000E+00 0. -1.
         -3   -1    0    0    0  501 -0.00000000000E+00 -0.00000000000E+00 -0.17660700834E+03  0.17660700834E+03  0.00000000000E+00 0.  1.
         25    2    1    2    0    0  0.41947233613E+02  0.14232337977E+03  0.28870437762E+02  0.19620454678E+03  0.12508879711E+03 0.  0.
         23    2    1    2    0    0 -0.41947233613E+02 -0.14232337977E+03 -0.11550306779E+02  0.17432960088E+03  0.90784829784E+02 0.  0.
          5    1    3    3  502    0 -0.15249241818E+02  0.12361644178E+03  0.47038073408E+02  0.13320516809E+03  0.41800000000E+01 0.  1.
         -5    1    3    3    0  502  0.57196475431E+02  0.18706937989E+02 -0.18167635647E+02  0.62999378693E+02  0.41800000000E+01 0.  1.
        -11    1    4    4    0    0  0.24419818802E+02 -0.50564543786E+02  0.14779044196E+02  0.58064798165E+02  0.00000000000E+00 0. -1.
         11    1    4    4    0    0 -0.66367052415E+02 -0.91758835987E+02 -0.26329350975E+02  0.11626480272E+03  0.00000000000E+00 0.  1.
</event>
<event>
 8    1  0.3719512E-009  0.1086482E+03  0.7561462E-02  0.1263094E+00
         -1   -1    0    0    0  501 -0.00000000000E+00  0.00000000000E+00  0.14966061957E+02  0.14966061957E+02  0.00000000000E+00 0.  1.
          1   -1    0    0  501    0  0.00000000000E+00 -0.00000000000E+00 -0.87327964585E+03  0.87327964585E+03  0.00000000000E+00 0. -1.
         25    2    1    2    0    0 -0.10188427642E+02  0.18209381169E+02 -0.57944387059E+03  0.59315804094E+03  0.12508347911E+03 0.  0.
         23    2    1    2    0    0  0.10188427642E+02 -0.18209381169E+02 -0.27886971330E+03  0.29508766686E+03  0.94196754294E+02 0.  0.
          5    1    3    3  502    0 -0.51949385053E+02 -0.30397603965E+02 -0.33670336309E+03  0.34206633866E+03  0.41800000000E+01 0.  1.
         -5    1    3    3    0  502  0.41760957411E+02  0.48606985134E+02 -0.24274050751E+03  0.25109170228E+03  0.41800000000E+01 0.  1.
        -11    1    4    4    0    0  0.36651228729E+02  0.23361928058E+02 -0.90762931061E+02  0.10063300604E+03  0.00000000000E+00 0.  1.
         11    1    4    4    0    0 -0.26462801086E+02 -0.41571309227E+02 -0.18810678224E+03  0.19445466082E+03  0.00000000000E+00 0. -1.
</event>
<event>
 8    1  0.3719512E-009  0.9589576E+02  0.7561462E-02  0.1289171E+00
          1   -1    0    0  501    0  0.00000000000E+00  0.00000000000E+00  0.19106620049E+03  0.19106620049E+03  0.00000000000E+00 0. -1.
         -1   -1    0    0    0  501 -0.00000000000E+00 -0.00000000000E+00 -0.93347631463E+02  0.93347631463E+02  0.00000000000E+00 0.  1.
         25    2    1    2    0    0 -0.22635192936E+02  0.70522839103E+02  0.30036108961E+02  0.14844008514E+03  0.12508584349E+03 0.  0.
         23    2    1    2    0    0  0.22635192936E+02 -0.70522839103E+02  0.67682460063E+02  0.13597374681E+03  0.91772117913E+02 0.  0.
          5    1    3    3  502    0  0.35192973888E+01  0.55725450182E+02  0.75368731205E+02  0.93891582666E+02  0.41800000000E+01 0. -1.
         -5    1    3    3    0  502 -0.26154490325E+02  0.14797388921E+02 -0.45332622244E+02  0.54548502477E+02  0.41800000000E+01 0. -1.
        -11    1    4    4    0    0 -0.19921522366E+02 -0.57654796865E+02  0.68215124171E+02  0.91510905474E+02  0.00000000000E+00 0. -1.
         11    1    4    4    0    0  0.42556715302E+02 -0.12868042238E+02 -0.53266410825E+00  0.44462841333E+02  0.00000000000E+00 0.  1.
</event>
<event>
 8    1  0.3719512E-009  0.1011055E+03  0.7561462E-02  0.1277988E+00
          1   -1    0    0  501    0  0.00000000000E+00  0.00000000000E+00  0.46890475740E+02  0.46890475740E+02  0.00000000000E+00 0. -1.
         -1   -1    0    0    0  501 -0.00000000000E+00 -0.00000000000E+00 -0.27711609835E+03  0.27711609835E+03  0.00000000000E+00 0.  1.
         25    2    1    2    0    0 -0.30806640301E+02  0.17365552775E+02 -0.14813290226E+03  0.19708303776E+03  0.12509098900E+03 0.  0.
         23    2    1    2    0    0  0.30806640301E+02 -0.17365552775E+02 -0.82092720353E+02  0.12692353634E+03  0.90109698873E+02 0.  0.
          5    1    3    3  502    0 -0.77455068192E+02  0.22308337570E+02 -0.11028265679E+03  0.13666267341E+03  0.41800000000E+01 0.  1.
         -5    1    3    3    0  502  0.46648427891E+02 -0.49427847947E+01 -0.37850245464E+02  0.60420364348E+02  0.41800000000E+01 0.  1.
        -11    1    4    4    0    0 -0.20680138614E+02 -0.73799698773E+01 -0.69639538683E+02  0.73019158010E+02  0.00000000000E+00 0.  1.
         11    1    4    4    0    0  0.51486778916E+02 -0.99855828977E+01 -0.12453181670E+02  0.53904378325E+02  0.00000000000E+00 0. -1.
</event>
<event>
 8    1  0.3719512E-009  0.1433757E+03  0.7561462E-02  0.1208858E+00
          2   -1    0    0  501    0  0.00000000000E+00  0.00000000000E+00  0.92581700026E+03  0.92581700026E+03  0.00000000000E+00 0. -1.
         -2   -1    0    0    0  501 -0.00000000000E+00 -0.00000000000E+00 -0.33805118253E+02  0.33805118253E+02  0.00000000000E+00 0.  1.
         25    2    1    2    0    0 -0.12768062358E+03 -0.56883961074E+01  0.31845164225E+03  0.36523174683E+03  0.12509228974E+03 0.  0.
         23    2    1    2    0    0  0.12768062358E+03  0.56883961074E+01  0.57356023975E+03  0.59439037168E+03  0.89408421463E+02 0.  0.
          5    1    3    3  502    0 -0.59539966095E+02 -0.46958875144E+02  0.24604073023E+03  0.25749496470E+03  0.41800000000E+01 0. -1.
         -5    1    3    3    0  502 -0.68140657490E+02  0.41270479036E+02  0.72410912025E+02  0.10773678213E+03  0.41800000000E+01 0. -1.
        -11    1    4    4    0    0  0.43612615589E+02  0.15739642730E+02  0.71340523145E+02  0.85083881167E+02  0.00000000000E+00 0.  1.
         11    1    4    4    0    0  0.84068007995E+02 -0.10051246622E+02  0.50221971661E+03  0.50930649051E+03  0.00000000000E+00 0. -1.
</event>
<event>
 8    1  0.3719512E-009  0.1660507E+03  0.7561462E-02  0.1182030E+00
          2   -1    0    0  501    0  0.00000000000E+00  0.00000000000E+00  0.13207023707E+03  0.13207023707E+03  0.00000000000E+00 0.  1.
         -2   -1    0    0    0  501 -0.00000000000E+00 -0.00000000000E+00 -0.25043238190E+03  0.25043238190E+03  0.00000000000E+00 0. -1.
         25    2    1    2    0    0 -0.13778985991E+03 -0.25988167790E+02 -0.19202560810E+02  0.18888535679E+03  0.12509000483E+03 0.  0.
         23    2    1    2    0    0  0.13778985991E+03  0.25988167790E+02 -0.99159584024E+02  0.19361726219E+03  0.89406883148E+02 0.  0.
          5    1    3    3  502    0 -0.43421754752E+02 -0.59415793147E+02 -0.43757360533E+02  0.85719684215E+02  0.41800000000E+01 0. -1.
         -5    1    3    3    0  502 -0.94368105157E+02  0.33427625357E+02  0.24554799723E+02  0.10316567257E+03  0.41800000000E+01 0. -1.
        -11    1    4    4    0    0  0.10866460851E+03 -0.13092648520E+02 -0.94595199739E+02  0.14466397755E+03  0.00000000000E+00 0. -1.
         11    1    4    4    0    0  0.29125251398E+02  0.39080816310E+02 -0.45643842847E+01  0.48953284633E+02  0.00000000000E+00 0.  1.
</event>
<event>
 8    1  0.3719512E-009  0.1316312E+03  0.7561462E-02  0.1225055E+00
          1   -1    0    0  501    0  0.00000000000E+00  0.00000000000E+00  0.27518939572E+03  0.27518939572E+03  0.00000000000E+00 0. -1.
         -1   -1    0    0    0  501 -0.00000000000E+00 -0.00000000000E+00 -0.65300689667E+02  0.65300689667E+02  0.00000000000E+00 0.  1.
         25    2    1    2    0    0  0.73375471902E+02  0.27431324864E+02  0.12042319733E+03  0.19048482983E+03  0.12508511693E+03 0.  0.
         23    2    1    2    0    0 -0.73375471902E+02 -0.27431324864E+02  0.89465508726E+02  0.15000525556E+03  0.91438842865E+02 0.  0.
          5    1    3    3  502    0  0.10273312677E+02 -0.45358218503E+02  0.62442048157E+02  0.77970447716E+02  0.41800000000E+01 0.  1.
         -5    1    3    3    0  502  0.63102159225E+02  0.72789543367E+02  0.57981149175E+02  0.11251438211E+03  0.41800000000E+01 0.  1.
        -11    1    4    4    0    0 -0.39483953148E+02  0.32601874585E+02  0.43050987144E+02  0.66897326379E+02  0.00000000000E+00 0.  1.
         11    1    4    4    0    0 -0.33891518755E+02 -0.60033199450E+02  0.46414521582E+02  0.83107929185E+02  0.00000000000E+00 0. -1.
</event>
<event>
 8    1  0.3719512E-009  0.1321276E+03  0.7561462E-02  0.1224333E+00
          1   -1    0    0  501    0  0.00000000000E+00  0.00000000000E+00  0.29307532038E+03  0.29307532038E+03  0.00000000000E+00 0. -1.
         -1   -1    0    0    0  501 -0.00000000000E+00 -0.00000000000E+00 -0.84195180436E+02  0.84195180436E+02  0.00000000000E+00 0.  1.
         25    2    1    2    0    0 -0.68395507101E+02  0.76380050677E+02  0.52795847446E+02  0.17013735842E+03  0.12508981449E+03 0.  0.
         23    2    1    2    0    0  0.68395507101E+02 -0.76380050677E+02  0.15608429250E+03  0.20713314240E+03  0.89610126556E+02 0.  0.
          5    1    3    3  502    0 -0.46051063030E+02  0.97837507803E+02 -0.65544929454E+00  0.10821635899E+03  0.41800000000E+01 0. -1.
         -5    1    3    3    0  502 -0.22344444071E+02 -0.21457457126E+02  0.53451296740E+02  0.61920999430E+02  0.41800000000E+01 0. -1.
        -11    1    4    4    0    0  0.19093242307E+02 -0.72896951265E+02  0.50959455740E+02  0.90969135067E+02  0.00000000000E+00 0. -1.
         11    1    4    4    0    0  0.49302264795E+02 -0.34830994120E+01  0.10512483676E+03  0.11616400733E+03  0.00000000000E+00 0.  1.
</event>
<event>
 8    1  0.3719512E-009  0.8953435E+02  0.7561462E-02  0.1303983E+00
         -3   -1    0    0    0  501 -0.00000000000E+00  0.00000000000E+00  0.74490033572E+02  0.74490033572E+02  0.00000000000E+00 0.  1.
          3   -1    0    0  501    0  0.00000000000E+00 -0.00000000000E+00 -0.20194828126E+03  0.20194828126E+03  0.00000000000E+00 0. -1.
         25    2    1    2    0    0  0.47120136385E+02 -0.30385761751E+02 -0.71657805799E+02  0.15466928965E+03  0.12507656159E+03 0.  0.
         23    2    1    2    0    0 -0.47120136385E+02  0.30385761751E+02 -0.55800441891E+02  0.12176902518E+03  0.92576478697E+02 0.  0.
          5    1    3    3  502    0 -0.57811844334E+01 -0.13317265961E+02 -0.93563903027E+02  0.94775777580E+02  0.41800000000E+01 0. -1.
         -5    1    3    3    0  502  0.52901320819E+02 -0.17068495790E+02  0.21906097228E+02  0.59893512075E+02  0.41800000000E+01 0. -1.
        -11    1    4    4    0    0 -0.46157436074E+02 -0.25223462168E+02 -0.26144456122E+02  0.58738952447E+02  0.00000000000E+00 0.  1.
         11    1    4    4    0    0 -0.96270031114E+00  0.55609223919E+02 -0.29655985768E+02  0.63030072733E+02  0.00000000000E+00 0. -1.
</event>
<event>
 8    1  0.3719512E-009  0.6657218E+02  0.7561462E-02  0.1372153E+00
          2   -1    0    0  501    0  0.00000000000E+00  0.00000000000E+00  0.17819254955E+03  0.17819254955E+03  0.00000000000E+00 0.  1.
         -2   -1    0    0    0  501 -0.00000000000E+00 -0.00000000000E+00 -0.76401433374E+02  0.76401433374E+02  0.00000000000E+00 0. -1.
         25    2    1    2    0    0  0.96684866943E+01  0.17409590917E+02  0.14779008489E+02  0.12752309207E+03  0.12508855435E+03 0.  0.
         23    2    1    2    0    0 -0.96684866943E+01 -0.17409590917E+02  0.87012107684E+02  0.12707089085E+03  0.90439653512E+02 0.  0.
          5    1    3    3  502    0 -0.28461802267E+02 -0.14009261543E+02 -0.41574230040E+02  0.52461629794E+02  0.41800000000E+01 0. -1.
         -5    1    3    3    0  502  0.38130288962E+02  0.31418852460E+02  0.56353238529E+02  0.75061462276E+02  0.41800000000E+01 0. -1.
        -11    1    4    4    0    0  0.15085727805E+02  0.71491233655E+01  0.90500244725E+02  0.92027079947E+02  0.00000000000E+00 0.  1.
         11    1    4    4    0    0 -0.24754214499E+02 -0.24558714283E+02 -0.34881370414E+01  0.35043810904E+02  0.00000000000E+00 0. -1.
</event>
<event>
 8    1  0.3719512E-009  0.7987893E+02  0.7561462E-02  0.1329395E+00
          2   -1    0    0  501    0  0.00000000000E+00  0.00000000000E+00  0.52175814931E+03  0.52175814931E+03  0.00000000000E+00 0. -1.
         -2   -1    0    0    0  501 -0.00000000000E+00 -0.00000000000E+00 -0.25263977320E+02  0.25263977320E+02  0.00000000000E+00 0.  1.
         25    2    1    2    0    0 -0.38369079497E+01  0.36992591002E+02  0.24973721324E+03  0.28177813182E+03  0.12508823383E+03 0.  0.
         23    2    1    2    0    0  0.38369079497E+01 -0.36992591002E+02  0.24675695875E+03  0.26524399481E+03  0.89901092547E+02 0.  0.
          5    1    3    3  502    0 -0.36537276809E+02  0.22212707716E+02  0.24074407262E+03  0.24454765973E+03  0.41800000000E+01 0. -1.
         -5    1    3    3    0  502  0.32700368859E+02  0.14779883286E+02  0.89931406251E+01  0.37230472086E+02  0.41800000000E+01 0. -1.
        -11    1    4    4    0    0 -0.29510356576E+02 -0.36989874568E+02  0.21144346179E+03  0.21667360129E+03  0.00000000000E+00 0. -1.
         11    1    4    4    0    0  0.33347264526E+02 -0.27164339232E-02  0.35313496965E+02  0.48570393520E+02  0.00000000000E+00 0.  1.
</event>
<event>
 8    1  0.3719512E-009  0.1159081E+03  0.7561462E-02  0.1250004E+00
          1   -1    0    0  501    0  0.00000000000E+00  0.00000000000E+00  0.90130673017E+03  0.90130673017E+03  0.00000000000E+00 0. -1.
         -1   -1    0    0    0  501 -0.00000000000E+00 -0.00000000000E+00 -0.16873280712E+02  0.16873280712E+02  0.00000000000E+00 0.  1.
         25    2    1    2    0    0 -0.13699755374E+02  0.48221191091E+02  0.60061182182E+03  0.61554607566E+03  0.12509773853E+03 0.  0.
         23    2    1    2    0    0  0.13699755374E+02 -0.48221191091E+02  0.28382162764E+03  0.30263393522E+03  0.92301765228E+02 0.  0.
          5    1    3    3  502    0 -0.59234784024E+02  0.55295242213E+02  0.47064838974E+03  0.47759156464E+03  0.41800000000E+01 0.  1.
         -5    1    3    3    0  502  0.45535028651E+02 -0.70740511218E+01  0.12996343208E+03  0.13795451103E+03  0.41800000000E+01 0.  1.
        -11    1    4    4    0    0  0.51802136469E+02 -0.15203049350E+02  0.16325504230E+03  0.17195000113E+03  0.00000000000E+00 0. -1.
         11    1    4    4    0    0 -0.38102381095E+02 -0.33018141741E+02  0.12056658534E+03  0.13068393409E+03  0.00000000000E+00 0.  1.
</event>
<event>
 8    1  0.3719512E-009  0.1422114E+03  0.7561462E-02  0.1210384E+00
         -2   -1    0    0    0  501 -0.00000000000E+00  0.00000000000E+00  0.12689254669E+03  0.12689254669E+03  0.00000000000E+00 0.  1.
          2   -1    0    0  501    0  0.00000000000E+00 -0.00000000000E+00 -0.20148830735E+03  0.20148830735E+03  0.00000000000E+00 0. -1.
         25    2    1    2    0    0 -0.88081003103E+02  0.73650063902E+02 -0.17913018567E+02  0.17073507865E+03  0.12508795237E+03 0.  0.
         23    2    1    2    0    0  0.88081003103E+02 -0.73650063902E+02 -0.56682742097E+02  0.15764577539E+03  0.91960112152E+02 0.  0.
          5    1    3    3  502    0 -0.66481339281E+02 -0.20945631750E+02  0.78168452743E+01  0.70264240066E+02  0.41800000000E+01 0.  1.
         -5    1    3    3    0  502 -0.21599663822E+02  0.94595695652E+02 -0.25729863841E+02  0.10047083859E+03  0.41800000000E+01 0.  1.
        -11    1    4    4    0    0  0.35025216426E+02 -0.14205441439E+02  0.23581021344E+02  0.44549129282E+02  0.00000000000E+00 0.  1.
         11    1    4    4    0    0  0.53055786678E+02 -0.59444622463E+02 -0.80263763441E+02  0.11309664611E+03  0.00000000000E+00 0. -1.
</event>
<event>
 8    1  0.3719512E-009  0.1502132E+03  0.7561462E-02  0.1200211E+00
         -1   -1    0    0    0  501 -0.00000000000E+00  0.00000000000E+00  0.15587535976E+02  0.15587535976E+02  0.00000000000E+00 0.  1.
          1   -1    0    0  501    0  0.00000000000E+00 -0.00000000000E+00 -0.20213666999E+04  0.20213666999E+04  0.00000000000E+00 0. -1.
         25    2    1    2    0    0  0.10516303125E+03 -0.67665246541E+02 -0.14162226001E+04  0.14272248363E+04  0.12508569681E+03 0.  0.
         23    2    1    2    0    0 -0.10516303125E+03  0.67665246541E+02 -0.58955656388E+03  0.60972939964E+03  0.92494054116E+02 0.  0.
          5    1    3    3  502    0  0.80462868309E+02 -0.90674484492E+02 -0.71799704450E+03  0.72817124608E+03  0.41800000000E+01 0.  1.
         -5    1    3    3    0  502  0.24700162938E+02  0.23009237950E+02 -0.69822555559E+03  0.69905359020E+03  0.41800000000E+01 0.  1.
        -11    1    4    4    0    0 -0.11191384407E+03  0.43581570104E+02 -0.54975936307E+03  0.56272499414E+03  0.00000000000E+00 0. -1.
         11    1    4    4    0    0  0.67508128204E+01  0.24083676437E+02 -0.39797200802E+02  0.47004405497E+02  0.00000000000E+00 0.  1.
</event>
<event>
 8    1  0.3719512E-009  0.3567185E+03  0.7561462E-02  0.1059891E+00
          1   -1    0    0  501    0  0.00000000000E+00  0.00000000000E+00  0.21016178503E+04  0.21016178503E+04  0.00000000000E+00 0. -1.
         -1   -1    0    0    0  501 -0.00000000000E+00 -0.00000000000E+00 -0.73245967795E+02  0.73245967795E+02  0.00000000000E+00 0.  1.
         25    2    1    2    0    0 -0.34580848650E+03  0.65626374423E+02  0.13971276724E+04  0.14462029304E+04  0.12508737893E+03 0.  0.
         23    2    1    2    0    0  0.34580848650E+03 -0.65626374423E+02  0.63124421005E+03  0.72866088771E+03  0.92666640126E+02 0.  0.
          5    1    3    3  502    0 -0.55822405403E+02 -0.17931322724E+02  0.40318450944E+03  0.40744679939E+03  0.41800000000E+01 0. -1.
         -5    1    3    3    0  502 -0.28998608110E+03  0.83557697147E+02  0.99394316298E+03  0.10387561310E+04  0.41800000000E+01 0. -1.
        -11    1    4    4    0    0  0.14670543908E+03 -0.40270183896E+02  0.18617172585E+03  0.24042480129E+03  0.00000000000E+00 0.  1.
         11    1    4    4    0    0  0.19910304742E+03 -0.25356190526E+02  0.44507248420E+03  0.48823608642E+03  0.00000000000E+00 0. -1.
</event>
<event>
 8    1  0.3719512E-009  0.1853658E+03  0.7561462E-02  0.1162709E+00
         -2   -1    0    0    0  501 -0.00000000000E+00  0.00000000000E+00  0.62498765661E+02  0.62498765661E+02  0.00000000000E+00 0.  1.
          2   -1    0    0  501    0  0.00000000000E+00 -0.00000000000E+00 -0.74920114228E+03  0.74920114228E+03  0.00000000000E+00 0. -1.
         25    2    1    2    0    0 -0.17327479975E+03  0.59903416474E+02 -0.42562933858E+03  0.48002110397E+03  0.12508937149E+03 0.  0.
         23    2    1    2    0    0  0.17327479975E+03 -0.59903416474E+02 -0.26107303804E+03  0.33167880397E+03  0.90769610994E+02 0.  0.
          5    1    3    3  502    0 -0.36865024821E+02  0.23955565518E+02 -0.16349345051E+02  0.47092171939E+02  0.41800000000E+01 0.  1.
         -5    1    3    3    0  502 -0.13640977493E+03  0.35947850956E+02 -0.40927999353E+03  0.43292893203E+03  0.41800000000E+01 0.  1.
        -11    1    4    4    0    0  0.90571317842E+02 -0.16581286032E+02 -0.59759426323E+02  0.10976926572E+03  0.00000000000E+00 0.  1.
         11    1    4    4    0    0  0.82703481909E+02 -0.43322130442E+02 -0.20131361171E+03  0.22190953825E+03  0.00000000000E+00 0. -1.
</event>
<event>
 8    1  0.3719512E-009  0.1135413E+03  0.7561462E-02  0.1254149E+00
         -1   -1    0    0    0  501 -0.00000000000E+00  0.00000000000E+00  0.14156539588E+02  0.14156539588E+02  0.00000000000E+00 0.  1.
          1   -1    0    0  501    0  0.00000000000E+00 -0.00000000000E+00 -0.95816857694E+03  0.95816857694E+03  0.00000000000E+00 0. -1.
         25    2    1    2    0    0  0.13431553252E+02 -0.27188094165E+02 -0.62803323963E+03  0.64108800851E+03  0.12509390669E+03 0.  0.
         23    2    1    2    0    0 -0.13431553252E+02  0.27188094165E+02 -0.31597879773E+03  0.33123710802E+03  0.94635205022E+02 0.  0.
          5    1    3    3  502    0 -0.44309384693E+02 -0.48785119417E+02 -0.36194683790E+03  0.36792158854E+03  0.41800000000E+01 0.  1.
         -5    1    3    3    0  502  0.57740937945E+02  0.21597025252E+02 -0.26608640173E+03  0.27316641997E+03  0.41800000000E+01 0.  1.
        -11    1    4    4    0    0 -0.26455514548E+02 -0.30350871656E+02 -0.13617139408E+03  0.14199900783E+03  0.00000000000E+00 0. -1.
         11    1    4    4    0    0  0.13023961296E+02  0.57538965821E+02 -0.17980740365E+03  0.18923810019E+03  0.00000000000E+00 0.  1.
</event>
<event>
 8    1  0.3719512E-009  0.1096292E+03  0.7561462E-02  0.1261258E+00
         -1   -1    0    0    0  501 -0.00000000000E+00  0.00000000000E+00  0.39199228398E+02  0.39199228398E+02  0.00000000000E+00 0.  1.
          1   -1    0    0  501    0  0.00000000000E+00 -0.00000000000E+00 -0.48103828649E+03  0.48103828649E+03  0.00000000000E+00 0. -1.
         25    2    1    2    0    0 -0.58523350478E+02 -0.44321048114E+02 -0.16405365693E+03  0.21898101202E+03  0.12509893450E+03 0.  0.
         23    2    1    2    0    0  0.58523350478E+02  0.44321048114E+02 -0.27778540117E+03  0.30125650288E+03  0.90561656163E+02 0.  0.
          5    1    3    3  502    0  0.17072321214E+02  0.11192458242E+02  0.85289264022E+01  0.22515555927E+02  0.41800000000E+01 0. -1.
         -5    1    3    3    0  502 -0.75595671692E+02 -0.55513506356E+02 -0.17258258333E+03  0.19646545609E+03  0.41800000000E+01 0. -1.
        -11    1    4    4    0    0  0.38699364859E+01  0.49489861204E+02 -0.19987929466E+03  0.20595134184E+03  0.00000000000E+00 0. -1.
         11    1    4    4    0    0  0.54653413992E+02 -0.51688130905E+01 -0.77906106502E+02  0.95305161036E+02  0.00000000000E+00 0.  1.
</event>
<event>
 8    1  0.3719512E-009  0.1105606E+03  0.7561462E-02  0.1259535E+00
         -2   -1    0    0    0  501 -0.00000000000E+00  0.00000000000E+00  0.32204436565E+03  0.32204436565E+03  0.00000000000E+00 0.  1.
          2   -1    0    0  501    0  0.00000000000E+00 -0.00000000000E+00 -0.57147429491E+02  0.57147429491E+02  0.00000000000E+00 0. -1.
         25    2    1    2    0    0 -0.17275627429E+02 -0.72089581857E+02  0.99120771340E+02  0.17597929902E+03  0.12509368992E+03 0.  0.
         23    2    1    2    0    0  0.17275627429E+02  0.72089581857E+02  0.16577616482E+03  0.20321249612E+03  0.91204312630E+02 0.  0.
          5    1    3    3  502    0 -0.59089067614E+02  0.22841118940E+01  0.32185103972E+02  0.67454343050E+02  0.41800000000E+01 0. -1.
         -5    1    3    3    0  502  0.41813440185E+02 -0.74373693751E+02  0.66935667367E+02  0.10852495597E+03  0.41800000000E+01 0. -1.
        -11    1    4    4    0    0  0.17107880299E+02  0.31662249189E+02  0.37091385328E+01  0.36179210891E+02  0.00000000000E+00 0. -1.
         11    1    4    4    0    0  0.16774712979E+00  0.40427332668E+02  0.16206702628E+03  0.16703328523E+03  0.00000000000E+00 0.  1.
</event>
<event>
 8    1  0.3719512E-009  0.1139132E+03  0.7561462E-02  0.1253490E+00
         -2   -1    0    0    0  501 -0.00000000000E+00  0.00000000000E+00  0.12402135431E+02  0.12402135431E+02  0.00000000000E+00 0.  1.
          2   -1    0    0  501    0  0.00000000000E+00 -0.00000000000E+00 -0.10572302329E+04  0.10572302329E+04  0.00000000000E+00 0. -1.
         25    2    1    2    0    0 -0.22247547009E+02  0.17510423539E+02 -0.57450758395E+03  0.58864925958E+03  0.12508964189E+03 0.  0.
         23    2    1    2    0    0  0.22247547009E+02 -0.17510423539E+02 -0.47032051356E+03  0.48098310879E+03  0.96652972989E+02 0.  0.
          5    1    3    3  502    0  0.30280030228E+02  0.55083756445E+02 -0.25645385462E+03  0.26407792866E+03  0.41800000000E+01 0.  1.
         -5    1    3    3    0  502 -0.52527577237E+02 -0.37573332906E+02 -0.31805372933E+03  0.32457133092E+03  0.41800000000E+01 0.  1.
        -11    1    4    4    0    0  0.43194367720E+02 -0.47068631705E+02 -0.27410228361E+03  0.28144852349E+03  0.00000000000E+00 0. -1.
         11    1    4    4    0    0 -0.20946820711E+02  0.29558208166E+02 -0.19621822995E+03  0.19953458530E+03  0.00000000000E+00 0.  1.
</event>
<event>
 8    1  0.3719512E-009  0.2301471E+03  0.7561462E-02  0.1126536E+00
          1   -1    0    0  501    0  0.00000000000E+00  0.00000000000E+00  0.12635112306E+03  0.12635112306E+03  0.00000000000E+00 0. -1.
         -1   -1    0    0    0  501 -0.00000000000E+00 -0.00000000000E+00 -0.47465040600E+03  0.47465040600E+03  0.00000000000E+00 0.  1.
         25    2    1    2    0    0 -0.21291634527E+03 -0.23453073840E+02 -0.11912411405E+03  0.27517226396E+03  0.12508318651E+03 0.  0.
         23    2    1    2    0    0  0.21291634527E+03  0.23453073840E+02 -0.22917516889E+03  0.32582926510E+03  0.88091061991E+02 0.  0.
          5    1    3    3  502    0 -0.22430677638E+03 -0.59145746149E+01 -0.11861126645E+03  0.25383974679E+03  0.41800000000E+01 0.  1.
         -5    1    3    3    0  502  0.11390431110E+02 -0.17538499226E+02 -0.51284759775E+00  0.21332517165E+02  0.41800000000E+01 0.  1.
        -11    1    4    4    0    0  0.15867952683E+03  0.12164808970E+02 -0.21700937841E+03  0.26911009853E+03  0.00000000000E+00 0.  1.
         11    1    4    4    0    0  0.54236818440E+02  0.11288264870E+02 -0.12165790480E+02  0.56719166569E+02  0.00000000000E+00 0. -1.
</event>
<event>
 8    1  0.3719512E-009  0.1313727E+03  0.7561462E-02  0.1225433E+00
         -1   -1    0    0    0  501 -0.00000000000E+00  0.00000000000E+00  0.96261792385E+02  0.96261792385E+02  0.00000000000E+00 0.  1.
          1   -1    0    0  501    0  0.00000000000E+00 -0.00000000000E+00 -0.32760541704E+03  0.32760541704E+03  0.00000000000E+00 0. -1.
         25    2    1    2    0    0 -0.50729949654E+02 -0.84584563080E+02 -0.32284906861E+01  0.15932921767E+03  0.12508916958E+03 0.  0.
         23    2    1    2    0    0  0.50729949654E+02  0.84584563080E+02 -0.22811513396E+03  0.26453799175E+03  0.90640822121E+02 0.  0.
          5    1    3    3  502    0 -0.79023518511E+02 -0.93428319266E+02 -0.21421718163E+02  0.12429774627E+03  0.41800000000E+01 0. -1.
         -5    1    3    3    0  502  0.28293568857E+02  0.88437561862E+01  0.18193227477E+02  0.35031471396E+02  0.41800000000E+01 0. -1.
        -11    1    4    4    0    0  0.54411434553E+02  0.44981938396E+02 -0.62740020294E+02  0.94447282325E+02  0.00000000000E+00 0.  1.
         11    1    4    4    0    0 -0.36814848997E+01  0.39602624684E+02 -0.16537511367E+03  0.17009070943E+03  0.00000000000E+00 0. -1.
</event>
<event>
 8    1  0.3719512E-009  0.1080108E+03  0.7561462E-02  0.1264299E+00
         -2   -1    0    0    0  501 -0.00000000000E+00  0.00000000000E+00  0.10258889955E+02  0.10258889955E+02  0.00000000000E+00 0.  1.
          2   -1    0    0  501    0  0.00000000000E+00 -0.00000000000E+00 -0.15946824914E+04  0.15946824914E+04  0.00000000000E+00 0. -1.
         25    2    1    2    0    0  0.61263471174E+02  0.27003972494E+02 -0.94225704478E+03  0.95287879194E+03  0.12508887345E+03 0.  0.
         23    2    1    2    0    0 -0.61263471174E+02 -0.27003972494E+02 -0.64216655663E+03  0.65206258938E+03  0.91243118002E+02 0.  0.
          5    1    3    3  502    0  0.17896424732E+02  0.50227060498E+02 -0.15299317698E+03  0.16207228087E+03  0.41800000000E+01 0. -1.
         -5    1    3    3    0  502  0.43367046442E+02 -0.23223088004E+02 -0.78926386780E+03  0.79080651107E+03  0.41800000000E+01 0. -1.
        -11    1    4    4    0    0 -0.26063307701E+02  0.33937032693E+02 -0.24558298774E+03  0.24928301600E+03  0.00000000000E+00 0.  1.
         11    1    4    4    0    0 -0.35200163473E+02 -0.60941005187E+02 -0.39658356889E+03  0.40277957339E+03  0.00000000000E+00 0. -1.
</event>
<event>
 8    1  0.3719512E-009  0.8769396E+02  0.7561462E-02  0.1308534E+00
          3   -1    0    0  501    0  0.00000000000E+00  0.00000000000E+00  0.39664088774E+03  0.39664088774E+03  0.00000000000E+00 0. -1.
         -3   -1    0    0    0  501 -0.00000000000E+00 -0.00000000000E+00 -0.37112779893E+02  0.37112779893E+02  0.00000000000E+00 0.  1.
         25    2    1    2    0    0  0.43999368057E+02 -0.28067200819E+02  0.21376951050E+03  0.25311871556E+03  0.12509183986E+03 0.  0.
         23    2    1    2    0    0 -0.43999368057E+02  0.28067200819E+02  0.14575859735E+03  0.18063495207E+03  0.93057536270E+02 0.  0.
          5    1    3    3  502    0 -0.16113264149E+02 -0.35348752717E+02  0.17890489959E+03  0.18312183676E+03  0.41800000000E+01 0. -1.
         -5    1    3    3    0  502  0.60112632206E+02  0.72815518979E+01  0.34864610905E+02  0.69996878805E+02  0.41800000000E+01 0. -1.
        -11    1    4    4    0    0 -0.15029361411E+02  0.41167492172E+02  0.15395481403E+02  0.46450672372E+02  0.00000000000E+00 0.  1.
         11    1    4    4    0    0 -0.28970006646E+02 -0.13100291353E+02  0.13036311595E+03  0.13418427970E+03  0.00000000000E+00 0. -1.
</event>
<event>
 8    1  0.3719512E-009  0.7169274E+02  0.7561462E-02  0.1354430E+00
         -3   -1    0    0    0  501 -0.00000000000E+00  0.00000000000E+00  0.27063818151E+03  0.27063818151E+03  0.00000000000E+00 0.  1.
          3   -1    0    0  501    0  0.00000000000E+00 -0.00000000000E+00 -0.43689608545E+02  0.43689608545E+02  0.00000000000E+00 0. -1.
         25    2    1    2    0    0 -0.89217268420E+01 -0.47907739188E+00  0.88377970246E+02  0.15341761837E+03  0.12508586361E+03 0.  0.
         23    2    1    2    0    0  0.89217268420E+01  0.47907739188E+00  0.13857060272E+03  0.16091017168E+03  0.81304641253E+02 0.  0.
          5    1    3    3  502    0 -0.49459167935E+02  0.39579795374E+01  0.99221348822E+02  0.11101451868E+03  0.41800000000E+01 0. -1.
         -5    1    3    3    0  502  0.40537441093E+02 -0.44370569292E+01 -0.10843378576E+02  0.42403099692E+02  0.41800000000E+01 0. -1.
        -11    1    4    4    0    0 -0.16804008172E+02  0.15456205540E+02  0.12689800318E+03  0.12893553503E+03  0.00000000000E+00 0.  1.
         11    1    4    4    0    0  0.25725735014E+02 -0.14977128148E+02  0.11672599533E+02  0.31974636658E+02  0.00000000000E+00 0. -1.
</event>
<event>
 8    1  0.3719512E-009  0.1082606E+03  0.7561462E-02  0.1263825E+00
          1   -1    0    0  501    0  0.00000000000E+00  0.00000000000E+00  0.61116528202E+03  0.61116528202E+03  0.00000000000E+00 0. -1.
         -1   -1    0    0    0  501 -0.00000000000E+00 -0.00000000000E+00 -0.23926138613E+02  0.23926138613E+02  0.00000000000E+00 0.  1.
         25    2    1    2    0    0  0.39340434162E+02  0.30390201536E+02  0.26966351903E+03  0.30139184898E+03  0.12508956401E+03 0.  0.
         23    2    1    2    0    0 -0.39340434162E+02 -0.30390201536E+02  0.31757562437E+03  0.33369957165E+03  0.89609669206E+02 0.  0.
          5    1    3    3  502    0 -0.14554305363E+02  0.57804679728E+02  0.66608974331E+02  0.89484281662E+02  0.41800000000E+01 0. -1.
         -5    1    3    3    0  502  0.53894739525E+02 -0.27414478192E+02  0.20305454470E+03  0.21190756732E+03  0.41800000000E+01 0. -1.
        -11    1    4    4    0    0  0.16506307649E+02  0.16421967832E+02  0.13717281754E+03  0.13913490249E+03  0.00000000000E+00 0. -1.
         11    1    4    4    0    0 -0.55846741811E+02 -0.46812169368E+02  0.18040280683E+03  0.19456466916E+03  0.00000000000E+00 0.  1.
</event>
<event>
 8    1  0.3719512E-009  0.1073941E+03  0.7561462E-02  0.1265473E+00
          1   -1    0    0  501    0  0.00000000000E+00  0.00000000000E+00  0.29859490658E+03  0.29859490658E+03  0.00000000000E+00 0. -1.
         -1   -1    0    0    0  501 -0.00000000000E+00 -0.00000000000E+00 -0.61977867261E+02  0.61977867261E+02  0.00000000000E+00 0.  1.
         25    2    1    2    0    0 -0.38613540291E+02  0.40810782335E+02  0.20942948115E+03  0.25033416180E+03  0.12509979832E+03 0.  0.
         23    2    1    2    0    0  0.38613540291E+02 -0.40810782335E+02  0.27187558169E+02  0.11023861204E+03  0.90867281334E+02 0.  0.
          5    1    3    3  502    0 -0.34724945871E+01 -0.35204498673E+02  0.15105737360E+02  0.38691997191E+02  0.41800000000E+01 0.  1.
         -5    1    3    3    0  502 -0.35141045704E+02  0.76015281008E+02  0.19432374379E+03  0.21164216461E+03  0.41800000000E+01 0.  1.
        -11    1    4    4    0    0 -0.13748422501E+01  0.21356006253E+02 -0.14046233265E+02  0.25598161325E+02  0.00000000000E+00 0. -1.
         11    1    4    4    0    0  0.39988382542E+02 -0.62166788588E+02  0.41233791433E+02  0.84640450717E+02  0.00000000000E+00 0.  1.
</event>
<event>
 8    1  0.3719512E-009  0.1496820E+03  0.7561462E-02  0.1200864E+00
         -3   -1    0    0    0  501 -0.00000000000E+00  0.00000000000E+00  0.28555139465E+03  0.28555139465E+03  0.00000000000E+00 0.  1.
          3   -1    0    0  501    0  0.00000000000E+00 -0.00000000000E+00 -0.82188748213E+02  0.82188748213E+02  0.00000000000E+00 0. -1.
         25    2    1    2    0    0 -0.10574804161E+03  0.35462576718E+00  0.85615205812E+02  0.18482232659E+03  0.12508618979E+03 0.  0.
         23    2    1    2    0    0  0.10574804161E+03 -0.35462576718E+00  0.11774744063E+03  0.18291781627E+03  0.91715285919E+02 0.  0.
          5    1    3    3  502    0 -0.85268010467E+02  0.54597084778E+02  0.74161639255E+02  0.12557426652E+03  0.41800000000E+01 0. -1.
         -5    1    3    3    0  502 -0.20480031148E+02 -0.54242459010E+02  0.11453566557E+02  0.59248060071E+02  0.41800000000E+01 0. -1.
        -11    1    4    4    0    0  0.10230206594E+03 -0.32675563716E+02  0.87701346208E+02  0.13865399845E+03  0.00000000000E+00 0.  1.
         11    1    4    4    0    0  0.34459756718E+01  0.32320937949E+02  0.30046094417E+02  0.44263817819E+02  0.00000000000E+00 0. -1.
</event>
<event>
 8    1  0.3719512E-009  0.1074465E+03  0.7561462E-02  0.1265373E+00
         -1   -1    0    0    0  501 -0.00000000000E+00  0.00000000000E+00  0.45831405364E+02  0.45831405364E+02  0.00000000000E+00 0.  1.
          1   -1    0    0  501    0  0.00000000000E+00 -0.00000000000E+00 -0.26798224627E+03  0.26798224627E+03  0.00000000000E+00 0. -1.
         25    2    1    2    0    0 -0.40327843166E+01  0.62908434732E+01 -0.92954630833E+02  0.15602773085E+03  0.12509297079E+03 0.  0.
         23    2    1    2    0    0  0.40327843166E+01 -0.62908434732E+01 -0.12919621008E+03  0.15778592079E+03  0.90271247028E+02 0.  0.
          5    1    3    3  502    0 -0.23376418453E+02 -0.55435301461E+02 -0.40544100209E+02  0.72669292343E+02  0.41800000000E+01 0. -1.
         -5    1    3    3    0  502  0.19343634137E+02  0.61726144934E+02 -0.52410530623E+02  0.83358438507E+02  0.41800000000E+01 0. -1.
        -11    1    4    4    0    0 -0.42157673055E+02  0.42966853645E+01 -0.71602762407E+02  0.83202683171E+02  0.00000000000E+00 0.  1.
         11    1    4    4    0    0  0.46190457371E+02 -0.10587528838E+02 -0.57593447671E+02  0.74583237619E+02  0.00000000000E+00 0. -1.
</event>
<event>
 8    1  0.3719512E-009  0.1502174E+03  0.7561462E-02  0.1200206E+00
          2   -1    0    0  501    0  0.00000000000E+00  0.00000000000E+00  0.41529834684E+03  0.41529834684E+03  0.00000000000E+00 0. -1.
         -2   -1    0    0    0  501 -0.00000000000E+00 -0.00000000000E+00 -0.69472266774E+02  0.69472266774E+02  0.00000000000E+00 0.  1.
         25    2    1    2    0    0 -0.12198874625E+03  0.36274757131E+02  0.22706046874E+03  0.28879115981E+03  0.12508703092E+03 0.  0.
         23    2    1    2    0    0  0.12198874625E+03 -0.36274757131E+02  0.11876561132E+03  0.19597945380E+03  0.90030903933E+02 0.  0.
          5    1    3    3  502    0 -0.13865417205E+03  0.37721004642E+02  0.14222375944E+03  0.20221998855E+03  0.41800000000E+01 0. -1.
         -5    1    3    3    0  502  0.16665425805E+02 -0.14462475107E+01  0.84836709297E+02  0.86571171261E+02  0.41800000000E+01 0. -1.
        -11    1    4    4    0    0  0.41384396351E+02 -0.41572743852E+02  0.84713489640E+01  0.59268246524E+02  0.00000000000E+00 0.  1.
         11    1    4    4    0    0  0.80604349897E+02  0.52979867211E+01  0.11029426236E+03  0.13671120728E+03  0.00000000000E+00 0. -1.
</event>
<event>
 8    1  0.3719512E-009  0.1345735E+03  0.7561462E-02  0.1220823E+00
          2   -1    0    0  501    0  0.00000000000E+00  0.00000000000E+00  0.21651124518E+03  0.21651124518E+03  0.00000000000E+00 0.  1.
         -2   -1    0    0    0  501 -0.00000000000E+00 -0.00000000000E+00 -0.10986404034E+03  0.10986404034E+03  0.00000000000E+00 0. -1.
         25    2    1    2    0    0  0.84092027107E+02 -0.40744770243E+02 -0.23282371744E+01  0.15615623308E+03  0.12509093939E+03 0.  0.
         23    2    1    2    0    0 -0.84092027107E+02  0.40744770243E+02  0.10897544201E+03  0.17021905243E+03  0.91472802103E+02 0.  0.
          5    1    3    3  502    0  0.35994499387E+02 -0.82938570790E+02 -0.12040854155E+02  0.91306435040E+02  0.41800000000E+01 0.  1.
         -5    1    3    3    0  502  0.48097527720E+02  0.42193800547E+02  0.97126169806E+01  0.64849798041E+02  0.41800000000E+01 0.  1.
        -11    1    4    4    0    0 -0.23801708806E+02  0.48213433402E+02  0.10915332201E+02  0.54865298501E+02  0.00000000000E+00 0. -1.
         11    1    4    4    0    0 -0.60290318301E+02 -0.74686631593E+01  0.98060109811E+02  0.11535375393E+03  0.00000000000E+00 0.  1.
</event>
<event>
 8    1  0.3719512E-009  0.1008106E+03  0.7561462E-02  0.1278601E+00
         -2   -1    0    0    0  501 -0.00000000000E+00  0.00000000000E+00  0.28761808504E+02  0.28761808504E+02  0.00000000000E+00 0.  1.
          2   -1    0    0  501    0  0.00000000000E+00 -0.00000000000E+00 -0.57533392063E+03  0.57533392063E+03  0.00000000000E+00 0. -1.
         25    2    1    2    0    0  0.20516104818E+02 -0.65092463522E+02 -0.36094691918E+03  0.38805688002E+03  0.12509006475E+03 0.  0.
         23    2    1    2    0    0 -0.20516104818E+02  0.65092463522E+02 -0.18562519294E+03  0.21603884911E+03  0.86937521856E+02 0.  0.
          5    1    3    3  502    0  0.41801591098E+02 -0.48242342028E+02 -0.66289652643E+02  0.92122131055E+02  0.41800000000E+01 0. -1.
         -5    1    3    3    0  502 -0.21285486281E+02 -0.16850121494E+02 -0.29465726654E+03  0.29593474897E+03  0.41800000000E+01 0. -1.
        -11    1    4    4    0    0  0.33765975491E+02  0.32514237474E+02 -0.87464799816E+02  0.99234106769E+02  0.00000000000E+00 0. -1.
         11    1    4    4    0    0 -0.54282080309E+02  0.32578226047E+02 -0.98160393126E+02  0.11680474234E+03  0.00000000000E+00 0.  1.
</event>
<event>
 8    1  0.3719512E-009  0.1212851E+03  0.7561462E-02  0.1240992E+00
         -2   -1    0    0    0  501 -0.00000000000E+00  0.00000000000E+00  0.91044423370E+01  0.91044423370E+01  0.00000000000E+00 0.  1.
          2   -1    0    0  501    0  0.00000000000E+00 -0.00000000000E+00 -0.22666391365E+04  0.22666391365E+04  0.00000000000E+00 0. -1.
         25    2    1    2    0    0 -0.37772242836E+02 -0.51969876862E+02 -0.17229312257E+04  0.17286604223E+04  0.12508891473E+03 0.  0.
         23    2    1    2    0    0  0.37772242836E+02  0.51969876862E+02 -0.53460346851E+03  0.54708315662E+03  0.96806514667E+02 0.  0.
          5    1    3    3  502    0  0.20907817240E+01  0.32702734106E+02 -0.86483498983E+03  0.86546569673E+03  0.41800000000E+01 0. -1.
         -5    1    3    3    0  502 -0.39863024560E+02 -0.84672610968E+02 -0.85809623587E+03  0.86319472554E+03  0.41800000000E+01 0. -1.
        -11    1    4    4    0    0  0.66420142891E+02  0.56060968276E+02 -0.38243607414E+03  0.39218849850E+03  0.00000000000E+00 0.  1.
         11    1    4    4    0    0 -0.28647900055E+02 -0.40910914146E+01 -0.15216739437E+03  0.15489465812E+03  0.00000000000E+00 0. -1.
</event>
<event>
 8    1  0.3719512E-009  0.8631076E+02  0.7561462E-02  0.1312040E+00
         -1   -1    0    0    0  501 -0.00000000000E+00  0.00000000000E+00  0.14708445748E+02  0.14708445748E+02  0.00000000000E+00 0.  1.
          1   -1    0    0  501    0  0.00000000000E+00 -0.00000000000E+00 -0.19688464393E+04  0.19688464393E+04  0.00000000000E+00 0. -1.
         25    2    1    2    0    0  0.23090008587E+02 -0.85596017080E+01 -0.18101844681E+04  0.18146684282E+04  0.12508909012E+03 0.  0.
         23    2    1    2    0    0 -0.23090008587E+02  0.85596017080E+01 -0.14395352552E+03  0.16888645692E+03  0.84815107990E+02 0.  0.
          5    1    3    3  502    0 -0.66789666487E+01  0.41921564764E+02 -0.26870126130E+03  0.27206592292E+03  0.41800000000E+01 0. -1.
         -5    1    3    3    0  502  0.29768975236E+02 -0.50481166472E+02 -0.15414832068E+04  0.15426025052E+04  0.41800000000E+01 0. -1.
        -11    1    4    4    0    0 -0.15294686049E+02 -0.29035419545E+02 -0.18464734709E+02  0.37655403827E+02  0.00000000000E+00 0.  1.
         11    1    4    4    0    0 -0.77953225388E+01  0.37595021253E+02 -0.12548879082E+03  0.13123105310E+03  0.00000000000E+00 0. -1.
</event>
<event>
 8    1  0.3719512E-009  0.6543399E+02  0.7561462E-02  0.1376346E+00
         -2   -1    0    0    0  501 -0.00000000000E+00  0.00000000000E+00  0.10774448775E+03  0.10774448775E+03  0.00000000000E+00 0.  1.
          2   -1    0    0  501    0  0.00000000000E+00 -0.00000000000E+00 -0.12666884248E+03  0.12666884248E+03  0.00000000000E+00 0. -1.
         25    2    1    2    0    0 -0.25854546939E+02  0.77664952892E+01  0.12070940014E+02  0.12852976331E+03  0.12508163900E+03 0.  0.
         23    2    1    2    0    0  0.25854546939E+02 -0.77664952892E+01 -0.30995294744E+02  0.10588356692E+03  0.97579943646E+02 0.  0.
          5    1    3    3  502    0 -0.29229094177E+02 -0.69467254509E+01  0.65858483363E+02  0.72507993848E+02  0.41800000000E+01 0. -1.
         -5    1    3    3    0  502  0.33745472376E+01  0.14713220740E+02 -0.53787543350E+02  0.56021769458E+02  0.41800000000E+01 0. -1.
        -11    1    4    4    0    0  0.54833331187E+02 -0.10264533132E+02  0.89204758852E+01  0.56494510703E+02  0.00000000000E+00 0.  1.
         11    1    4    4    0    0 -0.28978784248E+02  0.24980378426E+01 -0.39915770629E+02  0.49389056222E+02  0.00000000000E+00 0. -1.
</event>
<event>
 8    1  0.3719512E-009  0.9611821E+02  0.7561462E-02  0.1288677E+00
         -2   -1    0    0    0  501 -0.00000000000E+00  0.00000000000E+00  0.45225676733E+02  0.45225676733E+02  0.00000000000E+00 0.  1.
          2   -1    0    0  501    0  0.00000000000E+00 -0.00000000000E+00 -0.31227491284E+03  0.31227491284E+03  0.00000000000E+00 0. -1.
         25    2    1    2    0    0 -0.36681363477E+02  0.27303890761E+02 -0.15067688027E+03  0.20110400298E+03  0.12509305693E+03 0.  0.
         23    2    1    2    0    0  0.36681363477E+02 -0.27303890761E+02 -0.11637235584E+03  0.15639658659E+03  0.93948614764E+02 0.  0.
          5    1    3    3  502    0 -0.37744418011E+02 -0.25053646794E+02 -0.44331802453E+01  0.45710521718E+02  0.41800000000E+01 0.  1.
         -5    1    3    3    0  502  0.10630545336E+01  0.52357537556E+02 -0.14624370002E+03  0.15539348127E+03  0.41800000000E+01 0.  1.
        -11    1    4    4    0    0 -0.22435964088E+01 -0.49397538965E+02 -0.94330687484E+02  0.10650553592E+03  0.00000000000E+00 0. -1.
         11    1    4    4    0    0  0.38924959886E+02  0.22093648204E+02 -0.22041668359E+02  0.49891050672E+02  0.00000000000E+00 0.  1.
</event>
<event>
 8    1  0.3719512E-009  0.9697042E+02  0.7561462E-02  0.1286799E+00
          1   -1    0    0  501    0  0.00000000000E+00  0.00000000000E+00  0.52367143542E+03  0.52367143542E+03  0.00000000000E+00 0. -1.
         -1   -1    0    0    0  501 -0.00000000000E+00 -0.00000000000E+00 -0.33756838211E+02  0.33756838211E+02  0.00000000000E+00 0.  1.
         25    2    1    2    0    0  0.56851229039E+01  0.62847252134E+02  0.18213678525E+03  0.22978504679E+03  0.12508101960E+03 0.  0.
         23    2    1    2    0    0 -0.56851229039E+01 -0.62847252134E+02  0.30777781196E+03  0.32764322684E+03  0.92955929551E+02 0.  0.
          5    1    3    3  502    0 -0.26395989000E+02  0.65986746772E+02  0.18393383743E+03  0.19723115357E+03  0.41800000000E+01 0.  1.
         -5    1    3    3    0  502  0.32081111904E+02 -0.31394946384E+01 -0.17970521774E+01  0.32553893225E+02  0.41800000000E+01 0.  1.
        -11    1    4    4    0    0 -0.34860276148E+02 -0.27438147614E+02  0.54643623207E+02  0.70384773600E+02  0.00000000000E+00 0.  1.
         11    1    4    4    0    0  0.29175153244E+02 -0.35409104520E+02  0.25313418875E+03  0.25725845324E+03  0.00000000000E+00 0. -1.
</event>
<event>
 8    1  0.3719512E-009  0.1223795E+03  0.7561462E-02  0.1239222E+00
          1   -1    0    0  501    0  0.00000000000E+00  0.00000000000E+00  0.14312019921E+03  0.14312019921E+03  0.00000000000E+00 0. -1.
         -1   -1    0    0    0  501 -0.00000000000E+00 -0.00000000000E+00 -0.27380736040E+03  0.27380736040E+03  0.00000000000E+00 0.  1.
         25    2    1    2    0    0  0.60899188745E+02 -0.46552361747E+01 -0.22997083746E+03  0.26881922547E+03  0.12508719954E+03 0.  0.
         23    2    1    2    0    0 -0.60899188745E+02  0.46552361747E+01  0.99283676264E+02  0.14810833413E+03  0.91369841048E+02 0.  0.
          5    1    3    3  502    0 -0.38389569105E+02 -0.92357334193E+01 -0.63878074213E+02  0.75212622299E+02  0.41800000000E+01 0.  1.
         -5    1    3    3    0  502  0.99288757849E+02  0.45804972446E+01 -0.16609276324E+03  0.19360660317E+03  0.41800000000E+01 0.  1.
        -11    1    4    4    0    0 -0.52856243139E+02  0.41911718336E+02  0.42532266475E+02  0.79745647306E+02  0.00000000000E+00 0. -1.
         11    1    4    4    0    0 -0.80429456055E+01 -0.37256482161E+02  0.56751409789E+02  0.68362686826E+02  0.00000000000E+00 0.  1.
</event>
<event>
 8    1  0.3719512E-009  0.9197873E+02  0.7561462E-02  0.1298129E+00
          1   -1    0    0  501    0  0.00000000000E+00  0.00000000000E+00  0.11345129899E+04  0.11345129899E+04  0.00000000000E+00 0. -1.
         -1   -1    0    0    0  501 -0.00000000000E+00 -0.00000000000E+00 -0.12935692071E+02  0.12935692071E+02  0.00000000000E+00 0.  1.
         25    2    1    2    0    0  0.29678484679E+02 -0.37521919668E+02  0.76741045021E+03  0.77900895824E+03  0.12508977180E+03 0.  0.
         23    2    1    2    0    0 -0.29678484679E+02  0.37521919668E+02  0.35416684760E+03  0.36843972372E+03  0.89582181072E+02 0.  0.
          5    1    3    3  502    0 -0.27027362437E+02 -0.37856261052E+02  0.60745711028E+03  0.60924969270E+03  0.41800000000E+01 0.  1.
         -5    1    3    3    0  502  0.56705847116E+02  0.33434138356E+00  0.15995333993E+03  0.16975926554E+03  0.41800000000E+01 0.  1.
        -11    1    4    4    0    0 -0.14998436758E+02  0.55323943891E+02  0.33032175467E+03  0.33525833842E+03  0.00000000000E+00 0. -1.
         11    1    4    4    0    0 -0.14680047921E+02 -0.17802024223E+02  0.23845092933E+02  0.33181385299E+02  0.00000000000E+00 0.  1.
</event>
<event>
 8    1  0.3719512E-009  0.1029027E+03  0.7561462E-02  0.1274308E+00
          1   -1    0    0  501    0  0.00000000000E+00  0.00000000000E+00  0.28515379249E+02  0.28515379249E+02  0.00000000000E+00 0. -1.
         -1   -1    0    0    0  501 -0.00000000000E+00 -0.00000000000E+00 -0.52074836248E+03  0.52074836248E+03  0.00000000000E+00 0.  1.
         25    2    1    2    0    0 -0.33459124438E+01  0.31558160131E+02 -0.18316979691E+03  0.22407134198E+03  0.12509867784E+03 0.  0.
         23    2    1    2    0    0  0.33459124438E+01 -0.31558160131E+02 -0.30906318632E+03  0.32519239975E+03  0.96036092766E+02 0.  0.
          5    1    3    3  502    0 -0.34699587432E+02  0.55285706521E+02 -0.17039569419E+03  0.18251776821E+03  0.41800000000E+01 0. -1.
         -5    1    3    3    0  502  0.31353674989E+02 -0.23727546391E+02 -0.12774102719E+02  0.41553573773E+02  0.41800000000E+01 0. -1.
        -11    1    4    4    0    0  0.32177284075E+02  0.22724673122E+02 -0.13284034471E+03  0.13855809454E+03  0.00000000000E+00 0.  1.
         11    1    4    4    0    0 -0.28831371631E+02 -0.54282833252E+02 -0.17622284161E+03  0.18663430521E+03  0.00000000000E+00 0. -1.
</event>
<event>
 8    1  0.3719512E-009  0.1144811E+03  0.7561462E-02  0.1252490E+00
         -2   -1    0    0    0  501 -0.00000000000E+00  0.00000000000E+00  0.26623195002E+03  0.26623195002E+03  0.00000000000E+00 0.  1.
          2   -1    0    0  501    0  0.00000000000E+00 -0.00000000000E+00 -0.68375401692E+02  0.68375401692E+02  0.00000000000E+00 0. -1.
         25    2    1    2    0    0  0.67621803189E+02 -0.67260615130E+01  0.15937953902E+03  0.21369544687E+03  0.12508380544E+03 0.  0.
         23    2    1    2    0    0 -0.67621803189E+02  0.67260615130E+01  0.38477009314E+02  0.12091190485E+03  0.92310672831E+02 0.  0.
          5    1    3    3  502    0  0.62026682951E+02 -0.57856044314E+02  0.68173674642E+02  0.10890249573E+03  0.41800000000E+01 0. -1.
         -5    1    3    3    0  502  0.55951202380E+01  0.51129982801E+02  0.91205864375E+02  0.10479295114E+03  0.41800000000E+01 0. -1.
        -11    1    4    4    0    0 -0.68844160057E+02  0.25651915637E+02  0.58067750026E+02  0.93645089262E+02  0.00000000000E+00 0.  1.
         11    1    4    4    0    0  0.12223568688E+01 -0.18925854124E+02 -0.19590740712E+02  0.27266815587E+02  0.00000000000E+00 0. -1.
</event>
<event>
 8    1  0.3719512E-009  0.1263341E+03  0.7561462E-02  0.1232999E+00
          2   -1    0    0  501    0  0.00000000000E+00  0.00000000000E+00  0.98796962586E+03  0.98796962586E+03  0.00000000000E+00 0. -1.
         -2   -1    0    0    0  501 -0.00000000000E+00 -0.00000000000E+00 -0.18333094739E+02  0.18333094739E+02  0.00000000000E+00 0.  1.
         25    2    1    2    0    0 -0.57796013471E+02  0.44396192734E+02  0.64700958823E+03  0.66300900593E+03  0.12509250011E+03 0.  0.
         23    2    1    2    0    0  0.57796013471E+02 -0.44396192734E+02  0.32262694289E+03  0.34329371466E+03  0.91929479211E+02 0.  0.
          5    1    3    3  502    0 -0.68937667798E+02 -0.18398219983E+02  0.45658362388E+03  0.46214388943E+03  0.41800000000E+01 0. -1.
         -5    1    3    3    0  502  0.11141654327E+02  0.62794412717E+02  0.19042596435E+03  0.20086511651E+03  0.41800000000E+01 0. -1.
        -11    1    4    4    0    0  0.82161255537E+02 -0.43348718569E+02  0.25864749004E+03  0.27482377520E+03  0.00000000000E+00 0. -1.
         11    1    4    4    0    0 -0.24365242065E+02 -0.10474741652E+01  0.63979452853E+02  0.68469939465E+02  0.00000000000E+00 0.  1.
</event>
<event>
 8    1  0.3719512E-009  0.9868509E+02  0.7561462E-02  0.1283086E+00
          1   -1    0    0  501    0  0.00000000000E+00  0.00000000000E+00  0.49444914162E+03  0.49444914162E+03  0.00000000000E+00 0. -1.
         -1   -1    0    0    0  501 -0.00000000000E+00 -0.00000000000E+00 -0.27044526204E+02  0.27044526204E+02  0.00000000000E+00 0.  1.
         25    2    1    2    0    0  0.69413475079E+01  0.13652674909E+02  0.18161973670E+03  0.22106118583E+03  0.12509093207E+03 0.  0.
         23    2    1    2    0    0 -0.69413475079E+01 -0.13652674909E+02  0.28578487871E+03  0.30043248199E+03  0.91389832560E+02 0.  0.
          5    1    3    3  502    0 -0.36475700892E+01  0.60648213261E+02  0.43831474247E+02  0.75034532543E+02  0.41800000000E+01 0. -1.
         -5    1    3    3    0  502  0.10588917597E+02 -0.46995538352E+02  0.13778826245E+03  0.14602665329E+03  0.41800000000E+01 0. -1.
        -11    1    4    4    0    0 -0.53179257052E+01  0.37027720172E+02  0.77379474090E+02  0.85947166361E+02  0.00000000000E+00 0.  1.
         11    1    4    4    0    0 -0.16234218027E+01 -0.50680395081E+02  0.20840540462E+03  0.21448531563E+03  0.00000000000E+00 0. -1.
</event>
<event>
 8    1  0.3719512E-009  0.1112336E+03  0.7561462E-02  0.1258302E+00
          1   -1    0    0  501    0  0.00000000000E+00  0.00000000000E+00  0.49278281785E+03  0.49278281785E+03  0.00000000000E+00 0. -1.
         -1   -1    0    0    0  501 -0.00000000000E+00 -0.00000000000E+00 -0.29124853095E+02  0.29124853095E+02  0.00000000000E+00 0.  1.
         25    2    1    2    0    0 -0.50837546337E+02  0.19344584161E+01  0.26402147301E+03  0.29654990777E+03  0.12508521632E+03 0.  0.
         23    2    1    2    0    0  0.50837546337E+02 -0.19344584161E+01  0.19963649174E+03  0.22535776317E+03  0.91341087907E+02 0.  0.
          5    1    3    3  502    0 -0.37661200199E+02 -0.52644044970E+02  0.20484516916E+03  0.21486920952E+03  0.41800000000E+01 0. -1.
         -5    1    3    3    0  502 -0.13176346138E+02  0.54578503386E+02  0.59176303851E+02  0.81680698252E+02  0.41800000000E+01 0. -1.
        -11    1    4    4    0    0 -0.20643462059E+02 -0.18730286314E+02  0.82775945813E+02  0.87343192960E+02  0.00000000000E+00 0. -1.
         11    1    4    4    0    0  0.71481008397E+02  0.16795827898E+02  0.11686054593E+03  0.13801457021E+03  0.00000000000E+00 0.  1.
</event>
<event>
 8    1  0.3719512E-009  0.1331250E+03  0.7561462E-02  0.1222891E+00
         -1   -1    0    0    0  501 -0.00000000000E+00  0.00000000000E+00  0.19761604626E+03  0.19761604626E+03  0.00000000000E+00 0. -1.
          1   -1    0    0  501    0  0.00000000000E+00 -0.00000000000E+00 -0.12110288273E+03  0.12110288273E+03  0.00000000000E+00 0.  1.
         25    2    1    2    0    0  0.33518917626E+02  0.89376688851E+02  0.96053597807E+02  0.18435419235E+03  0.12509382174E+03 0.  0.
         23    2    1    2    0    0 -0.33518917626E+02 -0.89376688851E+02 -0.19540434279E+02  0.13436473664E+03  0.92522124546E+02 0.  0.
          5    1    3    3  502    0  0.17204223998E+01 -0.24212956958E+02 -0.91179382764E+01  0.26264735603E+02  0.41800000000E+01 0.  1.
         -5    1    3    3    0  502  0.31798495226E+02  0.11358964581E+03  0.10517153608E+03  0.15808945675E+03  0.41800000000E+01 0.  1.
        -11    1    4    4    0    0 -0.53971134688E+02 -0.32160709051E+02  0.14833509805E+02  0.64554067256E+02  0.00000000000E+00 0. -1.
         11    1    4    4    0    0  0.20452217062E+02 -0.57215979800E+02 -0.34373944084E+02  0.69810669379E+02  0.00000000000E+00 0.  1.
</event>
<event>
 8    1  0.3719512E-009  0.1768391E+03  0.7561462E-02  0.1170898E+00
         -1   -1    0    0    0  501 -0.00000000000E+00  0.00000000000E+00  0.10959853267E+03  0.10959853267E+03  0.00000000000E+00 0.  1.
          1   -1    0    0  501    0  0.00000000000E+00 -0.00000000000E+00 -0.57663963954E+03  0.57663963954E+03  0.00000000000E+00 0. -1.
         25    2    1    2    0    0  0.15060973279E+03 -0.35386698532E+00 -0.47096655962E+03  0.51003982220E+03  0.12509077947E+03 0.  0.
         23    2    1    2    0    0 -0.15060973279E+03  0.35386698532E+00  0.39254527563E+01  0.17619835001E+03  0.91362095721E+02 0.  0.
          5    1    3    3  502    0 -0.82398191380E+01 -0.16511205865E+02 -0.84520330934E+01  0.20722543327E+02  0.41800000000E+01 0. -1.
         -5    1    3    3    0  502  0.15884955193E+03  0.16157338880E+02 -0.46251452653E+03  0.48931727887E+03  0.41800000000E+01 0. -1.
        -11    1    4    4    0    0 -0.51592538696E+02 -0.42787488729E+02 -0.81407761306E+01  0.67519119343E+02  0.00000000000E+00 0.  1.
         11    1    4    4    0    0 -0.99017194094E+02  0.43141355715E+02  0.12066228887E+02  0.10867923067E+03  0.00000000000E+00 0. -1.
</event>
<event>
 8    1  0.3719512E-009  0.8739416E+02  0.7561462E-02  0.1309288E+00
          1   -1    0    0  501    0  0.00000000000E+00  0.00000000000E+00  0.62401161205E+02  0.62401161205E+02  0.00000000000E+00 0. -1.
         -1   -1    0    0    0  501 -0.00000000000E+00 -0.00000000000E+00 -0.34589310556E+03  0.34589310556E+03  0.00000000000E+00 0.  1.
         25    2    1    2    0    0 -0.64227612612E+02 -0.56905766140E+02 -0.21579198098E+03  0.26377551649E+03  0.12509153290E+03 0.  0.
         23    2    1    2    0    0  0.64227612612E+02  0.56905766140E+02 -0.67699963376E+02  0.14451875027E+03  0.94545923749E+02 0.  0.
          5    1    3    3  502    0 -0.29944551830E+02 -0.14240065097E+02 -0.20515849681E+03  0.20786278371E+03  0.41800000000E+01 0.  1.
         -5    1    3    3    0  502 -0.34283060781E+02 -0.42665701043E+02 -0.10633484175E+02  0.55912732787E+02  0.41800000000E+01 0.  1.
        -11    1    4    4    0    0  0.33686719057E+02  0.36908286928E+02 -0.89134313231E+02  0.10218582328E+03  0.00000000000E+00 0.  1.
         11    1    4    4    0    0  0.30540893555E+02  0.19997479212E+02  0.21434349854E+02  0.42332926991E+02  0.00000000000E+00 0. -1.
</event>
<event>
 8    1  0.3719512E-009  0.1051611E+03  0.7561462E-02  0.1269802E+00
          2   -1    0    0  501    0  0.00000000000E+00  0.00000000000E+00  0.31170244640E+03  0.31170244640E+03  0.00000000000E+00 0.  1.
         -2   -1    0    0    0  501 -0.00000000000E+00 -0.00000000000E+00 -0.51469810285E+02  0.51469810285E+02  0.00000000000E+00 0. -1.
         25    2    1    2    0    0 -0.52612832965E+02  0.30948728038E+02  0.11421795633E+03  0.18005282579E+03  0.12508934633E+03 0.  0.
         23    2    1    2    0    0  0.52612832965E+02 -0.30948728038E+02  0.14601467978E+03  0.18311943089E+03  0.92122230218E+02 0.  0.
          5    1    3    3  502    0  0.12124189220E+02 -0.36381047796E+02  0.61837700177E+02  0.72883126759E+02  0.41800000000E+01 0.  1.
         -5    1    3    3    0  502 -0.64737022185E+02  0.67329775834E+02  0.52380256157E+02  0.10716969903E+03  0.41800000000E+01 0.  1.
        -11    1    4    4    0    0  0.23340385897E+02  0.12023401123E+02 -0.19082174465E+01  0.26324457871E+02  0.00000000000E+00 0. -1.
         11    1    4    4    0    0  0.29272447068E+02 -0.42972129161E+02  0.14792289722E+03  0.15679497302E+03  0.00000000000E+00 0.  1.
</event>
<event>
 8    1  0.3719512E-009  0.1497712E+03  0.7561462E-02  0.1200754E+00
          2   -1    0    0  501    0  0.00000000000E+00  0.00000000000E+00  0.10308808675E+04  0.10308808675E+04  0.00000000000E+00 0. -1.
         -2   -1    0    0    0  501 -0.00000000000E+00 -0.00000000000E+00 -0.31287347298E+02  0.31287347298E+02  0.00000000000E+00 0.  1.
         25    2    1    2    0    0  0.13482702972E+03  0.42549549288E+02  0.45450093297E+03  0.49214570546E+03  0.12508998856E+03 0.  0.
         23    2    1    2    0    0 -0.13482702972E+03 -0.42549549288E+02  0.54509258724E+03  0.57002250935E+03  0.88379524869E+02 0.  0.
          5    1    3    3  502    0  0.11521432119E+03  0.30004309887E+02  0.17532311197E+03  0.21196760227E+03  0.41800000000E+01 0. -1.
         -5    1    3    3    0  502  0.19612708527E+02  0.12545239401E+02  0.27917782100E+03  0.28017810319E+03  0.41800000000E+01 0. -1.
        -11    1    4    4    0    0 -0.97920045931E+02  0.32063121973E+01  0.42715087291E+03  0.43824249458E+03  0.00000000000E+00 0. -1.
         11    1    4    4    0    0 -0.36906983790E+02 -0.45755861486E+02  0.11794171433E+03  0.13178001477E+03  0.00000000000E+00 0.  1.
</event>
<event>
 8    1  0.3719512E-009  0.9953113E+02  0.7561462E-02  0.1281285E+00
         -2   -1    0    0    0  501 -0.00000000000E+00  0.00000000000E+00  0.41358908578E+02  0.41358908578E+02  0.00000000000E+00 0.  1.
          2   -1    0    0  501    0  0.00000000000E+00 -0.00000000000E+00 -0.43298011598E+03  0.43298011598E+03  0.00000000000E+00 0. -1.
         25    2    1    2    0    0  0.16374256585E+02  0.76594192060E+02 -0.22357271679E+03  0.26789220563E+03  0.12508672034E+03 0.  0.
         23    2    1    2    0    0 -0.16374256585E+02 -0.76594192060E+02 -0.16804849061E+03  0.20644681893E+03  0.90803123926E+02 0.  0.
          5    1    3    3  502    0  0.28317615600E+02  0.87803687227E+02 -0.76697324436E+02  0.12004718580E+03  0.41800000000E+01 0. -1.
         -5    1    3    3    0  502 -0.11943359015E+02 -0.11209495166E+02 -0.14687539236E+03  0.14784501982E+03  0.41800000000E+01 0. -1.
        -11    1    4    4    0    0  0.12416944820E+02 -0.64705662386E+01  0.70262126401E+01  0.15665771931E+02  0.00000000000E+00 0.  1.
         11    1    4    4    0    0 -0.28791201405E+02 -0.70123625822E+02 -0.17507470325E+03  0.19078104700E+03  0.00000000000E+00 0. -1.
</event>
<event>
 8    1  0.3719512E-009  0.8359280E+02  0.7561462E-02  0.1319154E+00
          1   -1    0    0  501    0  0.00000000000E+00  0.00000000000E+00  0.99483524268E+03  0.99483524268E+03  0.00000000000E+00 0. -1.
         -1   -1    0    0    0  501 -0.00000000000E+00 -0.00000000000E+00 -0.21991486266E+02  0.21991486266E+02  0.00000000000E+00 0.  1.
         25    2    1    2    0    0  0.44932494487E+02 -0.64247598000E+02  0.74248731380E+03  0.75702198405E+03  0.12509272665E+03 0.  0.
         23    2    1    2    0    0 -0.44932494487E+02  0.64247598000E+02  0.23035644261E+03  0.25980474490E+03  0.91036981002E+02 0.  0.
          5    1    3    3  502    0 -0.60902114313E+01 -0.23054994504E+01  0.52670897078E+03  0.52676580973E+03  0.41800000000E+01 0. -1.
         -5    1    3    3    0  502  0.51022705918E+02 -0.61942098549E+02  0.21577834302E+03  0.23025617432E+03  0.41800000000E+01 0. -1.
        -11    1    4    4    0    0 -0.22036177156E+02  0.22620565969E+02  0.82024905577E+01  0.32627656363E+02  0.00000000000E+00 0.  1.
         11    1    4    4    0    0 -0.22896317332E+02  0.41627032031E+02  0.22215395205E+03  0.22717708853E+03  0.00000000000E+00 0. -1.
</event>
<event>
 8    1  0.3719512E-009  0.1242425E+03  0.7561462E-02  0.1236258E+00
         -1   -1    0    0    0  501 -0.00000000000E+00  0.00000000000E+00  0.79077534068E+03  0.79077534068E+03  0.00000000000E+00 0.  1.
          1   -1    0    0  501    0  0.00000000000E+00 -0.00000000000E+00 -0.25589109422E+02  0.25589109422E+02  0.00000000000E+00 0. -1.
         25    2    1    2    0    0 -0.83606122910E+02 -0.36946915718E+02  0.41673448234E+03  0.44459908354E+03  0.12508260447E+03 0.  0.
         23    2    1    2    0    0  0.83606122910E+02  0.36946915718E+02  0.34845174892E+03  0.37176536657E+03  0.91846655273E+02 0.  0.
          5    1    3    3  502    0  0.14390548255E+02 -0.10480250496E+01  0.48863475050E-01  0.15022017948E+02  0.41800000000E+01 0. -1.
         -5    1    3    3    0  502 -0.97996671165E+02 -0.35898890668E+02  0.41668561887E+03  0.42957706559E+03  0.41800000000E+01 0. -1.
        -11    1    4    4    0    0  0.10343801302E+03  0.27407810932E+02  0.30110551186E+03  0.31955459613E+03  0.00000000000E+00 0.  1.
         11    1    4    4    0    0 -0.19831890112E+02  0.95391047862E+01  0.47346237062E+02  0.52210770435E+02  0.00000000000E+00 0. -1.
</event>
<event>
 8    1  0.3719512E-009  0.1171609E+03  0.7561462E-02  0.1247856E+00
         -1   -1    0    0    0  501 -0.00000000000E+00  0.00000000000E+00  0.88296089939E+02  0.88296089939E+02  0.00000000000E+00 0.  1.
          1   -1    0    0  501    0  0.00000000000E+00 -0.00000000000E+00 -0.19084125496E+03  0.19084125496E+03  0.00000000000E+00 0. -1.
         25    2    1    2    0    0 -0.48402637015E+02 -0.54401358099E+02 -0.48137384060E+02  0.15254128270E+03  0.12509721081E+03 0.  0.
         23    2    1    2    0    0  0.48402637015E+02  0.54401358099E+02 -0.54407780966E+02  0.12659606220E+03  0.88113752060E+02 0.  0.
          5    1    3    3  502    0  0.20872871210E+02 -0.56683369578E+02 -0.56230986913E+02  0.82632181555E+02  0.41800000000E+01 0.  1.
         -5    1    3    3    0  502 -0.69275508225E+02  0.22820114787E+01  0.80936028534E+01  0.69909101148E+02  0.41800000000E+01 0.  1.
        -11    1    4    4    0    0 -0.20305849762E+02  0.11635240824E+02  0.76382744899E+01  0.24618074676E+02  0.00000000000E+00 0.  1.
         11    1    4    4    0    0  0.68708486777E+02  0.42766117275E+02 -0.62046055456E+02  0.10197798752E+03  0.00000000000E+00 0. -1.
</event>
<event>
 8    1  0.3719512E-009  0.1805983E+03  0.7561462E-02  0.1167225E+00
         -1   -1    0    0    0  501 -0.00000000000E+00  0.00000000000E+00  0.18031262029E+03  0.18031262029E+03  0.00000000000E+00 0.  1.
          1   -1    0    0  501    0  0.00000000000E+00 -0.00000000000E+00 -0.22058727503E+03  0.22058727503E+03  0.00000000000E+00 0. -1.
         25    2    1    2    0    0 -0.80248179906E+02 -0.13374277235E+03  0.38350516028E+02  0.20358148023E+03  0.12509099679E+03 0.  0.
         23    2    1    2    0    0  0.80248179906E+02  0.13374277235E+03 -0.78625170764E+02  0.19731841508E+03  0.91791829262E+02 0.  0.
          5    1    3    3  502    0  0.24974928302E+02 -0.61970023399E+02 -0.91733938977E+01  0.67569626307E+02  0.41800000000E+01 0.  1.
         -5    1    3    3    0  502 -0.10522310821E+03 -0.71772748953E+02  0.47523909926E+02  0.13601185392E+03  0.41800000000E+01 0.  1.
        -11    1    4    4    0    0  0.10726926568E+02  0.75099202610E+02 -0.74418942471E+02  0.10626916855E+03  0.00000000000E+00 0. -1.
         11    1    4    4    0    0  0.69521253337E+02  0.58643569742E+02 -0.42062282930E+01  0.91049246533E+02  0.00000000000E+00 0.  1.
</event>
<event>
 8    1  0.3719512E-009  0.1202177E+03  0.7561462E-02  0.1242738E+00
         -2   -1    0    0    0  501 -0.00000000000E+00  0.00000000000E+00  0.24486760669E+02  0.24486760669E+02  0.00000000000E+00 0.  1.
          2   -1    0    0  501    0  0.00000000000E+00 -0.00000000000E+00 -0.10631862960E+04  0.10631862960E+04  0.00000000000E+00 0. -1.
         25    2    1    2    0    0  0.34772161681E+02 -0.10259596167E+03 -0.71549125437E+03  0.73437836394E+03  0.12509521080E+03 0.  0.
         23    2    1    2    0    0 -0.34772161681E+02  0.10259596167E+03 -0.32320828096E+03  0.35329469272E+03  0.92835943742E+02 0.  0.
          5    1    3    3  502    0  0.31901029001E+02 -0.90160715236E+02 -0.23569032913E+03  0.25438953176E+03  0.41800000000E+01 0. -1.
         -5    1    3    3    0  502  0.28711326798E+01 -0.12435246430E+02 -0.47980092524E+03  0.47998883218E+03  0.41800000000E+01 0. -1.
        -11    1    4    4    0    0 -0.58311330876E+02  0.70999550985E+02 -0.28061287127E+03  0.29527060651E+03  0.00000000000E+00 0. -1.
         11    1    4    4    0    0  0.23539169195E+02  0.31596410681E+02 -0.42595409690E+02  0.58024086214E+02  0.00000000000E+00 0.  1.
</event>
<event>
 8    1  0.3719512E-009  0.8573579E+02  0.7561462E-02  0.1313520E+00
          2   -1    0    0  501    0  0.00000000000E+00  0.00000000000E+00  0.49779045454E+03  0.49779045454E+03  0.00000000000E+00 0. -1.
         -2   -1    0    0    0  501 -0.00000000000E+00 -0.00000000000E+00 -0.33082539356E+02  0.33082539356E+02  0.00000000000E+00 0.  1.
         25    2    1    2    0    0  0.24733211141E+02 -0.38851001258E+02  0.15699536207E+03  0.20594902336E+03  0.12508526883E+03 0.  0.
         23    2    1    2    0    0 -0.24733211141E+02  0.38851001258E+02  0.30771255312E+03  0.32492397054E+03  0.93634605003E+02 0.  0.
          5    1    3    3  502    0 -0.22785503093E+01 -0.47926502852E+02  0.16826499362E+03  0.17502206131E+03  0.41800000000E+01 0. -1.
         -5    1    3    3    0  502  0.27011761450E+02  0.90755015942E+01 -0.11269631555E+02  0.30926962043E+02  0.41800000000E+01 0. -1.
        -11    1    4    4    0    0  0.30694149369E+02  0.15090909870E+02  0.18567931275E+03  0.18880326679E+03  0.00000000000E+00 0. -1.
         11    1    4    4    0    0 -0.55427360510E+02  0.23760091388E+02  0.12203324036E+03  0.13612070375E+03  0.00000000000E+00 0.  1.
</event>
<event>
 8    1  0.3719512E-009  0.2848372E+03  0.7561462E-02  0.1093076E+00
          2   -1    0    0  501    0  0.00000000000E+00  0.00000000000E+00  0.22451051551E+04  0.22451051551E+04  0.00000000000E+00 0. -1.
         -2   -1    0    0    0  501 -0.00000000000E+00 -0.00000000000E+00 -0.74692248278E+02  0.74692248278E+02  0.00000000000E+00 0.  1.
         25    2    1    2    0    0  0.21909594817E+03  0.15583489798E+03  0.19161250242E+04  0.19389352489E+04  0.12508893235E+03 0.  0.
         23    2    1    2    0    0 -0.21909594817E+03 -0.15583489798E+03  0.25428788264E+03  0.38086215454E+03  0.90033902315E+02 0.  0.
          5    1    3    3  502    0  0.91774367950E+01  0.54628656568E+02  0.57792343444E+03  0.58058718892E+03  0.41800000000E+01 0. -1.
         -5    1    3    3    0  502  0.20991851137E+03  0.10120624141E+03  0.13382015898E+04  0.13583480599E+04  0.41800000000E+01 0. -1.
        -11    1    4    4    0    0 -0.78844447314E+02 -0.11306749068E+02  0.50270422888E+02  0.94188135474E+02  0.00000000000E+00 0.  1.
         11    1    4    4    0    0 -0.14025150085E+03 -0.14452814891E+03  0.20401745976E+03  0.28667401906E+03  0.00000000000E+00 0. -1.
</event>
<event>
 8    1  0.3719512E-009  0.9330174E+02  0.7561462E-02  0.1295047E+00
          2   -1    0    0  501    0  0.00000000000E+00  0.00000000000E+00  0.23534517710E+03  0.23534517710E+03  0.00000000000E+00 0. -1.
         -2   -1    0    0    0  501 -0.00000000000E+00 -0.00000000000E+00 -0.65782648428E+02  0.65782648428E+02  0.00000000000E+00 0.  1.
         25    2    1    2    0    0  0.51456909568E+02 -0.18268051629E+02  0.56959275215E+02  0.14789699375E+03  0.12509047316E+03 0.  0.
         23    2    1    2    0    0 -0.51456909568E+02  0.18268051629E+02  0.11260325346E+03  0.15323083178E+03  0.88423186245E+02 0.  0.
          5    1    3    3  502    0  0.66186945971E+02 -0.73672581393E+01  0.88707538629E+02  0.11100219871E+03  0.41800000000E+01 0. -1.
         -5    1    3    3    0  502 -0.14730036403E+02 -0.10900793490E+02 -0.31748263414E+02  0.36894795038E+02  0.41800000000E+01 0. -1.
        -11    1    4    4    0    0 -0.42299536147E+02 -0.30060273706E+02  0.75518304462E+02  0.91629062651E+02  0.00000000000E+00 0.  1.
         11    1    4    4    0    0 -0.91573734213E+01  0.48328325335E+02  0.37084948997E+02  0.61601769129E+02  0.00000000000E+00 0. -1.
</event>
<event>
 8    1  0.3719512E-009  0.9493868E+02  0.7561462E-02  0.1291314E+00
          1   -1    0    0  501    0  0.00000000000E+00  0.00000000000E+00  0.10265119185E+04  0.10265119185E+04  0.00000000000E+00 0. -1.
         -1   -1    0    0    0  501 -0.00000000000E+00 -0.00000000000E+00 -0.13320930001E+02  0.13320930001E+02  0.00000000000E+00 0.  1.
         25    2    1    2    0    0  0.50699404856E+01  0.39535929603E+02  0.67864513573E+03  0.69122699777E+03  0.12508696246E+03 0.  0.
         23    2    1    2    0    0 -0.50699404856E+01 -0.39535929603E+02  0.33454585280E+03  0.34860585076E+03  0.89533890400E+02 0.  0.
          5    1    3    3  502    0  0.22466878435E-01  0.67671926795E+02  0.63667699102E+03  0.64027693499E+03  0.41800000000E+01 0.  1.
         -5    1    3    3    0  502  0.50474736071E+01 -0.28135997191E+02  0.41968144703E+02  0.50950062783E+02  0.41800000000E+01 0.  1.
        -11    1    4    4    0    0 -0.26569907506E+02  0.17780973026E+02  0.17133231273E+03  0.17428965652E+03  0.00000000000E+00 0. -1.
         11    1    4    4    0    0  0.21499967021E+02 -0.57316902630E+02  0.16321354008E+03  0.17431619424E+03  0.00000000000E+00 0.  1.
</event>
<event>
 8    1  0.3719512E-009  0.1711787E+03  0.7561462E-02  0.1176624E+00
         -1   -1    0    0    0  501 -0.00000000000E+00  0.00000000000E+00  0.10538034975E+04  0.10538034975E+04  0.00000000000E+00 0.  1.
          1   -1    0    0  501    0  0.00000000000E+00 -0.00000000000E+00 -0.32709390440E+02  0.32709390440E+02  0.00000000000E+00 0. -1.
         25    2    1    2    0    0  0.24524218699E+02 -0.14580959134E+03  0.61566470418E+03  0.64540867144E+03  0.12508977161E+03 0.  0.
         23    2    1    2    0    0 -0.24524218699E+02  0.14580959134E+03  0.40542940286E+03  0.44110421648E+03  0.91312950160E+02 0.  0.
          5    1    3    3  502    0  0.58752729864E+02 -0.11918925261E+03  0.31950048207E+03  0.34605778657E+03  0.41800000000E+01 0.  1.
         -5    1    3    3    0  502 -0.34228511165E+02 -0.26620338729E+02  0.29616422211E+03  0.29935088487E+03  0.41800000000E+01 0.  1.
        -11    1    4    4    0    0 -0.51710730316E+02  0.91080962699E+02  0.18750506811E+03  0.21477404863E+03  0.00000000000E+00 0.  1.
         11    1    4    4    0    0  0.27186511617E+02  0.54728628640E+02  0.21792433474E+03  0.22633016785E+03  0.00000000000E+00 0. -1.
</event>
<event>
 8    1  0.3719512E-009  0.8633430E+02  0.7561462E-02  0.1311980E+00
         -1   -1    0    0    0  501 -0.00000000000E+00  0.00000000000E+00  0.61563399956E+02  0.61563399956E+02  0.00000000000E+00 0.  1.
          1   -1    0    0  501    0  0.00000000000E+00 -0.00000000000E+00 -0.26666507749E+03  0.26666507749E+03  0.00000000000E+00 0. -1.
         25    2    1    2    0    0  0.26272447378E+02  0.11980608061E+02 -0.32044850729E+02  0.13231817370E+03  0.12508976846E+03 0.  0.
         23    2    1    2    0    0 -0.26272447378E+02 -0.11980608061E+02 -0.17305682681E+03  0.19591030374E+03  0.87168832438E+02 0.  0.
          5    1    3    3  502    0 -0.17978299809E+02  0.35452240290E+02  0.31789299000E+02  0.51069683145E+02  0.41800000000E+01 0. -1.
         -5    1    3    3    0  502  0.44250747187E+02 -0.23471632230E+02 -0.63834149729E+02  0.81248490557E+02  0.41800000000E+01 0. -1.
        -11    1    4    4    0    0 -0.16999572677E+01  0.32005358538E+02 -0.28732373095E+02  0.43043955366E+02  0.00000000000E+00 0.  1.
         11    1    4    4    0    0 -0.24572490110E+02 -0.43985966599E+02 -0.14432445371E+03  0.15286634838E+03  0.00000000000E+00 0. -1.
</event>
<event>
 8    1  0.3719512E-009  0.2130929E+03  0.7561462E-02  0.1139140E+00
         -2   -1    0    0    0  501 -0.00000000000E+00  0.00000000000E+00  0.10934140478E+03  0.10934140478E+03  0.00000000000E+00 0. -1.
          2   -1    0    0  501    0  0.00000000000E+00 -0.00000000000E+00 -0.45034702871E+03  0.45034702871E+03  0.00000000000E+00 0.  1.
         25    2    1    2    0    0  0.10648768018E+02 -0.18364401176E+03 -0.24840803203E+03  0.33345667361E+03  0.12509309926E+03 0.  0.
         23    2    1    2    0    0 -0.10648768018E+02  0.18364401176E+03 -0.92597591907E+02  0.22623175988E+03  0.93637470261E+02 0.  0.
          5    1    3    3  502    0  0.64752034356E+02 -0.12050619194E+03 -0.17722362934E+03  0.22392019884E+03  0.41800000000E+01 0.  1.
         -5    1    3    3    0  502 -0.54103266338E+02 -0.63137819819E+02 -0.71184402682E+02  0.10953647477E+03  0.41800000000E+01 0.  1.
        -11    1    4    4    0    0  0.40941630891E+02  0.96026539397E+02 -0.53446032538E+02  0.11727656118E+03  0.00000000000E+00 0.  1.
         11    1    4    4    0    0 -0.51590398909E+02  0.87617472361E+02 -0.39151559369E+02  0.10895519870E+03  0.00000000000E+00 0. -1.
</event>
<event>
 8    1  0.3719512E-009  0.1160364E+03  0.7561462E-02  0.1249783E+00
         -3   -1    0    0    0  501 -0.00000000000E+00  0.00000000000E+00  0.67859996740E+02  0.67859996740E+02  0.00000000000E+00 0.  1.
          3   -1    0    0  501    0  0.00000000000E+00 -0.00000000000E+00 -0.35906403168E+03  0.35906403168E+03  0.00000000000E+00 0. -1.
         25    2    1    2    0    0  0.12110986515E+02  0.55708234926E+02 -0.25293366349E+02  0.13977580943E+03  0.12508972415E+03 0.  0.
         23    2    1    2    0    0 -0.12110986515E+02 -0.55708234926E+02 -0.26591066859E+03  0.28714821899E+03  0.92171213323E+02 0.  0.
          5    1    3    3  502    0  0.61114609814E+02  0.22105071783E+02  0.16291734910E+02  0.67130639485E+02  0.41800000000E+01 0.  1.
         -5    1    3    3    0  502 -0.49003623299E+02  0.33603163144E+02 -0.41585101259E+02  0.72645169946E+02  0.41800000000E+01 0.  1.
        -11    1    4    4    0    0  0.38389035826E+02 -0.37600802212E+02 -0.11366934958E+03  0.12573090086E+03  0.00000000000E+00 0.  1.
         11    1    4    4    0    0 -0.50500022341E+02 -0.18107432714E+02 -0.15224131901E+03  0.16141731813E+03  0.00000000000E+00 0. -1.
</event>
<event>
 8    1  0.3719512E-009  0.1579819E+03  0.7561462E-02  0.1190994E+00
         -2   -1    0    0    0  501 -0.00000000000E+00  0.00000000000E+00  0.48640710839E+02  0.48640710839E+02  0.00000000000E+00 0.  1.
          2   -1    0    0  501    0  0.00000000000E+00 -0.00000000000E+00 -0.61556928251E+03  0.61556928251E+03  0.00000000000E+00 0. -1.
         25    2    1    2    0    0 -0.10577609727E+03 -0.34003023217E+02 -0.42891650325E+03  0.46039355273E+03  0.12509223915E+03 0.  0.
         23    2    1    2    0    0  0.10577609727E+03  0.34003023217E+02 -0.13801206842E+03  0.20381644061E+03  0.10074235501E+03 0.  0.
          5    1    3    3  502    0  0.40905879158E+01  0.36285511976E+02 -0.99580175666E+02  0.10614638512E+03  0.41800000000E+01 0.  1.
         -5    1    3    3    0  502 -0.10986668519E+03 -0.70288535193E+02 -0.32933632758E+03  0.35424716761E+03  0.41800000000E+01 0.  1.
        -11    1    4    4    0    0  0.12347368212E+03  0.17853727048E+02 -0.10522042256E+03  0.16320491128E+03  0.00000000000E+00 0.  1.
         11    1    4    4    0    0 -0.17697584842E+02  0.16149296169E+02 -0.32791645860E+02  0.40611529326E+02  0.00000000000E+00 0. -1.
</event>
<event>
 8    1  0.3719512E-009  0.8796444E+02  0.7561462E-02  0.1307857E+00
         -2   -1    0    0    0  501 -0.00000000000E+00  0.00000000000E+00  0.20745143417E+02  0.20745143417E+02  0.00000000000E+00 0.  1.
          2   -1    0    0  501    0  0.00000000000E+00 -0.00000000000E+00 -0.87247293165E+03  0.87247293165E+03  0.00000000000E+00 0. -1.
         25    2    1    2    0    0  0.47525140272E+02  0.95576796617E+01 -0.67962583949E+03  0.69274035954E+03  0.12509170970E+03 0.  0.
         23    2    1    2    0    0 -0.47525140272E+02 -0.95576796617E+01 -0.17210194874E+03  0.20047771552E+03  0.90676598208E+02 0.  0.
          5    1    3    3  502    0 -0.21913678149E+02  0.80095329111E+01 -0.49292754968E+03  0.49349711604E+03  0.41800000000E+01 0. -1.
         -5    1    3    3    0  502  0.69438818421E+02  0.15481467506E+01 -0.18669828982E+03  0.19924324350E+03  0.41800000000E+01 0. -1.
        -11    1    4    4    0    0 -0.64692356395E+02 -0.50174109280E+01 -0.64749922070E+02  0.91666939495E+02  0.00000000000E+00 0.  1.
         11    1    4    4    0    0  0.17167216123E+02 -0.45402687338E+01 -0.10735202667E+03  0.10881077602E+03  0.00000000000E+00 0. -1.
</event>
<event>
 8    1  0.3719512E-009  0.1450308E+03  0.7561462E-02  0.1206716E+00
          1   -1    0    0  501    0  0.00000000000E+00  0.00000000000E+00  0.15916548135E+04  0.15916548135E+04  0.00000000000E+00 0. -1.
         -1   -1    0    0    0  501 -0.00000000000E+00 -0.00000000000E+00 -0.20389767661E+02  0.20389767661E+02  0.00000000000E+00 0.  1.
         25    2    1    2    0    0 -0.69679461786E+01  0.12508694360E+03  0.11506136965E+04  0.11641541698E+04  0.12509099332E+03 0.  0.
         23    2    1    2    0    0  0.69679461786E+01 -0.12508694360E+03  0.42065134935E+03  0.44789041144E+03  0.89235459397E+02 0.  0.
          5    1    3    3  502    0  0.28627756135E+02  0.74339303221E+02  0.96760100218E+03  0.97088364506E+03  0.41800000000E+01 0.  1.
         -5    1    3    3    0  502 -0.35595702313E+02  0.50747640377E+02  0.18301269434E+03  0.19327052470E+03  0.41800000000E+01 0.  1.
        -11    1    4    4    0    0  0.20357713204E+02 -0.13167576740E+03  0.40459702694E+03  0.42597147606E+03  0.00000000000E+00 0. -1.
         11    1    4    4    0    0 -0.13389767025E+02  0.65888238003E+01  0.16054322411E+02  0.21918935379E+02  0.00000000000E+00 0.  1.
</event>
<event>
 8    1  0.3719512E-009  0.8417876E+02  0.7561462E-02  0.1317594E+00
          4   -1    0    0  501    0  0.00000000000E+00  0.00000000000E+00  0.63439407962E+02  0.63439407962E+02  0.00000000000E+00 0. -1.
         -4   -1    0    0    0  501 -0.00000000000E+00 -0.00000000000E+00 -0.26044561582E+03  0.26044561582E+03  0.00000000000E+00 0.  1.
         25    2    1    2    0    0  0.72000482399E+00  0.25102519770E+02 -0.18747249812E+03  0.22676845273E+03  0.12508932288E+03 0.  0.
         23    2    1    2    0    0 -0.72000482399E+00 -0.25102519770E+02 -0.95337097430E+01  0.97116571050E+02  0.93327819246E+02 0.  0.
          5    1    3    3  502    0 -0.60327615075E+02  0.14170626785E+02 -0.11938142299E+03  0.13457200437E+03  0.41800000000E+01 0.  1.
         -5    1    3    3    0  502  0.61047619899E+02  0.10931892986E+02 -0.68091075122E+02  0.92196448364E+02  0.41800000000E+01 0.  1.
        -11    1    4    4    0    0  0.17115899415E+02 -0.18142285804E+02  0.38236613898E+02  0.45652329506E+02  0.00000000000E+00 0. -1.
         11    1    4    4    0    0 -0.17835904239E+02 -0.69602339665E+01 -0.47770323641E+02  0.51464241543E+02  0.00000000000E+00 0.  1.
</event>
<event>
 8    1  0.3719512E-009  0.1096332E+03  0.7561462E-02  0.1261251E+00
          1   -1    0    0  501    0  0.00000000000E+00  0.00000000000E+00  0.16291441041E+02  0.16291441041E+02  0.00000000000E+00 0. -1.
         -1   -1    0    0    0  501 -0.00000000000E+00 -0.00000000000E+00 -0.79352986471E+03  0.79352986471E+03  0.00000000000E+00 0.  1.
         25    2    1    2    0    0 -0.49502107214E+01 -0.32732888554E+02 -0.43894525157E+03  0.45762006499E+03  0.12508894204E+03 0.  0.
         23    2    1    2    0    0  0.49502107214E+01  0.32732888554E+02 -0.33829317210E+03  0.35220124077E+03  0.92236094507E+02 0.  0.
          5    1    3    3  502    0 -0.60537964808E+02 -0.25017581829E+02 -0.15795222477E+03  0.17104707625E+03  0.41800000000E+01 0.  1.
         -5    1    3    3    0  502  0.55587754087E+02 -0.77153067253E+01 -0.28099302681E+03  0.28657298874E+03  0.41800000000E+01 0.  1.
        -11    1    4    4    0    0  0.20522032876E+02 -0.27966565860E+02 -0.14048854960E+03  0.14470768884E+03  0.00000000000E+00 0. -1.
         11    1    4    4    0    0 -0.15571822154E+02  0.60699454414E+02 -0.19780462250E+03  0.20749355193E+03  0.00000000000E+00 0.  1.
</event>
<event>
 8    1  0.3719512E-009  0.1219646E+03  0.7561462E-02  0.1239891E+00
         -2   -1    0    0    0  501 -0.00000000000E+00  0.00000000000E+00  0.13603056150E+03  0.13603056150E+03  0.00000000000E+00 0.  1.
          2   -1    0    0  501    0  0.00000000000E+00 -0.00000000000E+00 -0.14768114906E+03  0.14768114906E+03  0.00000000000E+00 0. -1.
         25    2    1    2    0    0  0.45069169920E+02  0.57335866791E+02  0.49207565033E+02  0.15292976917E+03  0.12508996021E+03 0.  0.
         23    2    1    2    0    0 -0.45069169920E+02 -0.57335866791E+02 -0.60858152598E+02  0.13078194139E+03  0.89897551451E+02 0.  0.
          5    1    3    3  502    0 -0.38957896851E+02  0.18597085836E+02 -0.79474879507E+01  0.44093132043E+02  0.41800000000E+01 0. -1.
         -5    1    3    3    0  502  0.84027066771E+02  0.38738780956E+02  0.57155052983E+02  0.10883663713E+03  0.41800000000E+01 0. -1.
        -11    1    4    4    0    0  0.77568360404E+01  0.15868282831E+02  0.57712034766E+01  0.18581649413E+02  0.00000000000E+00 0.  1.
         11    1    4    4    0    0 -0.52826005961E+02 -0.73204149622E+02 -0.66629356075E+02  0.11220029197E+03  0.00000000000E+00 0. -1.
</event>
<event>
 8    1  0.3719512E-009  0.1207356E+03  0.7561462E-02  0.1241889E+00
         -1   -1    0    0    0  501 -0.00000000000E+00  0.00000000000E+00  0.17664859775E+02  0.17664859775E+02  0.00000000000E+00 0.  1.
          1   -1    0    0  501    0  0.00000000000E+00 -0.00000000000E+00 -0.12922040345E+04  0.12922040345E+04  0.00000000000E+00 0. -1.
         25    2    1    2    0    0 -0.25127678709E+02  0.95647457940E+02 -0.84238340025E+03  0.85734310354E+03  0.12509023830E+03 0.  0.
         23    2    1    2    0    0  0.25127678709E+02 -0.95647457940E+02 -0.43215577453E+03  0.45252579079E+03  0.90780732674E+02 0.  0.
          5    1    3    3  502    0 -0.29812879859E+02  0.16357952865E+02 -0.47920783621E+02  0.58908949492E+02  0.41800000000E+01 0. -1.
         -5    1    3    3    0  502  0.46852011500E+01  0.79289505075E+02 -0.79446261663E+03  0.79843415404E+03  0.41800000000E+01 0. -1.
        -11    1    4    4    0    0 -0.22186809793E+02 -0.70870751350E+02 -0.31707216663E+03  0.32565269349E+03  0.00000000000E+00 0. -1.
         11    1    4    4    0    0  0.47314488503E+02 -0.24776706590E+02 -0.11508360789E+03  0.12687309730E+03  0.00000000000E+00 0.  1.
</event>
<event>
 8    1  0.3719512E-009  0.1677465E+03  0.7561462E-02  0.1180218E+00
          1   -1    0    0  501    0  0.00000000000E+00  0.00000000000E+00  0.48162439985E+03  0.48162439985E+03  0.00000000000E+00 0. -1.
         -1   -1    0    0    0  501 -0.00000000000E+00 -0.00000000000E+00 -0.71447117090E+02  0.71447117090E+02  0.00000000000E+00 0.  1.
         25    2    1    2    0    0  0.31901227402E+02 -0.13832502632E+03  0.29242761115E+03  0.34829513397E+03  0.12507634216E+03 0.  0.
         23    2    1    2    0    0 -0.31901227402E+02  0.13832502632E+03  0.11774967161E+03  0.20477638297E+03  0.88976854522E+02 0.  0.
          5    1    3    3  502    0  0.74474323304E+02 -0.12225005558E+03  0.21320701629E+03  0.25683886995E+03  0.41800000000E+01 0. -1.
         -5    1    3    3    0  502 -0.42573095902E+02 -0.16074970736E+02  0.79220594856E+02  0.91456264018E+02  0.41800000000E+01 0. -1.
        -11    1    4    4    0    0 -0.43776023332E+01  0.95987667613E+02  0.12060003656E+03  0.15419845834E+03  0.00000000000E+00 0.  1.
         11    1    4    4    0    0 -0.27523625069E+02  0.42337358707E+02 -0.28503649513E+01  0.50577924627E+02  0.00000000000E+00 0. -1.
</event>
<event>
 8    1  0.3719512E-009  0.1232834E+03  0.7561462E-02  0.1237777E+00
          1   -1    0    0  501    0  0.00000000000E+00  0.00000000000E+00  0.29211451876E+03  0.29211451876E+03  0.00000000000E+00 0. -1.
         -1   -1    0    0    0  501 -0.00000000000E+00 -0.00000000000E+00 -0.74429256526E+02  0.74429256526E+02  0.00000000000E+00 0.  1.
         25    2    1    2    0    0  0.66954742152E+01 -0.70117806335E+02  0.30176277781E+02  0.14669347889E+03  0.12508810042E+03 0.  0.
         23    2    1    2    0    0 -0.66954742152E+01  0.70117806335E+02  0.18750898445E+03  0.21985029640E+03  0.90626692731E+02 0.  0.
          5    1    3    3  502    0 -0.54366191670E+02 -0.15507098116E+02  0.31105093386E+02  0.64661828951E+02  0.41800000000E+01 0.  1.
         -5    1    3    3    0  502  0.61061665885E+02 -0.54610708219E+02 -0.92881560540E+00  0.82031649937E+02  0.41800000000E+01 0.  1.
        -11    1    4    4    0    0 -0.41446453203E+02  0.57500223960E+02  0.15571618323E+03  0.17108949108E+03  0.00000000000E+00 0. -1.
         11    1    4    4    0    0  0.34750978988E+02  0.12617582375E+02  0.31792801225E+02  0.48760805319E+02  0.00000000000E+00 0.  1.
</event>
<event>
 8    1  0.3719512E-009  0.1122329E+03  0.7561462E-02  0.1256490E+00
         -1   -1    0    0    0  501 -0.00000000000E+00  0.00000000000E+00  0.92925249391E+01  0.92925249391E+01  0.00000000000E+00 0.  1.
          1   -1    0    0  501    0  0.00000000000E+00 -0.00000000000E+00 -0.20292442076E+04  0.20292442076E+04  0.00000000000E+00 0. -1.
         25    2    1    2    0    0  0.43256015012E+02  0.57095771632E+02 -0.14241535342E+04  0.14314284645E+04  0.12507257990E+03 0.  0.
         23    2    1    2    0    0 -0.43256015012E+02 -0.57095771632E+02 -0.59579814848E+03  0.60710826798E+03  0.92054360843E+02 0.  0.
          5    1    3    3  502    0 -0.23647805259E+02  0.20295308348E+02 -0.99621301601E+03  0.99670906683E+03  0.41800000000E+01 0.  1.
         -5    1    3    3    0  502  0.66903820271E+02  0.36800463284E+02 -0.42794051816E+03  0.43471939771E+03  0.41800000000E+01 0.  1.
        -11    1    4    4    0    0  0.12887396604E+02  0.18402993421E+02 -0.10582048777E+03  0.10817916061E+03  0.00000000000E+00 0.  1.
         11    1    4    4    0    0 -0.56143411616E+02 -0.75498765053E+02 -0.48997766070E+03  0.49892910737E+03  0.00000000000E+00 0. -1.
</event>
<event>
 8    1  0.3719512E-009  0.1288751E+03  0.7561462E-02  0.1229134E+00
         -1   -1    0    0    0  501 -0.00000000000E+00  0.00000000000E+00  0.14954385970E+02  0.14954385970E+02  0.00000000000E+00 0.  1.
          1   -1    0    0  501    0  0.00000000000E+00 -0.00000000000E+00 -0.16079375765E+04  0.16079375765E+04  0.00000000000E+00 0. -1.
         25    2    1    2    0    0 -0.65314393001E+02 -0.63546757803E+02 -0.12083733282E+04  0.12182434667E+04  0.12508750335E+03 0.  0.
         23    2    1    2    0    0  0.65314393001E+02  0.63546757803E+02 -0.38460986237E+03  0.40464849581E+03  0.86668901966E+02 0.  0.
          5    1    3    3  502    0 -0.98151240583E+02 -0.41129580620E+02 -0.67251353763E+03  0.68089444052E+03  0.41800000000E+01 0. -1.
         -5    1    3    3    0  502  0.32836847582E+02 -0.22417177183E+02 -0.53585979056E+03  0.53734902618E+03  0.41800000000E+01 0. -1.
        -11    1    4    4    0    0  0.67218941883E+01  0.50881728444E+02 -0.86574764694E+02  0.10064454299E+03  0.00000000000E+00 0. -1.
         11    1    4    4    0    0  0.58592498812E+02  0.12665029359E+02 -0.29803509768E+03  0.30400395282E+03  0.00000000000E+00 0.  1.
</event>
<event>
 8    1  0.3719512E-009  0.1136010E+03  0.7561462E-02  0.1254043E+00
         -2   -1    0    0    0  501 -0.00000000000E+00  0.00000000000E+00  0.62465950186E+02  0.62465950186E+02  0.00000000000E+00 0.  1.
          2   -1    0    0  501    0  0.00000000000E+00 -0.00000000000E+00 -0.22148005571E+03  0.22148005571E+03  0.00000000000E+00 0. -1.
         25    2    1    2    0    0 -0.35729361102E+02  0.11278753780E+02 -0.10802469903E+03  0.16947255839E+03  0.12509122637E+03 0.  0.
         23    2    1    2    0    0  0.35729361102E+02 -0.11278753780E+02 -0.50989406497E+02  0.11447344751E+03  0.95396294886E+02 0.  0.
          5    1    3    3  502    0 -0.51438556491E+02 -0.47166249642E+02 -0.58469475298E+02  0.91141275726E+02  0.41800000000E+01 0.  1.
         -5    1    3    3    0  502  0.15709195390E+02  0.58445003422E+02 -0.49555223729E+02  0.78331282663E+02  0.41800000000E+01 0.  1.
        -11    1    4    4    0    0  0.54426302399E+02  0.21797530588E+02 -0.49029387470E+02  0.76427976345E+02  0.00000000000E+00 0.  1.
         11    1    4    4    0    0 -0.18696941297E+02 -0.33076284368E+02 -0.19600190271E+01  0.38045471163E+02  0.00000000000E+00 0. -1.
</event>
<event>
 8    1  0.3719512E-009  0.1179508E+03  0.7561462E-02  0.1246516E+00
          4   -1    0    0  501    0  0.00000000000E+00  0.00000000000E+00  0.19831942458E+03  0.19831942458E+03  0.00000000000E+00 0. -1.
         -4   -1    0    0    0  501 -0.00000000000E+00 -0.00000000000E+00 -0.11198582084E+03  0.11198582084E+03  0.00000000000E+00 0.  1.
         25    2    1    2    0    0  0.80255278097E+02 -0.57717888776E+02  0.66970576323E+02  0.17292459420E+03  0.12508234423E+03 0.  0.
         23    2    1    2    0    0 -0.80255278097E+02  0.57717888776E+02  0.19363027422E+02  0.13738065122E+03  0.93414410837E+02 0.  0.
          5    1    3    3  502    0  0.40655574142E+02 -0.18582672797E+02 -0.34827608053E+02  0.56821000693E+02  0.41800000000E+01 0.  1.
         -5    1    3    3    0  502  0.39599703955E+02 -0.39135215979E+02  0.10179818438E+03  0.11610359351E+03  0.41800000000E+01 0.  1.
        -11    1    4    4    0    0 -0.96174840612E+02  0.25909047678E+02  0.20918443922E+02  0.10177651996E+03  0.00000000000E+00 0.  1.
         11    1    4    4    0    0  0.15919562515E+02  0.31808841097E+02 -0.15554164995E+01  0.35604131265E+02  0.00000000000E+00 0. -1.
</event>
<event>
 8    1  0.3719512E-009  0.1782292E+03  0.7561462E-02  0.1169528E+00
          3   -1    0    0  501    0  0.00000000000E+00  0.00000000000E+00  0.31053437716E+03  0.31053437716E+03  0.00000000000E+00 0. -1.
         -3   -1    0    0    0  501 -0.00000000000E+00 -0.00000000000E+00 -0.15862425646E+03  0.15862425646E+03  0.00000000000E+00 0.  1.
         25    2    1    2    0    0  0.16993186761E+03 -0.78712840620E+01  0.17645981456E+03  0.27517990779E+03  0.12508844373E+03 0.  0.
         23    2    1    2    0    0 -0.16993186761E+03  0.78712840620E+01 -0.24549693865E+02  0.19397872582E+03  0.89923644609E+02 0.  0.
          5    1    3    3  502    0  0.81662301143E+02 -0.14136398649E+02  0.16649803718E+03  0.18603128226E+03  0.41800000000E+01 0. -1.
         -5    1    3    3    0  502  0.88269566470E+02  0.62651145868E+01  0.99617773837E+01  0.89148625532E+02  0.41800000000E+01 0. -1.
        -11    1    4    4    0    0 -0.56551210231E+02  0.37304601436E+02  0.16724737610E+02  0.69781011135E+02  0.00000000000E+00 0. -1.
         11    1    4    4    0    0 -0.11338065738E+03 -0.29433317374E+02 -0.41274431475E+02  0.12419771469E+03  0.00000000000E+00 0.  1.
</event>
<event>
 8    1  0.3719512E-009  0.1072255E+03  0.7561462E-02  0.1265796E+00
         -1   -1    0    0    0  501 -0.00000000000E+00  0.00000000000E+00  0.64591498271E+02  0.64591498271E+02  0.00000000000E+00 0.  1.
          1   -1    0    0  501    0  0.00000000000E+00 -0.00000000000E+00 -0.22982778432E+03  0.22982778432E+03  0.00000000000E+00 0. -1.
         25    2    1    2    0    0 -0.14842386961E+02  0.43935848219E+02 -0.53965173579E+02  0.14391004595E+03  0.12508879309E+03 0.  0.
         23    2    1    2    0    0  0.14842386961E+02 -0.43935848219E+02 -0.11127111247E+03  0.15050923664E+03  0.90117227176E+02 0.  0.
          5    1    3    3  502    0 -0.34447800831E+02 -0.27150534127E+02  0.11147222525E+02  0.45448162290E+02  0.41800000000E+01 0. -1.
         -5    1    3    3    0  502  0.19605413870E+02  0.71086382346E+02 -0.65112396104E+02  0.98461883663E+02  0.41800000000E+01 0. -1.
        -11    1    4    4    0    0 -0.25160994535E+02  0.11909737825E+02 -0.55253165759E+02  0.61869457953E+02  0.00000000000E+00 0.  1.
         11    1    4    4    0    0  0.40003381496E+02 -0.55845586044E+02 -0.56017946712E+02  0.88639778686E+02  0.00000000000E+00 0. -1.
</event>
<event>
 8    1  0.3719512E-009  0.5822643E+02  0.7561462E-02  0.1405429E+00
         -1   -1    0    0    0  501 -0.00000000000E+00  0.00000000000E+00  0.16082067399E+03  0.16082067399E+03  0.00000000000E+00 0.  1.
          1   -1    0    0  501    0  0.00000000000E+00 -0.00000000000E+00 -0.89818849724E+02  0.89818849724E+02  0.00000000000E+00 0. -1.
         25    2    1    2    0    0  0.87437685899E+01  0.79377938083E+01 -0.12256947095E+02  0.12624091860E+03  0.12508826770E+03 0.  0.
         23    2    1    2    0    0 -0.87437685899E+01 -0.79377938083E+01  0.83258771365E+02  0.12439860512E+03  0.91670758081E+02 0.  0.
          5    1    3    3  502    0  0.15047865929E+02  0.16175345068E+02  0.54289439318E+02  0.58761345105E+02  0.41800000000E+01 0. -1.
         -5    1    3    3    0  502 -0.63040973396E+01 -0.82375512592E+01 -0.66546386413E+02  0.67479573492E+02  0.41800000000E+01 0. -1.
        -11    1    4    4    0    0  0.31829653835E+02  0.16053656228E+02  0.64442843104E+02  0.73645955550E+02  0.00000000000E+00 0.  1.
         11    1    4    4    0    0 -0.40573422425E+02 -0.23991450036E+02  0.18815928261E+02  0.50752649571E+02  0.00000000000E+00 0. -1.
</event>
<event>
 8    1  0.3719512E-009  0.8251737E+02  0.7561462E-02  0.1322056E+00
         -1   -1    0    0    0  501 -0.00000000000E+00  0.00000000000E+00  0.23860308835E+03  0.23860308835E+03  0.00000000000E+00 0.  1.
          1   -1    0    0  501    0  0.00000000000E+00 -0.00000000000E+00 -0.74399217785E+02  0.74399217785E+02  0.00000000000E+00 0. -1.
         25    2    1    2    0    0  0.56608974934E+02  0.25138513773E+02  0.36817777819E+02  0.14436017062E+03  0.12509112351E+03 0.  0.
         23    2    1    2    0    0 -0.56608974934E+02 -0.25138513773E+02  0.12738609275E+03  0.16864213551E+03  0.91522851389E+02 0.  0.
          5    1    3    3  502    0  0.13004792599E+02  0.38798937687E+02 -0.38386860884E+02  0.56262826845E+02  0.41800000000E+01 0.  1.
         -5    1    3    3    0  502  0.43604182336E+02 -0.13660423914E+02  0.75204638702E+02  0.88097343780E+02  0.41800000000E+01 0.  1.
        -11    1    4    4    0    0 -0.80725555612E+01 -0.28249885429E+02  0.11466597320E+03  0.11837021412E+03  0.00000000000E+00 0.  1.
         11    1    4    4    0    0 -0.48536419373E+02  0.31113716561E+01  0.12720119543E+02  0.50271921391E+02  0.00000000000E+00 0. -1.
</event>
<event>
 8    1  0.3719512E-009  0.8538757E+02  0.7561462E-02  0.1314422E+00
          1   -1    0    0  501    0  0.00000000000E+00  0.00000000000E+00  0.17839782677E+03  0.17839782677E+03  0.00000000000E+00 0. -1.
         -1   -1    0    0    0  501 -0.00000000000E+00 -0.00000000000E+00 -0.75602847433E+02  0.75602847433E+02  0.00000000000E+00 0.  1.
         25    2    1    2    0    0  0.19497929361E+02  0.30698525678E+02  0.35656110178E+02  0.13506035410E+03  0.12508945730E+03 0.  0.
         23    2    1    2    0    0 -0.19497929361E+02 -0.30698525678E+02  0.67138869158E+02  0.11894032011E+03  0.91195412532E+02 0.  0.
          5    1    3    3  502    0 -0.26672788414E+02 -0.38408333517E+02  0.10272330438E+02  0.48058619393E+02  0.41800000000E+01 0. -1.
         -5    1    3    3    0  502  0.46170717774E+02  0.69106859195E+02  0.25383779740E+02  0.87001734704E+02  0.41800000000E+01 0. -1.
        -11    1    4    4    0    0  0.25077326461E+00 -0.15976629945E+02  0.86278880481E+02  0.87746001668E+02  0.00000000000E+00 0. -1.
         11    1    4    4    0    0 -0.19748702625E+02 -0.14721895733E+02 -0.19140011323E+02  0.31194318438E+02  0.00000000000E+00 0.  1.
</event>
<event>
 8    1  0.3719512E-009  0.2654152E+03  0.7561462E-02  0.1103933E+00
          2   -1    0    0  501    0  0.00000000000E+00  0.00000000000E+00  0.21211570256E+03  0.21211570256E+03  0.00000000000E+00 0. -1.
         -2   -1    0    0    0  501 -0.00000000000E+00 -0.00000000000E+00 -0.33504419710E+03  0.33504419710E+03  0.00000000000E+00 0.  1.
         25    2    1    2    0    0 -0.12609292593E+03 -0.20778708631E+03 -0.49453741613E+02  0.27779512669E+03  0.12509820400E+03 0.  0.
         23    2    1    2    0    0  0.12609292593E+03  0.20778708631E+03 -0.73474752923E+02  0.26936477298E+03  0.89910746838E+02 0.  0.
          5    1    3    3  502    0  0.11450350191E+02 -0.92847109603E+02 -0.24287566360E+02  0.96742206719E+02  0.41800000000E+01 0. -1.
         -5    1    3    3    0  502 -0.13754327612E+03 -0.11493997671E+03 -0.25166175253E+02  0.18105291997E+03  0.41800000000E+01 0. -1.
        -11    1    4    4    0    0  0.11072947283E+02  0.98859986400E+02 -0.41335393035E+02  0.10772428598E+03  0.00000000000E+00 0. -1.
         11    1    4    4    0    0  0.11501997865E+03  0.10892709991E+03 -0.32139359888E+02  0.16164048700E+03  0.00000000000E+00 0.  1.
</event>
<event>
 8    1  0.3719512E-009  0.1066403E+03  0.7561462E-02  0.1266921E+00
         -1   -1    0    0    0  501 -0.00000000000E+00  0.00000000000E+00  0.28068021205E+02  0.28068021205E+02  0.00000000000E+00 0.  1.
          1   -1    0    0  501    0  0.00000000000E+00 -0.00000000000E+00 -0.69591079693E+03  0.69591079693E+03  0.00000000000E+00 0. -1.
         25    2    1    2    0    0 -0.21916333999E+02  0.84560919508E+02 -0.36618436544E+03  0.39669819730E+03  0.12509034915E+03 0.  0.
         23    2    1    2    0    0  0.21916333999E+02 -0.84560919508E+02 -0.30165841028E+03  0.32728062083E+03  0.92108270367E+02 0.  0.
          5    1    3    3  502    0 -0.31483273304E+02 -0.28110327719E+01 -0.24428845132E+03  0.24636034228E+03  0.41800000000E+01 0. -1.
         -5    1    3    3    0  502  0.95669393052E+01  0.87371952280E+02 -0.12189591412E+03  0.15033785502E+03  0.41800000000E+01 0. -1.
        -11    1    4    4    0    0 -0.84013537489E+01 -0.11012397183E+02  0.14310854124E+01  0.13924928796E+02  0.00000000000E+00 0.  1.
         11    1    4    4    0    0  0.30317687748E+02 -0.73548522325E+02 -0.30308949570E+03  0.31335569203E+03  0.00000000000E+00 0. -1.
</event>
<event>
 8    1  0.3719512E-009  0.1244856E+03  0.7561462E-02  0.1235875E+00
         -2   -1    0    0    0  501 -0.00000000000E+00  0.00000000000E+00  0.30041473946E+03  0.30041473946E+03  0.00000000000E+00 0.  1.
          2   -1    0    0  501    0  0.00000000000E+00 -0.00000000000E+00 -0.55313153103E+02  0.55313153103E+02  0.00000000000E+00 0. -1.
         25    2    1    2    0    0 -0.63644287697E+02  0.24899063210E+02  0.14796376858E+03  0.20545549689E+03  0.12509246855E+03 0.  0.
         23    2    1    2    0    0  0.63644287697E+02 -0.24899063210E+02  0.97137817781E+02  0.15027239567E+03  0.92062362296E+02 0.  0.
          5    1    3    3  502    0  0.18003813994E+02  0.50789434960E+02  0.38301283441E+02  0.66243224070E+02  0.41800000000E+01 0.  1.
         -5    1    3    3    0  502 -0.81648101691E+02 -0.25890371750E+02  0.10966248513E+03  0.13921227282E+03  0.41800000000E+01 0.  1.
        -11    1    4    4    0    0  0.17083758384E+02  0.31619455179E+02  0.11808063477E+02  0.37829553387E+02  0.00000000000E+00 0. -1.
         11    1    4    4    0    0  0.46560529313E+02 -0.56518518389E+02  0.85329754305E+02  0.11244284228E+03  0.00000000000E+00 0.  1.
</event>
<event>
 8    1  0.3719512E-009  0.7489998E+02  0.7561462E-02  0.1344181E+00
          2   -1    0    0  501    0  0.00000000000E+00  0.00000000000E+00  0.52785248585E+03  0.52785248585E+03  0.00000000000E+00 0. -1.
         -2   -1    0    0    0  501 -0.00000000000E+00 -0.00000000000E+00 -0.27391312063E+02  0.27391312063E+02  0.00000000000E+00 0.  1.
         25    2    1    2    0    0 -0.36788509141E+02 -0.29154368279E+02  0.31889836631E+03  0.34575480560E+03  0.12508735335E+03 0.  0.
         23    2    1    2    0    0  0.36788509141E+02  0.29154368279E+02  0.18156280748E+03  0.20948899231E+03  0.93366017617E+02 0.  0.
          5    1    3    3  502    0 -0.26354444523E+02  0.31840308035E+01  0.30893046765E+03  0.31009708325E+03  0.41800000000E+01 0.  1.
         -5    1    3    3    0  502 -0.10434064618E+02 -0.32338399083E+02  0.99678986593E+01  0.35657722353E+02  0.41800000000E+01 0.  1.
        -11    1    4    4    0    0  0.60274827371E+02  0.20812558891E+02  0.17084695469E+03  0.18235925901E+03  0.00000000000E+00 0. -1.
         11    1    4    4    0    0 -0.23486318230E+02  0.83418093882E+01  0.10715852796E+02  0.27129733302E+02  0.00000000000E+00 0.  1.
</event>
<event>
 8    1  0.3719512E-009  0.7773046E+02  0.7561462E-02  0.1335618E+00
          1   -1    0    0  501    0  0.00000000000E+00  0.00000000000E+00  0.17206403265E+03  0.17206403265E+03  0.00000000000E+00 0. -1.
         -1   -1    0    0    0  501 -0.00000000000E+00 -0.00000000000E+00 -0.10328170990E+03  0.10328170990E+03  0.00000000000E+00 0.  1.
         25    2    1    2    0    0 -0.26000241256E+02  0.16691144890E+02 -0.34906084439E+02  0.13349350806E+03  0.12508986809E+03 0.  0.
         23    2    1    2    0    0  0.26000241256E+02 -0.16691144890E+02  0.10368840719E+03  0.14185223450E+03  0.91739652190E+02 0.  0.
          5    1    3    3  502    0  0.27398522012E+02  0.44590260651E+02  0.15594470273E+02  0.54768880366E+02  0.41800000000E+01 0.  1.
         -5    1    3    3    0  502 -0.53398763268E+02 -0.27899115761E+02 -0.50500554713E+02  0.78724627691E+02  0.41800000000E+01 0.  1.
        -11    1    4    4    0    0  0.24373434934E+02  0.13893381798E+01  0.11688607607E+03  0.11940833041E+03  0.00000000000E+00 0. -1.
         11    1    4    4    0    0  0.16268063222E+01 -0.18080483070E+02 -0.13197668885E+02  0.22443904091E+02  0.00000000000E+00 0.  1.
</event>
<event>
 8    1  0.3719512E-009  0.1028147E+03  0.7561462E-02  0.1274486E+00
          2   -1    0    0  501    0  0.00000000000E+00  0.00000000000E+00  0.21252638428E+03  0.21252638428E+03  0.00000000000E+00 0.  1.
         -2   -1    0    0    0  501 -0.00000000000E+00 -0.00000000000E+00 -0.89127994611E+02  0.89127994611E+02  0.00000000000E+00 0. -1.
         25    2    1    2    0    0  0.64714872511E+01 -0.68805049174E+02  0.14451911203E+02  0.14364099175E+03  0.12509141391E+03 0.  0.
         23    2    1    2    0    0 -0.64714872511E+01  0.68805049174E+02  0.10894647847E+03  0.15801338715E+03  0.91229821917E+02 0.  0.
          5    1    3    3  502    0 -0.41513775859E+02 -0.69332069741E+02  0.38717722530E+02  0.89704313824E+02  0.41800000000E+01 0.  1.
         -5    1    3    3    0  502  0.47985263110E+02  0.52702056678E+00 -0.24265811326E+02  0.53936677927E+02  0.41800000000E+01 0.  1.
        -11    1    4    4    0    0 -0.19315370473E+02  0.30135432429E+02 -0.57871789545E+01  0.36259057689E+02  0.00000000000E+00 0. -1.
         11    1    4    4    0    0  0.12843883222E+02  0.38669616745E+02  0.11473365742E+03  0.12175432946E+03  0.00000000000E+00 0.  1.
</event>
<event>
 8    1  0.3719512E-009  0.1336921E+03  0.7561462E-02  0.1222078E+00
         -2   -1    0    0    0  501 -0.00000000000E+00  0.00000000000E+00  0.19674317928E+02  0.19674317928E+02  0.00000000000E+00 0.  1.
          2   -1    0    0  501    0  0.00000000000E+00 -0.00000000000E+00 -0.11587239699E+04  0.11587239699E+04  0.00000000000E+00 0. -1.
         25    2    1    2    0    0 -0.43246790031E+01  0.78977928736E+02 -0.83140885811E+03  0.84447834335E+03  0.12508703752E+03 0.  0.
         23    2    1    2    0    0  0.43246790031E+01 -0.78977928736E+02 -0.30764079389E+03  0.33391994451E+03  0.10297307999E+03 0.  0.
          5    1    3    3  502    0  0.29567487731E+02  0.97710905904E+02 -0.47003263767E+03  0.48100915827E+03  0.41800000000E+01 0. -1.
         -5    1    3    3    0  502 -0.33892166734E+02 -0.18732977168E+02 -0.36137622044E+03  0.36346918508E+03  0.41800000000E+01 0. -1.
        -11    1    4    4    0    0 -0.10711935484E+02  0.21842057022E+02 -0.33193889281E+02  0.41154043573E+02  0.00000000000E+00 0.  1.
         11    1    4    4    0    0  0.15036614487E+02 -0.10081998576E+03 -0.27444690461E+03  0.29276590094E+03  0.00000000000E+00 0. -1.
</event>
<event>
 8    1  0.3719512E-009  0.1086858E+03  0.7561462E-02  0.1263023E+00
         -2   -1    0    0    0  501 -0.00000000000E+00  0.00000000000E+00  0.78151136307E+02  0.78151136307E+02  0.00000000000E+00 0. -1.
          2   -1    0    0  501    0  0.00000000000E+00 -0.00000000000E+00 -0.20483099167E+03  0.20483099167E+03  0.00000000000E+00 0.  1.
         25    2    1    2    0    0  0.16724126510E+02 -0.63532004375E+02 -0.71746871912E+02  0.15846841279E+03  0.12509441328E+03 0.  0.
         23    2    1    2    0    0 -0.16724126510E+02  0.63532004375E+02 -0.54932983450E+02  0.12451371519E+03  0.90388166328E+02 0.  0.
          5    1    3    3  502    0  0.53609118059E+02 -0.27512188663E+02  0.10501714104E+02  0.61307556331E+02  0.41800000000E+01 0.  1.
         -5    1    3    3    0  502 -0.36884991550E+02 -0.36019815711E+02 -0.82248586016E+02  0.97160856456E+02  0.41800000000E+01 0.  1.
        -11    1    4    4    0    0 -0.81526771117E+01  0.83300874463E+02 -0.24473687432E+02  0.87203573361E+02  0.00000000000E+00 0. -1.
         11    1    4    4    0    0 -0.85714493982E+01 -0.19768870088E+02 -0.30459296018E+02  0.37310141829E+02  0.00000000000E+00 0.  1.
</event>
<event>
 8    1  0.3719512E-009  0.9052586E+02  0.7561462E-02  0.1301583E+00
          1   -1    0    0  501    0  0.00000000000E+00  0.00000000000E+00  0.27367331479E+03  0.27367331479E+03  0.00000000000E+00 0. -1.
         -1   -1    0    0    0  501 -0.00000000000E+00 -0.00000000000E+00 -0.46067406534E+02  0.46067406534E+02  0.00000000000E+00 0.  1.
         25    2    1    2    0    0  0.40516627820E+01 -0.33815469428E+02  0.14073149816E+03  0.19134516752E+03  0.12509083346E+03 0.  0.
         23    2    1    2    0    0 -0.40516627820E+01  0.33815469428E+02  0.86874410101E+02  0.12839555380E+03  0.88194972432E+02 0.  0.
          5    1    3    3  502    0 -0.42420171485E+01  0.47089010002E+02  0.61912269303E+02  0.78012633995E+02  0.41800000000E+01 0.  1.
         -5    1    3    3    0  502  0.82936799305E+01 -0.80904479431E+02  0.78819228856E+02  0.11333253353E+03  0.41800000000E+01 0.  1.
        -11    1    4    4    0    0  0.11021068756E+02 -0.37768989430E+01 -0.14867574729E+02  0.18888454158E+02  0.00000000000E+00 0.  1.
         11    1    4    4    0    0 -0.15072731538E+02  0.37592368372E+02  0.10174198483E+03  0.10950709965E+03  0.00000000000E+00 0. -1.
</event>
<event>
 8    1  0.3719512E-009  0.1652371E+03  0.7561462E-02  0.1182908E+00
          1   -1    0    0  501    0  0.00000000000E+00  0.00000000000E+00  0.42709597288E+03  0.42709597288E+03  0.00000000000E+00 0. -1.
         -1   -1    0    0    0  501 -0.00000000000E+00 -0.00000000000E+00 -0.65619113308E+02  0.65619113308E+02  0.00000000000E+00 0.  1.
         25    2    1    2    0    0 -0.11661230139E+03 -0.51237220221E+02  0.18418145752E+03  0.25651258540E+03  0.12510881505E+03 0.  0.
         23    2    1    2    0    0  0.11661230139E+03  0.51237220221E+02  0.17729540206E+03  0.23620250080E+03  0.90190244593E+02 0.  0.
          5    1    3    3  502    0 -0.12903866422E+03 -0.57641088394E+01  0.15078827958E+03  0.19859199247E+03  0.41800000000E+01 0.  1.
         -5    1    3    3    0  502  0.12426362833E+02 -0.45473111382E+02  0.33393177937E+02  0.57920592924E+02  0.41800000000E+01 0.  1.
        -11    1    4    4    0    0  0.76562045756E+02 -0.13545143502E+02  0.69973201534E+02  0.10460146603E+03  0.00000000000E+00 0.  1.
         11    1    4    4    0    0  0.40050255634E+02  0.64782363723E+02  0.10732220052E+03  0.13160103476E+03  0.00000000000E+00 0. -1.
</event>
<event>
 8    1  0.3719512E-009  0.1259150E+03  0.7561462E-02  0.1233646E+00
         -1   -1    0    0    0  501 -0.00000000000E+00  0.00000000000E+00  0.29620645423E+02  0.29620645423E+02  0.00000000000E+00 0.  1.
          1   -1    0    0  501    0  0.00000000000E+00 -0.00000000000E+00 -0.76687850682E+03  0.76687850682E+03  0.00000000000E+00 0. -1.
         25    2    1    2    0    0  0.46798084156E+02  0.90294550400E+02 -0.32078545951E+03  0.35901664813E+03  0.12508587486E+03 0.  0.
         23    2    1    2    0    0 -0.46798084156E+02 -0.90294550400E+02 -0.41647240189E+03  0.43748250412E+03  0.87169451970E+02 0.  0.
          5    1    3    3  502    0  0.52753526480E+02  0.97764551696E+02 -0.14397350243E+03  0.18189745442E+03  0.41800000000E+01 0. -1.
         -5    1    3    3    0  502 -0.59554423242E+01 -0.74700012966E+01 -0.17681195708E+03  0.17711919370E+03  0.41800000000E+01 0. -1.
        -11    1    4    4    0    0 -0.69678931988E+02 -0.76677403968E+02 -0.28274401742E+03  0.30112913713E+03  0.00000000000E+00 0.  1.
         11    1    4    4    0    0  0.22880847833E+02 -0.13617146432E+02 -0.13372838448E+03  0.13635336699E+03  0.00000000000E+00 0. -1.
</event>
<event>
 8    1  0.3719512E-009  0.6114331E+02  0.7561462E-02  0.1393095E+00
         -1   -1    0    0    0  501 -0.00000000000E+00  0.00000000000E+00  0.12157856931E+02  0.12157856931E+02  0.00000000000E+00 0.  1.
          1   -1    0    0  501    0  0.00000000000E+00 -0.00000000000E+00 -0.10031446915E+04  0.10031446915E+04  0.00000000000E+00 0. -1.
         25    2    1    2    0    0 -0.69950317527E+01  0.14176698011E+02 -0.62654928869E+03  0.63910909376E+03  0.12508602374E+03 0.  0.
         23    2    1    2    0    0  0.69950317527E+01 -0.14176698011E+02 -0.36443754587E+03  0.37619345466E+03  0.91961303026E+02 0.  0.
          5    1    3    3  502    0 -0.20144351376E+02  0.65416056610E+01 -0.12679036574E+02  0.25036330910E+02  0.41800000000E+01 0. -1.
         -5    1    3    3    0  502  0.13149319624E+02  0.76350923502E+01 -0.61387025212E+03  0.61407276285E+03  0.41800000000E+01 0. -1.
        -11    1    4    4    0    0 -0.19931268418E+02  0.28313550173E+02 -0.77546651145E+02  0.84925824623E+02  0.00000000000E+00 0.  1.
         11    1    4    4    0    0  0.26926300171E+02 -0.42490248184E+02 -0.28689089472E+03  0.29126763004E+03  0.00000000000E+00 0. -1.
</event>
<event>
 8    1  0.3719512E-009  0.8089489E+02  0.7561462E-02  0.1326531E+00
          3   -1    0    0  501    0  0.00000000000E+00  0.00000000000E+00  0.45930821886E+03  0.45930821886E+03  0.00000000000E+00 0. -1.
         -3   -1    0    0    0  501 -0.00000000000E+00 -0.00000000000E+00 -0.10522806549E+03  0.10522806549E+03  0.00000000000E+00 0.  1.
         25    2    1    2    0    0 -0.48332330956E+02  0.33918568288E+02  0.42254877329E+03  0.44461346731E+03  0.12508871258E+03 0.  0.
         23    2    1    2    0    0  0.48332330956E+02 -0.33918568288E+02 -0.68468619917E+02  0.11992281704E+03  0.78784812258E+02 0.  0.
          5    1    3    3  502    0 -0.56855283246E+02 -0.45107310951E+01  0.72528285717E+02  0.92361759170E+02  0.41800000000E+01 0. -1.
         -5    1    3    3    0  502  0.85229522902E+01  0.38429299384E+02  0.35002048757E+03  0.35225170814E+03  0.41800000000E+01 0. -1.
        -11    1    4    4    0    0  0.19088454315E+02  0.14290992327E+01 -0.71430366927E+02  0.73950718266E+02  0.00000000000E+00 0.  1.
         11    1    4    4    0    0  0.29243876640E+02 -0.35347667521E+02  0.29617470093E+01  0.45972098772E+02  0.00000000000E+00 0. -1.
</event>
<event>
 8    1  0.3719512E-009  0.1415082E+03  0.7561462E-02  0.1211314E+00
          1   -1    0    0  501    0  0.00000000000E+00  0.00000000000E+00  0.81640594550E+03  0.81640594550E+03  0.00000000000E+00 0. -1.
         -1   -1    0    0    0  501 -0.00000000000E+00 -0.00000000000E+00 -0.37975712037E+02  0.37975712037E+02  0.00000000000E+00 0.  1.
         25    2    1    2    0    0  0.96476257030E+02  0.92883884065E+02  0.33133070940E+03  0.37863377171E+03  0.12509360493E+03 0.  0.
         23    2    1    2    0    0 -0.96476257030E+02 -0.92883884065E+02  0.44709952406E+03  0.47574788583E+03  0.92211617302E+02 0.  0.
          5    1    3    3  502    0  0.54984736756E+02  0.13474104333E+02  0.29935252907E+02  0.64175264162E+02  0.41800000000E+01 0. -1.
         -5    1    3    3    0  502  0.41491520275E+02  0.79409779733E+02  0.30139545650E+03  0.31445850755E+03  0.41800000000E+01 0. -1.
        -11    1    4    4    0    0 -0.22337730319E+02 -0.38862205265E+02  0.45752539345E+02  0.64051073765E+02  0.00000000000E+00 0.  1.
         11    1    4    4    0    0 -0.74138526711E+02 -0.54021678800E+02  0.40134698471E+03  0.41169681206E+03  0.00000000000E+00 0. -1.
</event>
<event>
 8    1  0.3719512E-009  0.9897848E+02  0.7561462E-02  0.1282459E+00
         -2   -1    0    0    0  501 -0.00000000000E+00  0.00000000000E+00  0.38093204631E+02  0.38093204631E+02  0.00000000000E+00 0.  1.
          2   -1    0    0  501    0  0.00000000000E+00 -0.00000000000E+00 -0.47440845803E+03  0.47440845803E+03  0.00000000000E+00 0. -1.
         25    2    1    2    0    0 -0.78047209961E+02  0.18805215843E+02 -0.24426149910E+03  0.28593837592E+03  0.12510824015E+03 0.  0.
         23    2    1    2    0    0  0.78047209961E+02 -0.18805215843E+02 -0.19205375429E+03  0.22656328674E+03  0.89449847596E+02 0.  0.
          5    1    3    3  502    0 -0.17332592306E+02  0.35791419359E+02 -0.72361343338E+01  0.40635926172E+02  0.41800000000E+01 0.  1.
         -5    1    3    3    0  502 -0.60714617655E+02 -0.16986203516E+02 -0.23702536477E+03  0.24530244975E+03  0.41800000000E+01 0.  1.
        -11    1    4    4    0    0  0.88093046159E+01 -0.23790346777E+02 -0.34650784581E+01  0.25604515546E+02  0.00000000000E+00 0.  1.
         11    1    4    4    0    0  0.69237905345E+02  0.49851309345E+01 -0.18858867583E+03  0.20095877119E+03  0.00000000000E+00 0. -1.
</event>
<event>
 8    1  0.3719512E-009  0.2007504E+03  0.7561462E-02  0.1149107E+00
          2   -1    0    0  501    0  0.00000000000E+00  0.00000000000E+00  0.51722032243E+03  0.51722032243E+03  0.00000000000E+00 0. -1.
         -2   -1    0    0    0  501 -0.00000000000E+00 -0.00000000000E+00 -0.12156434173E+03  0.12156434173E+03  0.00000000000E+00 0.  1.
         25    2    1    2    0    0  0.15872043107E+03 -0.10188855127E+03  0.36213500690E+03  0.42703974983E+03  0.12509089733E+03 0.  0.
         23    2    1    2    0    0 -0.15872043107E+03  0.10188855127E+03  0.33520973799E+02  0.21174491433E+03  0.90215303249E+02 0.  0.
          5    1    3    3  502    0  0.45882902022E+02 -0.86940279158E+02  0.24325808856E+03  0.26240393078E+03  0.41800000000E+01 0. -1.
         -5    1    3    3    0  502  0.11283752905E+03 -0.14948272112E+02  0.11887691833E+03  0.16463581905E+03  0.41800000000E+01 0. -1.
        -11    1    4    4    0    0 -0.10013436909E+03  0.55551842961E+02  0.63870042396E+02  0.13111934047E+03  0.00000000000E+00 0. -1.
         11    1    4    4    0    0 -0.58586061982E+02  0.46336708309E+02 -0.30349068598E+02  0.80625573860E+02  0.00000000000E+00 0.  1.
</event>
<event>
 8    1  0.3719512E-009  0.8720578E+02  0.7561462E-02  0.1309763E+00
         -2   -1    0    0    0  501 -0.00000000000E+00  0.00000000000E+00  0.17266198034E+02  0.17266198034E+02  0.00000000000E+00 0. -1.
          2   -1    0    0  501    0  0.00000000000E+00 -0.00000000000E+00 -0.74989633108E+03  0.74989633108E+03  0.00000000000E+00 0.  1.
         25    2    1    2    0    0 -0.11918022059E+02  0.26107283357E+02 -0.47096821453E+03  0.48814070773E+03  0.12508661780E+03 0.  0.
         23    2    1    2    0    0  0.11918022059E+02 -0.26107283357E+02 -0.26166191852E+03  0.27902182138E+03  0.92534251568E+02 0.  0.
          5    1    3    3  502    0 -0.21390349345E+02  0.55795895596E+02 -0.43982590480E+03  0.44388627817E+03  0.41800000000E+01 0.  1.
         -5    1    3    3    0  502  0.94723272855E+01 -0.29688612239E+02 -0.31142309734E+02  0.44254429568E+02  0.41800000000E+01 0.  1.
        -11    1    4    4    0    0  0.43817293532E+02 -0.26421637694E+02 -0.22350192339E+03  0.22928403326E+03  0.00000000000E+00 0.  1.
         11    1    4    4    0    0 -0.31899271473E+02  0.31435433642E+00 -0.38159995129E+02  0.49737788123E+02  0.00000000000E+00 0. -1.
</event>
<event>
 8    1  0.3719512E-009  0.9260517E+02  0.7561462E-02  0.1296663E+00
         -1   -1    0    0    0  501 -0.00000000000E+00  0.00000000000E+00  0.29097831598E+03  0.29097831598E+03  0.00000000000E+00 0.  1.
          1   -1    0    0  501    0  0.00000000000E+00 -0.00000000000E+00 -0.57682157805E+02  0.57682157805E+02  0.00000000000E+00 0. -1.
         25    2    1    2    0    0 -0.59305240551E+02 -0.37486048305E+02  0.12372015272E+03  0.18940939024E+03  0.12508767144E+03 0.  0.
         23    2    1    2    0    0  0.59305240551E+02  0.37486048305E+02  0.10957600545E+03  0.15925108354E+03  0.91824241158E+02 0.  0.
          5    1    3    3  502    0  0.14966140668E+01  0.39027419732E+01 -0.23796610554E+02  0.24519835286E+02  0.41800000000E+01 0.  1.
         -5    1    3    3    0  502 -0.60801854618E+02 -0.41388790278E+02  0.14751676328E+03  0.16488955495E+03  0.41800000000E+01 0.  1.
        -11    1    4    4    0    0 -0.19283016793E+02  0.19571544506E+01 -0.52807487932E+00  0.19389276760E+02  0.00000000000E+00 0. -1.
         11    1    4    4    0    0  0.78588257344E+02  0.35528893854E+02  0.11010408033E+03  0.13986180678E+03  0.00000000000E+00 0.  1.
</event>
<event>
 8    1  0.3719512E-009  0.1082905E+03  0.7561462E-02  0.1263769E+00
          1   -1    0    0  501    0  0.00000000000E+00  0.00000000000E+00  0.49524337755E+03  0.49524337755E+03  0.00000000000E+00 0. -1.
         -1   -1    0    0    0  501 -0.00000000000E+00 -0.00000000000E+00 -0.40005965708E+02  0.40005965708E+02  0.00000000000E+00 0.  1.
         25    2    1    2    0    0  0.45786366815E+02 -0.95360963185E+01  0.39449563012E+03  0.41648602843E+03  0.12508589519E+03 0.  0.
         23    2    1    2    0    0 -0.45786366815E+02  0.95360963185E+01  0.60741781720E+02  0.11876331482E+03  0.90707399822E+02 0.  0.
          5    1    3    3  502    0  0.33488586546E+02  0.50423630895E+02  0.28093774182E+03  0.28741523126E+03  0.41800000000E+01 0. -1.
         -5    1    3    3    0  502  0.12297780269E+02 -0.59959727213E+02  0.11355788830E+03  0.12907079717E+03  0.41800000000E+01 0. -1.
        -11    1    4    4    0    0 -0.23089100233E+02  0.46077314045E+02  0.10455784982E+02  0.52588485991E+02  0.00000000000E+00 0.  1.
         11    1    4    4    0    0 -0.22697266582E+02 -0.36541217727E+02  0.50285996738E+02  0.66174828834E+02  0.00000000000E+00 0. -1.
</event>
<event>
 8    1  0.3719512E-009  0.8686648E+02  0.7561462E-02  0.1310622E+00
         -2   -1    0    0    0  501 -0.00000000000E+00  0.00000000000E+00  0.68928695108E+02  0.68928695108E+02  0.00000000000E+00 0.  1.
          2   -1    0    0  501    0  0.00000000000E+00 -0.00000000000E+00 -0.35768224354E+03  0.35768224354E+03  0.00000000000E+00 0. -1.
         25    2    1    2    0    0  0.23135619162E+02  0.16998479037E+02 -0.30679355698E+03  0.33255579115E+03  0.12508741928E+03 0.  0.
         23    2    1    2    0    0 -0.23135619162E+02 -0.16998479037E+02  0.18040008552E+02  0.94055147491E+02  0.87730973421E+02 0.  0.
          5    1    3    3  502    0  0.50065988702E+02 -0.32843676523E+02 -0.22570040078E+03  0.23354539949E+03  0.41800000000E+01 0.  1.
         -5    1    3    3    0  502 -0.26930369540E+02  0.49842155560E+02 -0.81093156204E+02  0.99010391664E+02  0.41800000000E+01 0.  1.
        -11    1    4    4    0    0  0.17945688124E+01 -0.29125135561E+02  0.46132538474E+02  0.54586675157E+02  0.00000000000E+00 0.  1.
         11    1    4    4    0    0 -0.24930187975E+02  0.12126656524E+02 -0.28092529922E+02  0.39468472333E+02  0.00000000000E+00 0. -1.
</event>
<event>
 8    1  0.3719512E-009  0.1107041E+03  0.7561462E-02  0.1259272E+00
          3   -1    0    0  501    0  0.00000000000E+00  0.00000000000E+00  0.29849864326E+02  0.29849864326E+02  0.00000000000E+00 0.  1.
         -3   -1    0    0    0  501 -0.00000000000E+00 -0.00000000000E+00 -0.44112034942E+03  0.44112034942E+03  0.00000000000E+00 0. -1.
         25    2    1    2    0    0  0.36142800845E+02 -0.12033505069E+02 -0.24171942688E+03  0.27482225369E+03  0.12509149648E+03 0.  0.
         23    2    1    2    0    0 -0.36142800845E+02  0.12033505069E+02 -0.16955105822E+03  0.19614796006E+03  0.90968970520E+02 0.  0.
          5    1    3    3  502    0  0.77818718405E+02  0.64851297846E+01 -0.10699042913E+03  0.13252257984E+03  0.41800000000E+01 0. -1.
         -5    1    3    3    0  502 -0.41675917560E+02 -0.18518634854E+02 -0.13472899775E+03  0.14229967384E+03  0.41800000000E+01 0. -1.
        -11    1    4    4    0    0 -0.42939275187E+02 -0.31561061479E+02 -0.77304418966E+02  0.93892785383E+02  0.00000000000E+00 0.  1.
         11    1    4    4    0    0  0.67964743422E+01  0.43594566548E+02 -0.92246639249E+02  0.10225517468E+03  0.00000000000E+00 0. -1.
</event>
<event>
 8    1  0.3719512E-009  0.1233207E+03  0.7561462E-02  0.1237717E+00
         -1   -1    0    0    0  501 -0.00000000000E+00  0.00000000000E+00  0.67825108766E+02  0.67825108766E+02  0.00000000000E+00 0.  1.
          1   -1    0    0  501    0  0.00000000000E+00 -0.00000000000E+00 -0.38516272068E+03  0.38516272068E+03  0.00000000000E+00 0. -1.
         25    2    1    2    0    0 -0.37398818129E+02 -0.10774567049E+03 -0.13416989537E+03  0.21600500113E+03  0.12509515810E+03 0.  0.
         23    2    1    2    0    0  0.37398818129E+02  0.10774567049E+03 -0.18316771655E+03  0.23698282832E+03  0.97993098876E+02 0.  0.
          5    1    3    3  502    0  0.18498125922E+02 -0.16989501715E+02 -0.10120220223E+03  0.10435603464E+03  0.41800000000E+01 0.  1.
         -5    1    3    3    0  502 -0.55896944051E+02 -0.90756168776E+02 -0.32967693140E+02  0.11164896648E+03  0.41800000000E+01 0.  1.
        -11    1    4    4    0    0  0.19578427956E+02  0.71312882886E+02 -0.32192401460E+02  0.80654775547E+02  0.00000000000E+00 0.  1.
         11    1    4    4    0    0  0.17820390172E+02  0.36432787605E+02 -0.15097531509E+03  0.15632805278E+03  0.00000000000E+00 0. -1.
</event>
<event>
 8    1  0.3719512E-009  0.7547809E+02  0.7561462E-02  0.1342397E+00
         -2   -1    0    0    0  501 -0.00000000000E+00  0.00000000000E+00  0.42234792195E+02  0.42234792195E+02  0.00000000000E+00 0.  1.
          2   -1    0    0  501    0  0.00000000000E+00 -0.00000000000E+00 -0.31423192713E+03  0.31423192713E+03  0.00000000000E+00 0. -1.
         25    2    1    2    0    0  0.27054939534E+02  0.26919476433E+02 -0.13599185356E+03  0.18867321586E+03  0.12508864929E+03 0.  0.
         23    2    1    2    0    0 -0.27054939534E+02 -0.26919476433E+02 -0.13600528137E+03  0.16779350347E+03  0.90557138212E+02 0.  0.
          5    1    3    3  502    0  0.18858765375E+02 -0.46810154902E+01  0.20620501096E+02  0.28639874353E+02  0.41800000000E+01 0. -1.
         -5    1    3    3    0  502  0.81961741590E+01  0.31600491924E+02 -0.15661235466E+03  0.16003334150E+03  0.41800000000E+01 0. -1.
        -11    1    4    4    0    0 -0.46100604947E+02  0.17912438539E+02 -0.64676984985E+02  0.81420105733E+02  0.00000000000E+00 0.  1.
         11    1    4    4    0    0  0.19045665414E+02 -0.44831914972E+02 -0.71328296386E+02  0.86373397736E+02  0.00000000000E+00 0. -1.
</event>
<event>
 8    1  0.3719512E-009  0.9217653E+02  0.7561462E-02  0.1297665E+00
         -1   -1    0    0    0  501 -0.00000000000E+00  0.00000000000E+00  0.52465321101E+02  0.52465321101E+02  0.00000000000E+00 0.  1.
          1   -1    0    0  501    0  0.00000000000E+00 -0.00000000000E+00 -0.25859742297E+03  0.25859742297E+03  0.00000000000E+00 0. -1.
         25    2    1    2    0    0  0.41385711327E+01 -0.47361431977E+02 -0.15495115165E+03  0.20473378799E+03  0.12508329840E+03 0.  0.
         23    2    1    2    0    0 -0.41385711327E+01  0.47361431977E+02 -0.51180950221E+02  0.10632895608E+03  0.80163110128E+02 0.  0.
          5    1    3    3  502    0  0.69084886024E+01  0.31884626175E+02 -0.10707449522E+03  0.11201239453E+03  0.41800000000E+01 0. -1.
         -5    1    3    3    0  502 -0.27699174697E+01 -0.79246058152E+02 -0.47876656430E+02  0.92721393466E+02  0.41800000000E+01 0. -1.
        -11    1    4    4    0    0  0.94312212654E+01  0.55458944602E+02 -0.64554914091E+02  0.85626978250E+02  0.00000000000E+00 0. -1.
         11    1    4    4    0    0 -0.13569792398E+02 -0.80975126257E+01  0.13373963870E+02  0.20701977829E+02  0.00000000000E+00 0.  1.
</event>
<event>
 8    1  0.3719512E-009  0.1278347E+03  0.7561462E-02  0.1230705E+00
         -3   -1    0    0    0  501 -0.00000000000E+00  0.00000000000E+00  0.61806020288E+03  0.61806020288E+03  0.00000000000E+00 0.  1.
          3   -1    0    0  501    0  0.00000000000E+00 -0.00000000000E+00 -0.51464996560E+02  0.51464996560E+02  0.00000000000E+00 0. -1.
         25    2    1    2    0    0 -0.41247785770E+02 -0.10555574586E+03  0.14215590262E+03  0.22067765419E+03  0.12508769362E+03 0.  0.
         23    2    1    2    0    0  0.41247785770E+02  0.10555574586E+03  0.42443930370E+03  0.44884754525E+03  0.92043473604E+02 0.  0.
          5    1    3    3  502    0  0.16249715823E+02 -0.66013185456E+02  0.13397271875E+03  0.15029289966E+03  0.41800000000E+01 0.  1.
         -5    1    3    3    0  502 -0.57497501593E+02 -0.39542560408E+02  0.81831838733E+01  0.70384754538E+02  0.41800000000E+01 0.  1.
        -11    1    4    4    0    0  0.97519989455E+00  0.44484733786E+02  0.48344380752E+02  0.65704046337E+02  0.00000000000E+00 0. -1.
         11    1    4    4    0    0  0.40272585875E+02  0.61071012079E+02  0.37609492295E+03  0.38314349891E+03  0.00000000000E+00 0.  1.
</event>
<event>
 8    1  0.3719512E-009  0.1149100E+03  0.7561462E-02  0.1251738E+00
          1   -1    0    0  501    0  0.00000000000E+00  0.00000000000E+00  0.12505437803E+03  0.12505437803E+03  0.00000000000E+00 0. -1.
         -1   -1    0    0    0  501 -0.00000000000E+00 -0.00000000000E+00 -0.12431893995E+03  0.12431893995E+03  0.00000000000E+00 0.  1.
         25    2    1    2    0    0  0.40645700585E+02 -0.28247012703E+02 -0.35860677441E+02  0.13922734360E+03  0.12509315855E+03 0.  0.
         23    2    1    2    0    0 -0.40645700585E+02  0.28247012703E+02  0.36596115512E+02  0.11014597438E+03  0.91339440000E+02 0.  0.
          5    1    3    3  502    0 -0.23699589546E+02 -0.57738392865E+02 -0.80730542133E+01  0.63071698563E+02  0.41800000000E+01 0.  1.
         -5    1    3    3    0  502  0.64345290132E+02  0.29491380163E+02 -0.27787623228E+02  0.76155645035E+02  0.41800000000E+01 0.  1.
        -11    1    4    4    0    0  0.19104985029E+02  0.31148647729E+02 -0.55624981139E+01  0.36961873513E+02  0.00000000000E+00 0.  1.
         11    1    4    4    0    0 -0.59750685615E+02 -0.29016350264E+01  0.42158613626E+02  0.73184100870E+02  0.00000000000E+00 0. -1.
</event>
<event>
 8    1  0.3719512E-009  0.1516038E+03  0.7561462E-02  0.1198516E+00
          3   -1    0    0  501    0  0.00000000000E+00  0.00000000000E+00  0.41931567824E+02  0.41931567824E+02  0.00000000000E+00 0. -1.
         -3   -1    0    0    0  501 -0.00000000000E+00 -0.00000000000E+00 -0.94832318466E+03  0.94832318466E+03  0.00000000000E+00 0.  1.
         25    2    1    2    0    0  0.10193928956E+03  0.57694114172E+02 -0.76610634023E+03  0.78503994618E+03  0.12509421648E+03 0.  0.
         23    2    1    2    0    0 -0.10193928956E+03 -0.57694114172E+02 -0.14028527661E+03  0.20521480630E+03  0.93343067901E+02 0.  0.
          5    1    3    3  502    0  0.30890166085E+01 -0.25968606696E+02 -0.30282324238E+03  0.30397910962E+03  0.41800000000E+01 0. -1.
         -5    1    3    3    0  502  0.98850272956E+02  0.83662720868E+02 -0.46328309785E+03  0.48106083657E+03  0.41800000000E+01 0. -1.
        -11    1    4    4    0    0 -0.11855609037E+03 -0.53167394403E+02 -0.13459225879E+03  0.18707590576E+03  0.00000000000E+00 0.  1.
         11    1    4    4    0    0  0.16616800806E+02 -0.45267197693E+01 -0.56930178251E+01  0.18138900541E+02  0.00000000000E+00 0. -1.
</event>
<event>
 8    1  0.3719512E-009  0.2270360E+03  0.7561462E-02  0.1128744E+00
          2   -1    0    0  501    0  0.00000000000E+00  0.00000000000E+00  0.18974393329E+04  0.18974393329E+04  0.00000000000E+00 0. -1.
         -2   -1    0    0    0  501 -0.00000000000E+00 -0.00000000000E+00 -0.27822798528E+02  0.27822798528E+02  0.00000000000E+00 0.  1.
         25    2    1    2    0    0  0.10186566031E+03  0.17248849305E+03  0.82790942372E+03  0.86093569704E+03  0.12508943826E+03 0.  0.
         23    2    1    2    0    0 -0.10186566031E+03 -0.17248849305E+03  0.10417071106E+04  0.10643264344E+04  0.86649648438E+02 0.  0.
          5    1    3    3  502    0 -0.10214151819E+02 -0.14379932878E+02  0.57189381894E+02  0.59993409375E+02  0.41800000000E+01 0.  1.
         -5    1    3    3    0  502  0.11207981213E+03  0.18686842592E+03  0.77072004182E+03  0.80094228766E+03  0.41800000000E+01 0.  1.
        -11    1    4    4    0    0 -0.22623476415E+02 -0.12191582691E+03  0.56676421411E+03  0.58016977251E+03  0.00000000000E+00 0. -1.
         11    1    4    4    0    0 -0.79242183895E+02 -0.50572666132E+02  0.47494289650E+03  0.48415666184E+03  0.00000000000E+00 0.  1.
</event>
<event>
 8    1  0.3719512E-009  0.1051335E+03  0.7561462E-02  0.1269857E+00
          3   -1    0    0  501    0  0.00000000000E+00  0.00000000000E+00  0.15647880877E+03  0.15647880877E+03  0.00000000000E+00 0. -1.
         -3   -1    0    0    0  501 -0.00000000000E+00 -0.00000000000E+00 -0.88037707151E+02  0.88037707151E+02  0.00000000000E+00 0.  1.
         25    2    1    2    0    0 -0.32109106650E+01 -0.29762113747E+02  0.64591101647E+00  0.12862492639E+03  0.12509141108E+03 0.  0.
         23    2    1    2    0    0  0.32109106650E+01  0.29762113747E+02  0.67795190599E+02  0.11589158953E+03  0.89098705340E+02 0.  0.
          5    1    3    3  502    0 -0.47238050351E+02 -0.50259753167E+02  0.25815548726E+02  0.73765785737E+02  0.41800000000E+01 0. -1.
         -5    1    3    3    0  502  0.44027139686E+02  0.20497639420E+02 -0.25169637709E+02  0.54859140653E+02  0.41800000000E+01 0. -1.
        -11    1    4    4    0    0  0.45277468700E+02  0.18167774236E+02  0.46259749174E+02  0.67231552014E+02  0.00000000000E+00 0. -1.
         11    1    4    4    0    0 -0.42066558035E+02  0.11594339511E+02  0.21535441426E+02  0.48660037515E+02  0.00000000000E+00 0.  1.
</event>
<event>
 8    1  0.3719512E-009  0.9628050E+02  0.7561462E-02  0.1288318E+00
         -1   -1    0    0    0  501 -0.00000000000E+00  0.00000000000E+00  0.12278010891E+03  0.12278010891E+03  0.00000000000E+00 0.  1.
          1   -1    0    0  501    0  0.00000000000E+00 -0.00000000000E+00 -0.16942622435E+03  0.16942622435E+03  0.00000000000E+00 0. -1.
         25    2    1    2    0    0  0.36163485983E+02 -0.18706088279E+02 -0.11055207394E+03  0.17183383345E+03  0.12508952717E+03 0.  0.
         23    2    1    2    0    0 -0.36163485983E+02  0.18706088279E+02  0.63905958499E+02  0.12037249980E+03  0.93529950922E+02 0.  0.
          5    1    3    3  502    0  0.76039246103E+01  0.47802813068E+02 -0.13006234102E+02  0.50294762473E+02  0.41800000000E+01 0.  1.
         -5    1    3    3    0  502  0.28559561372E+02 -0.66508901348E+02 -0.97545839837E+02  0.12153907098E+03  0.41800000000E+01 0.  1.
        -11    1    4    4    0    0 -0.50715170372E+02  0.23846753814E+02  0.80257850511E+02  0.97887786480E+02  0.00000000000E+00 0.  1.
         11    1    4    4    0    0  0.14551684389E+02 -0.51406655350E+01 -0.16351892013E+02  0.22484713320E+02  0.00000000000E+00 0. -1.
</event>
<event>
 8    1  0.3719512E-009  0.8093086E+02  0.7561462E-02  0.1326430E+00
          1   -1    0    0  501    0  0.00000000000E+00  0.00000000000E+00  0.93183572810E+02  0.93183572810E+02  0.00000000000E+00 0. -1.
         -1   -1    0    0    0  501 -0.00000000000E+00 -0.00000000000E+00 -0.13023606953E+03  0.13023606953E+03  0.00000000000E+00 0.  1.
         25    2    1    2    0    0 -0.12845944379E+02 -0.14115143017E+02 -0.33023248473E+02  0.13077521907E+03  0.12508943773E+03 0.  0.
         23    2    1    2    0    0  0.12845944379E+02  0.14115143017E+02 -0.40292482509E+01  0.92644423278E+02  0.90567647500E+02 0.  0.
          5    1    3    3  502    0  0.16915903817E+02 -0.41527107103E+02  0.31176756624E+02  0.54773268844E+02  0.41800000000E+01 0. -1.
         -5    1    3    3    0  502 -0.29761848196E+02  0.27411964085E+02 -0.64200005096E+02  0.76001950221E+02  0.41800000000E+01 0. -1.
        -11    1    4    4    0    0 -0.29305276774E+02 -0.52347953520E+01  0.24186098624E+02  0.38355830011E+02  0.00000000000E+00 0. -1.
         11    1    4    4    0    0  0.42151221153E+02  0.19349938369E+02 -0.28215346875E+02  0.54288593267E+02  0.00000000000E+00 0.  1.
</event>
<event>
 8    1  0.3719512E-009  0.2378901E+03  0.7561462E-02  0.1121206E+00
          1   -1    0    0  501    0  0.00000000000E+00  0.00000000000E+00  0.27592768712E+03  0.27592768712E+03  0.00000000000E+00 0. -1.
         -1   -1    0    0    0  501 -0.00000000000E+00 -0.00000000000E+00 -0.22205649627E+03  0.22205649627E+03  0.00000000000E+00 0.  1.
         25    2    1    2    0    0 -0.18823070139E+03 -0.11738447663E+03  0.37448351521E+02  0.25740869127E+03  0.12508774124E+03 0.  0.
         23    2    1    2    0    0  0.18823070139E+03  0.11738447663E+03  0.16422839328E+02  0.24057549212E+03  0.91634848491E+02 0.  0.
          5    1    3    3  502    0 -0.20514594147E+03 -0.11453716739E+03  0.43016165658E+02  0.23889638533E+03  0.41800000000E+01 0.  1.
         -5    1    3    3    0  502  0.16915240080E+02 -0.28473092447E+01 -0.55678141365E+01  0.18512305938E+02  0.41800000000E+01 0.  1.
        -11    1    4    4    0    0  0.12136324491E+03  0.88958195266E+02  0.52606791470E+02  0.15940537077E+03  0.00000000000E+00 0.  1.
         11    1    4    4    0    0  0.66867456478E+02  0.28426281367E+02 -0.36183952142E+02  0.81170121355E+02  0.00000000000E+00 0. -1.
</event>
<event>
 8    1  0.3719512E-009  0.1660130E+03  0.7561462E-02  0.1182071E+00
          1   -1    0    0  501    0  0.00000000000E+00  0.00000000000E+00  0.16422663178E+03  0.16422663178E+03  0.00000000000E+00 0. -1.
         -1   -1    0    0    0  501 -0.00000000000E+00 -0.00000000000E+00 -0.24525220732E+03  0.24525220732E+03  0.00000000000E+00 0.  1.
         25    2    1    2    0    0  0.55365981347E+02  0.12577093230E+03 -0.14114782618E+03  0.23335448602E+03  0.12509151852E+03 0.  0.
         23    2    1    2    0    0 -0.55365981347E+02 -0.12577093230E+03  0.60122250644E+02  0.17612435308E+03  0.92311339618E+02 0.  0.
          5    1    3    3  502    0  0.66489882308E+02  0.23898564145E+02 -0.10074076390E+03  0.12311872208E+03  0.41800000000E+01 0. -1.
         -5    1    3    3    0  502 -0.11123900961E+02  0.10187236816E+03 -0.40407062287E+02  0.11023576393E+03  0.41800000000E+01 0. -1.
        -11    1    4    4    0    0 -0.50967902466E+02 -0.23165803587E+02  0.45998112030E+02  0.72458318004E+02  0.00000000000E+00 0.  1.
         11    1    4    4    0    0 -0.43980788816E+01 -0.10260512872E+03  0.14124138614E+02  0.10366603507E+03  0.00000000000E+00 0. -1.
</event>
<event>
 8    1  0.3719512E-009  0.1118332E+03  0.7561462E-02  0.1257212E+00
         -1   -1    0    0    0  501 -0.00000000000E+00  0.00000000000E+00  0.15360778468E+03  0.15360778468E+03  0.00000000000E+00 0.  1.
          1   -1    0    0  501    0  0.00000000000E+00 -0.00000000000E+00 -0.91299060423E+02  0.91299060423E+02  0.00000000000E+00 0. -1.
         25    2    1    2    0    0  0.46913010229E+02  0.18733000962E+02  0.39741218367E+02  0.14063844769E+03  0.12509217672E+03 0.  0.
         23    2    1    2    0    0 -0.46913010229E+02 -0.18733000962E+02  0.22567505889E+02  0.10426839741E+03  0.88379016305E+02 0.  0.
          5    1    3    3  502    0 -0.16714132367E+02  0.51163462464E+02 -0.80819448484E+01  0.54588023820E+02  0.41800000000E+01 0. -1.
         -5    1    3    3    0  502  0.63627142596E+02 -0.32430461502E+02  0.47823163216E+02  0.86050423869E+02  0.41800000000E+01 0. -1.
        -11    1    4    4    0    0 -0.68358877070E+02 -0.29133009176E+02  0.28699691565E+02  0.79657646173E+02  0.00000000000E+00 0.  1.
         11    1    4    4    0    0  0.21445866841E+02  0.10400008214E+02 -0.61321856756E+01  0.24610751239E+02  0.00000000000E+00 0. -1.
</event>
<event>
 8    1  0.3719512E-009  0.1526863E+03  0.7561462E-02  0.1197210E+00
         -1   -1    0    0    0  501 -0.00000000000E+00  0.00000000000E+00  0.30232029453E+02  0.30232029453E+02  0.00000000000E+00 0.  1.
          1   -1    0    0  501    0  0.00000000000E+00 -0.00000000000E+00 -0.10598783692E+04  0.10598783692E+04  0.00000000000E+00 0. -1.
         25    2    1    2    0    0  0.44016040540E+02 -0.11903479247E+03 -0.73350713736E+03  0.75484217625E+03  0.12508915556E+03 0.  0.
         23    2    1    2    0    0 -0.44016040540E+02  0.11903479247E+03 -0.29613920239E+03  0.33526822241E+03  0.92734352439E+02 0.  0.
          5    1    3    3  502    0 -0.11183008506E+02 -0.12119590946E+03 -0.53992702120E+03  0.55349089312E+03  0.41800000000E+01 0. -1.
         -5    1    3    3    0  502  0.55199049047E+02  0.21611169901E+01 -0.19358011616E+03  0.20135128312E+03  0.41800000000E+01 0. -1.
        -11    1    4    4    0    0 -0.19752381375E+02  0.78518931518E+02 -0.26873619927E+03  0.28066799599E+03  0.00000000000E+00 0.  1.
         11    1    4    4    0    0 -0.24263659165E+02  0.40515860955E+02 -0.27403003124E+02  0.54600226421E+02  0.00000000000E+00 0. -1.
</event>
<event>
 8    1  0.3719512E-009  0.9966979E+02  0.7561462E-02  0.1280992E+00
         -1   -1    0    0    0  501 -0.00000000000E+00  0.00000000000E+00  0.12654931365E+03  0.12654931365E+03  0.00000000000E+00 0. -1.
          1   -1    0    0  501    0  0.00000000000E+00 -0.00000000000E+00 -0.14977423123E+03  0.14977423123E+03  0.00000000000E+00 0.  1.
         25    2    1    2    0    0 -0.81672410156E+02 -0.12127276079E+02  0.46999768966E+01  0.14995508243E+03  0.12508790332E+03 0.  0.
         23    2    1    2    0    0  0.81672410156E+02  0.12127276079E+02 -0.27924894477E+02  0.12636846245E+03  0.91497186655E+02 0.  0.
          5    1    3    3  502    0 -0.28406429935E+02 -0.24645209762E+02 -0.56344173752E+02  0.67870832775E+02  0.41800000000E+01 0.  1.
         -5    1    3    3    0  502 -0.53265980221E+02  0.12517933683E+02  0.61044150648E+02  0.82084249652E+02  0.41800000000E+01 0.  1.
        -11    1    4    4    0    0  0.43818007257E+02  0.40224759802E+02  0.16357416720E+02  0.61689659935E+02  0.00000000000E+00 0. -1.
         11    1    4    4    0    0  0.37854402899E+02 -0.28097483724E+02 -0.44282311197E+02  0.64678802520E+02  0.00000000000E+00 0.  1.
</event>
<event>
 8    1  0.3719512E-009  0.1571932E+03  0.7561462E-02  0.1191903E+00
         -2   -1    0    0    0  501 -0.00000000000E+00  0.00000000000E+00  0.94392574818E+02  0.94392574818E+02  0.00000000000E+00 0.  1.
          2   -1    0    0  501    0  0.00000000000E+00 -0.00000000000E+00 -0.28110380774E+03  0.28110380774E+03  0.00000000000E+00 0. -1.
         25    2    1    2    0    0  0.10525877033E+03  0.58106352627E+02 -0.88853519034E+02  0.19493018450E+03  0.12508825700E+03 0.  0.
         23    2    1    2    0    0 -0.10525877033E+03 -0.58106352627E+02 -0.97857713891E+02  0.18056619806E+03  0.92586515039E+02 0.  0.
          5    1    3    3  502    0  0.11073109374E+03  0.22674945563E+01 -0.32975023058E+02  0.11563451560E+03  0.41800000000E+01 0.  1.
         -5    1    3    3    0  502 -0.54723234143E+01  0.55838858070E+02 -0.55878495976E+02  0.79295668902E+02  0.41800000000E+01 0.  1.
        -11    1    4    4    0    0 -0.26461173993E+02  0.22378528616E+02 -0.43160321031E+02  0.55351653847E+02  0.00000000000E+00 0. -1.
         11    1    4    4    0    0 -0.78797596333E+02 -0.80484881242E+02 -0.54697392860E+02  0.12521454421E+03  0.00000000000E+00 0.  1.
</event>
<event>
 8    1  0.3719512E-009  0.7058504E+02  0.7561462E-02  0.1358115E+00
         -2   -1    0    0    0  501 -0.00000000000E+00  0.00000000000E+00  0.91265263962E+02  0.91265263962E+02  0.00000000000E+00 0.  1.
          2   -1    0    0  501    0  0.00000000000E+00 -0.00000000000E+00 -0.13877671283E+03  0.13877671283E+03  0.00000000000E+00 0. -1.
         25    2    1    2    0    0 -0.25538370809E+02 -0.18558916431E+02 -0.18482104078E+02  0.13033074713E+03  0.12509146139E+03 0.  0.
         23    2    1    2    0    0  0.25538370809E+02  0.18558916431E+02 -0.29029344795E+02  0.99711229671E+02  0.90016580143E+02 0.  0.
          5    1    3    3  502    0 -0.32270740145E+02  0.25264896926E+02 -0.57762351099E+02  0.70948412883E+02  0.41800000000E+01 0.  1.
         -5    1    3    3    0  502  0.67323693356E+01 -0.43823813357E+02  0.39280247021E+02  0.59382334242E+02  0.41800000000E+01 0.  1.
        -11    1    4    4    0    0  0.89480899868E+01  0.32536844857E+02 -0.55827011462E+02  0.65233195510E+02  0.00000000000E+00 0. -1.
         11    1    4    4    0    0  0.16590280822E+02 -0.13977928426E+02  0.26797666667E+02  0.34478034161E+02  0.00000000000E+00 0.  1.
</event>
<event>
 8    1  0.3719512E-009  0.1064214E+03  0.7561462E-02  0.1267344E+00
          1   -1    0    0  501    0  0.00000000000E+00  0.00000000000E+00  0.61355341527E+03  0.61355341527E+03  0.00000000000E+00 0. -1.
         -1   -1    0    0    0  501 -0.00000000000E+00 -0.00000000000E+00 -0.29617031962E+02  0.29617031962E+02  0.00000000000E+00 0.  1.
         25    2    1    2    0    0  0.25147856615E+02  0.48252902564E+02  0.46187166184E+03  0.48159543475E+03  0.12509186012E+03 0.  0.
         23    2    1    2    0    0 -0.25147856615E+02 -0.48252902564E+02  0.12206472147E+03  0.16157501248E+03  0.90807109476E+02 0.  0.
          5    1    3    3  502    0  0.17326053147E+02 -0.30535080490E+02  0.29199043484E+03  0.29412322196E+03  0.41800000000E+01 0. -1.
         -5    1    3    3    0  502  0.78218034676E+01  0.78787983054E+02  0.16988122699E+03  0.18747221279E+03  0.41800000000E+01 0. -1.
        -11    1    4    4    0    0 -0.43864953444E+02  0.26712816634E+01  0.25489785894E+02  0.50803534043E+02  0.00000000000E+00 0. -1.
         11    1    4    4    0    0  0.18717096829E+02 -0.50924184228E+02  0.96574935578E+02  0.11077147844E+03  0.00000000000E+00 0.  1.
</event>
<event>
 8    1  0.3719512E-009  0.1446953E+03  0.7561462E-02  0.1207147E+00
         -1   -1    0    0    0  501 -0.00000000000E+00  0.00000000000E+00  0.12791694768E+03  0.12791694768E+03  0.00000000000E+00 0.  1.
          1   -1    0    0  501    0  0.00000000000E+00 -0.00000000000E+00 -0.33603012971E+03  0.33603012971E+03  0.00000000000E+00 0. -1.
         25    2    1    2    0    0 -0.91307272012E+02  0.10639794992E+03  0.10839693808E+02  0.18820606564E+03  0.12508590054E+03 0.  0.
         23    2    1    2    0    0  0.91307272012E+02 -0.10639794992E+03 -0.21895287584E+03  0.27574101174E+03  0.91843356043E+02 0.  0.
          5    1    3    3  502    0 -0.86714176291E+02  0.10056950074E+03 -0.38352367762E+02  0.13828213681E+03  0.41800000000E+01 0. -1.
         -5    1    3    3    0  502 -0.45930957212E+01  0.58284491780E+01  0.49192061570E+02  0.49923928828E+02  0.41800000000E+01 0. -1.
        -11    1    4    4    0    0  0.43137753804E+02 -0.84975406867E+02 -0.71473550205E+02  0.11912243262E+03  0.00000000000E+00 0.  1.
         11    1    4    4    0    0  0.48169518208E+02 -0.21422543050E+02 -0.14747932564E+03  0.15661857912E+03  0.00000000000E+00 0. -1.
</event>
<event>
 8    1  0.3719512E-009  0.1048300E+03  0.7561462E-02  0.1270455E+00
          1   -1    0    0  501    0  0.00000000000E+00  0.00000000000E+00  0.13755344442E+03  0.13755344442E+03  0.00000000000E+00 0. -1.
         -1   -1    0    0    0  501 -0.00000000000E+00 -0.00000000000E+00 -0.10109952825E+03  0.10109952825E+03  0.00000000000E+00 0.  1.
         25    2    1    2    0    0 -0.16096040184E+02 -0.29887641174E+02 -0.10993575322E+02  0.13007420038E+03  0.12508431277E+03 0.  0.
         23    2    1    2    0    0  0.16096040184E+02  0.29887641174E+02  0.47447491485E+02  0.10857877229E+03  0.91573641072E+02 0.  0.
          5    1    3    3  502    0  0.44923804956E+02  0.56391047166E+00  0.26308045307E+02  0.52230756213E+02  0.41800000000E+01 0. -1.
         -5    1    3    3    0  502 -0.61019845140E+02 -0.30451551646E+02 -0.37301620629E+02  0.77843444169E+02  0.41800000000E+01 0. -1.
        -11    1    4    4    0    0  0.20181987065E+02 -0.30016848762E+02  0.89771835320E+01  0.37268131636E+02  0.00000000000E+00 0.  1.
         11    1    4    4    0    0 -0.40859468801E+01  0.59904489936E+02  0.38470307953E+02  0.71310640654E+02  0.00000000000E+00 0. -1.
</event>
<event>
 8    1  0.3719512E-009  0.9694435E+02  0.7561462E-02  0.1286856E+00
         -1   -1    0    0    0  501 -0.00000000000E+00  0.00000000000E+00  0.21936942452E+03  0.21936942452E+03  0.00000000000E+00 0.  1.
          1   -1    0    0  501    0  0.00000000000E+00 -0.00000000000E+00 -0.78259401188E+02  0.78259401188E+02  0.00000000000E+00 0. -1.
         25    2    1    2    0    0 -0.48828713410E+02 -0.21660868181E+02  0.13602389725E+03  0.19235839238E+03  0.12508322842E+03 0.  0.
         23    2    1    2    0    0  0.48828713410E+02  0.21660868181E+02  0.50861260828E+01  0.10527043333E+03  0.90567979948E+02 0.  0.
          5    1    3    3  502    0  0.15767209514E+02  0.31463198683E+02  0.90174416421E+02  0.96888779248E+02  0.41800000000E+01 0.  1.
         -5    1    3    3    0  502 -0.64595922924E+02 -0.53124066864E+02  0.45849480827E+02  0.95469613128E+02  0.41800000000E+01 0.  1.
        -11    1    4    4    0    0  0.36839024239E+02  0.38987318178E+02  0.38319533125E+02  0.65920492296E+02  0.00000000000E+00 0.  1.
         11    1    4    4    0    0  0.11989689172E+02 -0.17326449997E+02 -0.33233407043E+02  0.39349941037E+02  0.00000000000E+00 0. -1.
</event>
<event>
 8    1  0.3719512E-009  0.7908190E+02  0.7561462E-02  0.1331677E+00
         -1   -1    0    0    0  501 -0.00000000000E+00  0.00000000000E+00  0.10689344116E+02  0.10689344116E+02  0.00000000000E+00 0.  1.
          1   -1    0    0  501    0  0.00000000000E+00 -0.00000000000E+00 -0.26864758846E+04  0.26864758846E+04  0.00000000000E+00 0. -1.
         25    2    1    2    0    0  0.17459561759E+01  0.35039390454E+02 -0.23961769788E+04  0.23996962259E+04  0.12508819135E+03 0.  0.
         23    2    1    2    0    0 -0.17459561759E+01 -0.35039390454E+02 -0.27960956171E+03  0.29746900285E+03  0.95265384094E+02 0.  0.
          5    1    3    3  502    0  0.31805206761E+02  0.30068331032E+02 -0.29173782812E+03  0.29503238545E+03  0.41800000000E+01 0.  1.
         -5    1    3    3    0  502 -0.30059250585E+02  0.49710594221E+01 -0.21044391507E+04  0.21046638404E+04  0.41800000000E+01 0.  1.
        -11    1    4    4    0    0  0.20404143351E+02 -0.51795326186E+02 -0.25283436221E+03  0.25889051661E+03  0.00000000000E+00 0. -1.
         11    1    4    4    0    0 -0.22150099527E+02  0.16755935732E+02 -0.26775199507E+02  0.38578486232E+02  0.00000000000E+00 0.  1.
</event>
<event>
 8    1  0.3719512E-009  0.2025131E+03  0.7561462E-02  0.1147636E+00
         -2   -1    0    0    0  501 -0.00000000000E+00  0.00000000000E+00  0.25755268561E+02  0.25755268561E+02  0.00000000000E+00 0.  1.
          2   -1    0    0  501    0  0.00000000000E+00 -0.00000000000E+00 -0.17568624344E+04  0.17568624344E+04  0.00000000000E+00 0. -1.
         25    2    1    2    0    0 -0.34241656473E+02  0.17550507552E+03 -0.10605596818E+04  0.10827765261E+04  0.12507455472E+03 0.  0.
         23    2    1    2    0    0  0.34241656473E+02 -0.17550507552E+03 -0.67054748403E+03  0.69984117685E+03  0.90383748029E+02 0.  0.
          5    1    3    3  502    0 -0.68319459762E+02  0.14200343787E+03 -0.93817086406E+03  0.95132253601E+03  0.41800000000E+01 0.  1.
         -5    1    3    3    0  502  0.34077803289E+02  0.33501637647E+02 -0.12238881772E+03  0.13145399006E+03  0.41800000000E+01 0.  1.
        -11    1    4    4    0    0  0.46373876116E+02 -0.34271063488E+02 -0.16446257995E+03  0.17427846219E+03  0.00000000000E+00 0.  1.
         11    1    4    4    0    0 -0.12132219643E+02 -0.14123401203E+03 -0.50608490408E+03  0.52556271467E+03  0.00000000000E+00 0. -1.
</event>
<event>
 8    1  0.3719512E-009  0.8984951E+02  0.7561462E-02  0.1303217E+00
         -1   -1    0    0    0  501 -0.00000000000E+00  0.00000000000E+00  0.49529546235E+03  0.49529546235E+03  0.00000000000E+00 0.  1.
          1   -1    0    0  501    0  0.00000000000E+00 -0.00000000000E+00 -0.33459086667E+02  0.33459086667E+02  0.00000000000E+00 0. -1.
         25    2    1    2    0    0  0.94483752857E+01 -0.63116681058E+02  0.19696697064E+03  0.24190325720E+03  0.12509280993E+03 0.  0.
         23    2    1    2    0    0 -0.94483752857E+01  0.63116681058E+02  0.26486940504E+03  0.28685129182E+03  0.89748953574E+02 0.  0.
          5    1    3    3  502    0 -0.11925614473E+02 -0.35883596392E+02 -0.37053547798E+01  0.38223746868E+02  0.41800000000E+01 0.  1.
         -5    1    3    3    0  502  0.21373989758E+02 -0.27233084666E+02  0.20067232542E+03  0.20367951033E+03  0.41800000000E+01 0.  1.
        -11    1    4    4    0    0  0.80096291880E-01  0.83911084613E+02  0.17442278407E+03  0.19355718571E+03  0.00000000000E+00 0.  1.
         11    1    4    4    0    0 -0.95284715776E+01 -0.20794403555E+02  0.90446620976E+02  0.93294106115E+02  0.00000000000E+00 0. -1.
</event>
<event>
 8    1  0.3719512E-009  0.1836994E+03  0.7561462E-02  0.1164270E+00
          1   -1    0    0  501    0  0.00000000000E+00  0.00000000000E+00  0.10195251597E+04  0.10195251597E+04  0.00000000000E+00 0. -1.
         -1   -1    0    0    0  501 -0.00000000000E+00 -0.00000000000E+00 -0.47322170189E+02  0.47322170189E+02  0.00000000000E+00 0.  1.
         25    2    1    2    0    0  0.33226537600E+02 -0.16594336051E+03  0.71419689606E+03  0.74455737529E+03  0.12508907650E+03 0.  0.
         23    2    1    2    0    0 -0.33226537600E+02  0.16594336051E+03  0.25800609342E+03  0.32228995457E+03  0.93072385148E+02 0.  0.
          5    1    3    3  502    0  0.40451607144E+02 -0.86158658167E+02  0.17346294886E+03  0.19790531555E+03  0.41800000000E+01 0. -1.
         -5    1    3    3    0  502 -0.72250695441E+01 -0.79784702339E+02  0.54073394721E+03  0.54665205974E+03  0.41800000000E+01 0. -1.
        -11    1    4    4    0    0  0.31288671126E+02  0.44659580965E+02  0.57575251793E+02  0.79299235380E+02  0.00000000000E+00 0.  1.
         11    1    4    4    0    0 -0.64515208725E+02  0.12128377954E+03  0.20043084163E+03  0.24299071919E+03  0.00000000000E+00 0. -1.
</event>
<event>
 8    1  0.3719512E-009  0.9514125E+02  0.7561462E-02  0.1290858E+00
          2   -1    0    0  501    0  0.00000000000E+00  0.00000000000E+00  0.77481687414E+03  0.77481687414E+03  0.00000000000E+00 0. -1.
         -2   -1    0    0    0  501 -0.00000000000E+00 -0.00000000000E+00 -0.27036282245E+02  0.27036282245E+02  0.00000000000E+00 0.  1.
         25    2    1    2    0    0 -0.34825626757E+02  0.90098696168E+01  0.65170442944E+03  0.66457551156E+03  0.12509174706E+03 0.  0.
         23    2    1    2    0    0  0.34825626757E+02 -0.90098696168E+01  0.96076162451E+02  0.13727764482E+03  0.91216888496E+02 0.  0.
          5    1    3    3  502    0 -0.32067963047E+02 -0.36492528036E+02  0.55962046226E+03  0.56174068130E+03  0.41800000000E+01 0.  1.
         -5    1    3    3    0  502 -0.27576637100E+01  0.45502397653E+02  0.92083967188E+02  0.10283483026E+03  0.41800000000E+01 0.  1.
        -11    1    4    4    0    0 -0.27298711810E+02 -0.18392430153E+02  0.19628824930E+02  0.38324821220E+02  0.00000000000E+00 0.  1.
         11    1    4    4    0    0  0.62124338567E+02  0.93825605359E+01  0.76447337521E+02  0.98952823601E+02  0.00000000000E+00 0. -1.
</event>
<event>
 8    1  0.3719512E-009  0.1011740E+03  0.7561462E-02  0.1277846E+00
          1   -1    0    0  501    0  0.00000000000E+00  0.00000000000E+00  0.61613554625E+03  0.61613554625E+03  0.00000000000E+00 0. -1.
         -1   -1    0    0    0  501 -0.00000000000E+00 -0.00000000000E+00 -0.25702757898E+02  0.25702757898E+02  0.00000000000E+00 0.  1.
         25    2    1    2    0    0 -0.55209568256E+02  0.22715032409E+02  0.28706557211E+03  0.31877419737E+03  0.12508507943E+03 0.  0.
         23    2    1    2    0    0  0.55209568256E+02 -0.22715032409E+02  0.30336721625E+03  0.32306410678E+03  0.93673262311E+02 0.  0.
          5    1    3    3  502    0 -0.15268045957E+02  0.71470960569E+02  0.12534288812E+03  0.14515344789E+03  0.41800000000E+01 0.  1.
         -5    1    3    3    0  502 -0.39941522300E+02 -0.48755928160E+02  0.16172268398E+03  0.17362074948E+03  0.41800000000E+01 0.  1.
        -11    1    4    4    0    0  0.53994144502E+02 -0.12149890363E+02  0.30690582950E+03  0.31185601751E+03  0.00000000000E+00 0. -1.
         11    1    4    4    0    0  0.12154237545E+01 -0.10565142046E+02 -0.35386132525E+01  0.11208089271E+02  0.00000000000E+00 0.  1.
</event>
<event>
 8    1  0.3719512E-009  0.1890986E+03  0.7561462E-02  0.1159277E+00
          1   -1    0    0  501    0  0.00000000000E+00  0.00000000000E+00  0.11078384327E+03  0.11078384327E+03  0.00000000000E+00 0. -1.
         -1   -1    0    0    0  501 -0.00000000000E+00 -0.00000000000E+00 -0.40018861312E+03  0.40018861312E+03  0.00000000000E+00 0.  1.
         25    2    1    2    0    0 -0.13298347970E+03 -0.11689083157E+03 -0.10977686763E+03  0.24300246406E+03  0.12510461420E+03 0.  0.
         23    2    1    2    0    0  0.13298347970E+03  0.11689083157E+03 -0.17962790221E+03  0.26796999233E+03  0.90518844207E+02 0.  0.
          5    1    3    3  502    0 -0.25229414228E+02 -0.47929501168E+02 -0.10102267877E+03  0.11470315798E+03  0.41800000000E+01 0. -1.
         -5    1    3    3    0  502 -0.10775406548E+03 -0.68961330404E+02 -0.87541888572E+01  0.12829930608E+03  0.41800000000E+01 0. -1.
        -11    1    4    4    0    0  0.83011922502E+02  0.17807769456E+02 -0.10112213629E+03  0.13203704926E+03  0.00000000000E+00 0. -1.
         11    1    4    4    0    0  0.49971557201E+02  0.99083062116E+02 -0.78505765920E+02  0.13593294306E+03  0.00000000000E+00 0.  1.
</event>
<event>
 8    1  0.3719512E-009  0.1148921E+03  0.7561462E-02  0.1251770E+00
         -1   -1    0    0    0  501 -0.00000000000E+00  0.00000000000E+00  0.30828666714E+02  0.30828666714E+02  0.00000000000E+00 0.  1.
          1   -1    0    0  501    0  0.00000000000E+00 -0.00000000000E+00 -0.47704361821E+03  0.47704361821E+03  0.00000000000E+00 0. -1.
         25    2    1    2    0    0  0.33843398033E+02 -0.16475760690E+02 -0.32749380877E+03  0.35258689606E+03  0.12509395754E+03 0.  0.
         23    2    1    2    0    0 -0.33843398033E+02  0.16475760690E+02 -0.11872114273E+03  0.15528538886E+03  0.92747053767E+02 0.  0.
          5    1    3    3  502    0 -0.45405611475E+02  0.90446715462E+01 -0.13633449370E+03  0.14404180716E+03  0.41800000000E+01 0. -1.
         -5    1    3    3    0  502  0.79249009508E+02 -0.25520432236E+02 -0.19115931506E+03  0.20854508890E+03  0.41800000000E+01 0. -1.
        -11    1    4    4    0    0  0.24288955474E+02  0.31612151895E+02 -0.51664584309E+02  0.65257266088E+02  0.00000000000E+00 0. -1.
         11    1    4    4    0    0 -0.58132353507E+02 -0.15136391206E+02 -0.67056558419E+02  0.90028122773E+02  0.00000000000E+00 0.  1.
</event>
<event>
 8    1  0.3719512E-009  0.1079563E+03  0.7561462E-02  0.1264402E+00
         -1   -1    0    0    0  501 -0.00000000000E+00  0.00000000000E+00  0.39182988035E+02  0.39182988035E+02  0.00000000000E+00 0.  1.
          1   -1    0    0  501    0  0.00000000000E+00 -0.00000000000E+00 -0.68255158116E+03  0.68255158116E+03  0.00000000000E+00 0. -1.
         25    2    1    2    0    0 -0.28659218773E+02  0.76391779287E+02 -0.55007881543E+03  0.56999302462E+03  0.12509312600E+03 0.  0.
         23    2    1    2    0    0  0.28659218773E+02 -0.76391779287E+02 -0.93289777700E+02  0.15174154457E+03  0.87552606834E+02 0.  0.
          5    1    3    3  502    0 -0.62430479144E+02  0.59035524193E+02 -0.19841826024E+03  0.21626381168E+03  0.41800000000E+01 0. -1.
         -5    1    3    3    0  502  0.33771260371E+02  0.17356255093E+02 -0.35166055518E+03  0.35372921294E+03  0.41800000000E+01 0. -1.
        -11    1    4    4    0    0 -0.10950531901E+02 -0.13806340479E+02 -0.72786658493E+02  0.74889430769E+02  0.00000000000E+00 0. -1.
         11    1    4    4    0    0  0.39609750675E+02 -0.62585438808E+02 -0.20503119207E+02  0.76852113806E+02  0.00000000000E+00 0.  1.
</event>
<event>
 8    1  0.3719512E-009  0.1091494E+03  0.7561462E-02  0.1262153E+00
          2   -1    0    0  501    0  0.00000000000E+00  0.00000000000E+00  0.59579189969E+03  0.59579189969E+03  0.00000000000E+00 0. -1.
         -2   -1    0    0    0  501 -0.00000000000E+00 -0.00000000000E+00 -0.24375992041E+02  0.24375992041E+02  0.00000000000E+00 0.  1.
         25    2    1    2    0    0  0.25810604515E+02 -0.45546337633E+02  0.30157098398E+03  0.33065379088E+03  0.12508483069E+03 0.  0.
         23    2    1    2    0    0 -0.25810604515E+02  0.45546337633E+02  0.26984492366E+03  0.28951410084E+03  0.90892659675E+02 0.  0.
          5    1    3    3  502    0  0.75767083910E+02 -0.28362124124E+02  0.20630346812E+03  0.22163856715E+03  0.41800000000E+01 0. -1.
         -5    1    3    3    0  502 -0.49956479396E+02 -0.17184213509E+02  0.95267515858E+02  0.10901522373E+03  0.41800000000E+01 0. -1.
        -11    1    4    4    0    0  0.15930822127E+02 -0.68186837767E+01  0.77204469083E+01  0.18970789191E+02  0.00000000000E+00 0.  1.
         11    1    4    4    0    0 -0.41741426642E+02  0.52365021410E+02  0.26212447676E+03  0.27054331165E+03  0.00000000000E+00 0. -1.
</event>
<event>
 8    1  0.3719512E-009  0.1861535E+03  0.7561462E-02  0.1161977E+00
          2   -1    0    0  501    0  0.00000000000E+00  0.00000000000E+00  0.56712794429E+03  0.56712794429E+03  0.00000000000E+00 0. -1.
         -2   -1    0    0    0  501 -0.00000000000E+00 -0.00000000000E+00 -0.66470350986E+02  0.66470350986E+02  0.00000000000E+00 0.  1.
         25    2    1    2    0    0  0.93093139091E+02 -0.12097888875E+03  0.34304137271E+03  0.39576461075E+03  0.12510003859E+03 0.  0.
         23    2    1    2    0    0 -0.93093139091E+02  0.12097888875E+03  0.15761622059E+03  0.23783368453E+03  0.91759274373E+02 0.  0.
          5    1    3    3  502    0  0.12428209041E+03 -0.99552904796E+02  0.27651581908E+03  0.31911641990E+03  0.41800000000E+01 0.  1.
         -5    1    3    3    0  502 -0.31188951320E+02 -0.21425983959E+02  0.66525553634E+02  0.76648190842E+02  0.41800000000E+01 0.  1.
        -11    1    4    4    0    0 -0.99738488791E+02  0.66074961835E+02  0.85966545572E+02  0.14732248194E+03  0.00000000000E+00 0. -1.
         11    1    4    4    0    0  0.66453496993E+01  0.54903926919E+02  0.71649675013E+02  0.90511202585E+02  0.00000000000E+00 0.  1.
</event>
<event>
 8    1  0.3719512E-009  0.2458095E+03  0.7561462E-02  0.1115982E+00
         -1   -1    0    0    0  501 -0.00000000000E+00  0.00000000000E+00  0.86622471636E+02  0.86622471636E+02  0.00000000000E+00 0.  1.
          1   -1    0    0  501    0  0.00000000000E+00 -0.00000000000E+00 -0.84553132618E+03  0.84553132618E+03  0.00000000000E+00 0. -1.
         25    2    1    2    0    0  0.23015226243E+03  0.51681377377E+02 -0.51921596375E+03  0.58384396613E+03  0.12509009196E+03 0.  0.
         23    2    1    2    0    0 -0.23015226243E+03 -0.51681377377E+02 -0.23969289080E+03  0.34830983168E+03  0.90697454643E+02 0.  0.
          5    1    3    3  502    0  0.14125785809E+03  0.64359583539E+02 -0.43006494930E+03  0.45724093373E+03  0.41800000000E+01 0.  1.
         -5    1    3    3    0  502  0.88894404347E+02 -0.12678206162E+02 -0.89151014451E+02  0.12660303240E+03  0.41800000000E+01 0.  1.
        -11    1    4    4    0    0 -0.13391155506E+03  0.63462689480E+01 -0.16830299741E+03  0.21517081272E+03  0.00000000000E+00 0. -1.
         11    1    4    4    0    0 -0.96240707374E+02 -0.58027646325E+02 -0.71389893386E+02  0.13313901897E+03  0.00000000000E+00 0.  1.
</event>
<event>
 8    1  0.3719512E-009  0.9437049E+02  0.7561462E-02  0.1292600E+00
          2   -1    0    0  501    0  0.00000000000E+00  0.00000000000E+00  0.30842934818E+03  0.30842934818E+03  0.00000000000E+00 0. -1.
         -2   -1    0    0    0  501 -0.00000000000E+00 -0.00000000000E+00 -0.72369717848E+02  0.72369717848E+02  0.00000000000E+00 0.  1.
         25    2    1    2    0    0  0.64258502652E+02  0.24765463728E+02  0.33064344824E+02  0.14656768179E+03  0.12508537521E+03 0.  0.
         23    2    1    2    0    0 -0.64258502652E+02 -0.24765463728E+02  0.20299528550E+03  0.23423138423E+03  0.94418070650E+02 0.  0.
          5    1    3    3  502    0  0.57270628382E+01  0.25836537053E+02  0.71538424186E+02  0.76390735241E+02  0.41800000000E+01 0. -1.
         -5    1    3    3    0  502  0.58531439813E+02 -0.10710733251E+01 -0.38474079362E+02  0.70176946553E+02  0.41800000000E+01 0. -1.
        -11    1    4    4    0    0 -0.83447898063E+01 -0.43497628005E+02  0.14464301897E+03  0.15127221191E+03  0.00000000000E+00 0. -1.
         11    1    4    4    0    0 -0.55913712845E+02  0.18732164277E+02  0.58352266530E+02  0.82959172318E+02  0.00000000000E+00 0.  1.
</event>
<event>
 8    1  0.3719512E-009  0.1302636E+03  0.7561462E-02  0.1227065E+00
         -1   -1    0    0    0  501 -0.00000000000E+00  0.00000000000E+00  0.21232674629E+02  0.21232674629E+02  0.00000000000E+00 0.  1.
          1   -1    0    0  501    0  0.00000000000E+00 -0.00000000000E+00 -0.87519534590E+03  0.87519534590E+03  0.00000000000E+00 0. -1.
         25    2    1    2    0    0  0.57874275424E+02  0.36901165005E+02 -0.36230572112E+03  0.38938952291E+03  0.12509051628E+03 0.  0.
         23    2    1    2    0    0 -0.57874275424E+02 -0.36901165005E+02 -0.49165695015E+03  0.50703849761E+03  0.10320055087E+03 0.  0.
          5    1    3    3  502    0  0.68491247765E+02  0.75699913172E+02 -0.26502176338E+03  0.28403439112E+03  0.41800000000E+01 0.  1.
         -5    1    3    3    0  502 -0.10616972341E+02 -0.38798748167E+02 -0.97283957743E+02  0.10535513179E+03  0.41800000000E+01 0.  1.
        -11    1    4    4    0    0  0.16198966830E+02 -0.40636967903E+02 -0.26413411634E+03  0.26773233107E+03  0.00000000000E+00 0. -1.
         11    1    4    4    0    0 -0.74073242254E+02  0.37358028982E+01 -0.22752283380E+03  0.23930616654E+03  0.00000000000E+00 0.  1.
</event>
<event>
 8    1  0.3719512E-009  0.1103768E+03  0.7561462E-02  0.1259874E+00
          1   -1    0    0  501    0  0.00000000000E+00  0.00000000000E+00  0.31150899074E+03  0.31150899074E+03  0.00000000000E+00 0. -1.
         -1   -1    0    0    0  501 -0.00000000000E+00 -0.00000000000E+00 -0.55196325365E+02  0.55196325365E+02  0.00000000000E+00 0.  1.
         25    2    1    2    0    0 -0.48898349205E+02 -0.46042969541E+02  0.11361632022E+03  0.18184281979E+03  0.12508852580E+03 0.  0.
         23    2    1    2    0    0  0.48898349205E+02  0.46042969541E+02  0.14269634516E+03  0.18486249632E+03  0.96441132444E+02 0.  0.
          5    1    3    3  502    0  0.20544226515E+02 -0.22212792408E+02  0.10313524466E+03  0.10756311859E+03  0.41800000000E+01 0.  1.
         -5    1    3    3    0  502 -0.69442575719E+02 -0.23830177133E+02  0.10481075563E+02  0.74279701195E+02  0.41800000000E+01 0.  1.
        -11    1    4    4    0    0  0.42490143971E+02 -0.22329875484E+02  0.47958048263E+02  0.67852855998E+02  0.00000000000E+00 0.  1.
         11    1    4    4    0    0  0.64082052334E+01  0.68372845025E+02  0.94738296893E+02  0.11700964033E+03  0.00000000000E+00 0. -1.
</event>
<event>
 8    1  0.3719512E-009  0.3897079E+03  0.7561462E-02  0.1047403E+00
          2   -1    0    0  501    0  0.00000000000E+00  0.00000000000E+00  0.20762989667E+04  0.20762989667E+04  0.00000000000E+00 0. -1.
         -2   -1    0    0    0  501 -0.00000000000E+00 -0.00000000000E+00 -0.99850297473E+02  0.99850297473E+02  0.00000000000E+00 0.  1.
         25    2    1    2    0    0 -0.11592603057E+03 -0.37046445753E+03  0.49176707680E+03  0.63887815486E+03  0.12509068737E+03 0.  0.
         23    2    1    2    0    0  0.11592603057E+03  0.37046445753E+03  0.14846815924E+04  0.15372711093E+04  0.90775953845E+02 0.  0.
          5    1    3    3  502    0 -0.67754002513E+02 -0.25867152049E+03  0.41876901415E+03  0.49687676539E+03  0.41800000000E+01 0.  1.
         -5    1    3    3    0  502 -0.48172028059E+02 -0.11179293704E+03  0.72998062652E+02  0.14200138947E+03  0.41800000000E+01 0.  1.
        -11    1    4    4    0    0  0.73128394072E+02  0.16768742035E+03  0.54075430003E+03  0.57086079386E+03  0.00000000000E+00 0.  1.
         11    1    4    4    0    0  0.42797636499E+02  0.20277703718E+03  0.94392729237E+03  0.96641031544E+03  0.00000000000E+00 0. -1.
</event>
<event>
 8    1  0.3719512E-009  0.8038236E+02  0.7561462E-02  0.1327970E+00
         -1   -1    0    0    0  501 -0.00000000000E+00  0.00000000000E+00  0.72983058699E+02  0.72983058699E+02  0.00000000000E+00 0.  1.
          1   -1    0    0  501    0  0.00000000000E+00 -0.00000000000E+00 -0.17271998247E+03  0.17271998247E+03  0.00000000000E+00 0. -1.
         25    2    1    2    0    0 -0.14485002158E+02 -0.15279050996E+02 -0.34631028244E+02  0.13149144805E+03  0.12508968025E+03 0.  0.
         23    2    1    2    0    0  0.14485002158E+02  0.15279050996E+02 -0.65105895530E+02  0.11421159312E+03  0.91445315268E+02 0.  0.
          5    1    3    3  502    0 -0.39171675395E+02  0.23672999553E+02  0.27837016266E+02  0.53732698943E+02  0.41800000000E+01 0. -1.
         -5    1    3    3    0  502  0.24686673237E+02 -0.38952050549E+02 -0.62468044510E+02  0.77758749105E+02  0.41800000000E+01 0. -1.
        -11    1    4    4    0    0 -0.17143802427E+02 -0.16406769670E+02 -0.65260824051E+02  0.69441106043E+02  0.00000000000E+00 0. -1.
         11    1    4    4    0    0  0.31628804585E+02  0.31685820665E+02  0.15492852069E+00  0.44770487082E+02  0.00000000000E+00 0.  1.
</event>
<event>
 8    1  0.3719512E-009  0.1093515E+03  0.7561462E-02  0.1261775E+00
          2   -1    0    0  501    0  0.00000000000E+00  0.00000000000E+00  0.65985413030E+03  0.65985413030E+03  0.00000000000E+00 0.  1.
         -2   -1    0    0    0  501 -0.00000000000E+00 -0.00000000000E+00 -0.26788364872E+02  0.26788364872E+02  0.00000000000E+00 0. -1.
         25    2    1    2    0    0  0.52179404795E+02 -0.26123725096E+02  0.22201602796E+03  0.26142805777E+03  0.12509345875E+03 0.  0.
         23    2    1    2    0    0 -0.52179404795E+02  0.26123725096E+02  0.41104973747E+03  0.42521443740E+03  0.91871060736E+02 0.  0.
          5    1    3    3  502    0 -0.25779666518E+02  0.23355598904E+02  0.22766102135E+02  0.41783286280E+02  0.41800000000E+01 0. -1.
         -5    1    3    3    0  502  0.77959071313E+02 -0.49479324001E+02  0.19924992582E+03  0.21964477149E+03  0.41800000000E+01 0. -1.
        -11    1    4    4    0    0  0.90634834457E+01  0.28541651312E+02  0.44898995495E+02  0.53969365275E+02  0.00000000000E+00 0. -1.
         11    1    4    4    0    0 -0.61242888241E+02 -0.24179262153E+01  0.36615074197E+03  0.37124507212E+03  0.00000000000E+00 0.  1.
</event>
<event>
 8    1  0.3719512E-009  0.9335053E+02  0.7561462E-02  0.1294935E+00
          3   -1    0    0  501    0  0.00000000000E+00  0.00000000000E+00  0.95967988053E+02  0.95967988053E+02  0.00000000000E+00 0. -1.
         -3   -1    0    0    0  501 -0.00000000000E+00 -0.00000000000E+00 -0.12879705584E+03  0.12879705584E+03  0.00000000000E+00 0.  1.
         25    2    1    2    0    0  0.17183657246E+02 -0.14707368856E+02 -0.31822098412E+02  0.13103951740E+03  0.12508846629E+03 0.  0.
         23    2    1    2    0    0 -0.17183657246E+02  0.14707368856E+02 -0.10069693743E+01  0.93725526488E+02  0.90949851859E+02 0.  0.
          5    1    3    3  502    0 -0.24830690531E+02 -0.48557631760E+02  0.17896816349E+02  0.57551500674E+02  0.41800000000E+01 0. -1.
         -5    1    3    3    0  502  0.42014347778E+02  0.33850262905E+02 -0.49718914761E+02  0.73488016730E+02  0.41800000000E+01 0. -1.
        -11    1    4    4    0    0  0.29569496255E+02  0.81839095668E+01 -0.26085493322E+02  0.40271384957E+02  0.00000000000E+00 0.  1.
         11    1    4    4    0    0 -0.46753153501E+02  0.65234592887E+01  0.25078523947E+02  0.53454141531E+02  0.00000000000E+00 0. -1.
</event>
<event>
 8    1  0.3719512E-009  0.1169635E+03  0.7561462E-02  0.1248192E+00
         -1   -1    0    0    0  501 -0.00000000000E+00  0.00000000000E+00  0.15592280559E+03  0.15592280559E+03  0.00000000000E+00 0.  1.
          1   -1    0    0  501    0  0.00000000000E+00 -0.00000000000E+00 -0.14699418955E+03  0.14699418955E+03  0.00000000000E+00 0. -1.
         25    2    1    2    0    0 -0.69567033544E+02  0.59798989487E+02 -0.48470717471E+02  0.16251631248E+03  0.12508657030E+03 0.  0.
         23    2    1    2    0    0  0.69567033544E+02 -0.59798989487E+02  0.57399333508E+02  0.14040068266E+03  0.89454887537E+02 0.  0.
          5    1    3    3  502    0 -0.88304952405E+02  0.76195530809E+02 -0.10854361195E+02  0.11721268315E+03  0.41800000000E+01 0. -1.
         -5    1    3    3    0  502  0.18737918862E+02 -0.16396541322E+02 -0.37616356276E+02  0.45303629326E+02  0.41800000000E+01 0. -1.
        -11    1    4    4    0    0  0.13381133510E+02 -0.82500541258E+01 -0.24112242076E+02  0.28783994598E+02  0.00000000000E+00 0. -1.
         11    1    4    4    0    0  0.56185900034E+02 -0.51548935361E+02  0.81511575584E+02  0.11161668806E+03  0.00000000000E+00 0.  1.
</event>
<event>
 8    1  0.3719512E-009  0.1119541E+03  0.7561462E-02  0.1256993E+00
          3   -1    0    0  501    0  0.00000000000E+00  0.00000000000E+00  0.85112453314E+03  0.85112453314E+03  0.00000000000E+00 0. -1.
         -3   -1    0    0    0  501 -0.00000000000E+00 -0.00000000000E+00 -0.26199709051E+02  0.26199709051E+02  0.00000000000E+00 0.  1.
         25    2    1    2    0    0  0.55578613499E+02 -0.80753217065E+02  0.32656116849E+03  0.36317991072E+03  0.12508951371E+03 0.  0.
         23    2    1    2    0    0 -0.55578613499E+02  0.80753217065E+02  0.49836365560E+03  0.51414433147E+03  0.79799724407E+02 0.  0.
          5    1    3    3  502    0  0.40873875175E+02 -0.34554507852E+02  0.27752569394E+02  0.60434801172E+02  0.41800000000E+01 0.  1.
         -5    1    3    3    0  502  0.14704738324E+02 -0.46198709212E+02  0.29880859910E+03  0.30274510955E+03  0.41800000000E+01 0.  1.
        -11    1    4    4    0    0  0.16476510598E+02  0.27130296850E+02  0.76476233428E+02  0.82801827806E+02  0.00000000000E+00 0.  1.
         11    1    4    4    0    0 -0.72055124097E+02  0.53622920215E+02  0.42188742217E+03  0.43134250366E+03  0.00000000000E+00 0. -1.
</event>
<event>
 8    1  0.3719512E-009  0.1266281E+03  0.7561462E-02  0.1232547E+00
          3   -1    0    0  501    0  0.00000000000E+00  0.00000000000E+00  0.93609273002E+02  0.93609273002E+02  0.00000000000E+00 0. -1.
         -3   -1    0    0    0  501 -0.00000000000E+00 -0.00000000000E+00 -0.33253498118E+03  0.33253498118E+03  0.00000000000E+00 0.  1.
         25    2    1    2    0    0  0.97802380629E+02  0.45566600546E+02 -0.23240616946E+03  0.28512982593E+03  0.12507905217E+03 0.  0.
         23    2    1    2    0    0 -0.97802380629E+02 -0.45566600546E+02 -0.65195387183E+01  0.14101442825E+03  0.90559062755E+02 0.  0.
          5    1    3    3  502    0  0.75296866337E+02 -0.71950400136E+01 -0.21027615906E+03  0.22350597788E+03  0.41800000000E+01 0. -1.
         -5    1    3    3    0  502  0.22505514292E+02  0.52761640560E+02 -0.22130010401E+02  0.61623848050E+02  0.41800000000E+01 0. -1.
        -11    1    4    4    0    0 -0.72089482621E+02 -0.53941194766E+01 -0.40113537195E+02  0.82674578292E+02  0.00000000000E+00 0.  1.
         11    1    4    4    0    0 -0.25712898008E+02 -0.40172481070E+02  0.33593998477E+02  0.58339849957E+02  0.00000000000E+00 0. -1.
</event>
<event>
 8    1  0.3719512E-009  0.1100166E+03  0.7561462E-02  0.1260539E+00
          2   -1    0    0  501    0  0.00000000000E+00  0.00000000000E+00  0.76653358161E+03  0.76653358161E+03  0.00000000000E+00 0.  1.
         -2   -1    0    0    0  501 -0.00000000000E+00 -0.00000000000E+00 -0.18586456351E+02  0.18586456351E+02  0.00000000000E+00 0. -1.
         25    2    1    2    0    0  0.96249219747E+01 -0.49163647592E+02  0.42863432142E+03  0.44931422732E+03  0.12508473128E+03 0.  0.
         23    2    1    2    0    0 -0.96249219747E+01  0.49163647592E+02  0.31931280384E+03  0.33580581065E+03  0.91077837044E+02 0.  0.
          5    1    3    3  502    0 -0.20903840255E+02 -0.84538685965E+02  0.29902146906E+03  0.31147242466E+03  0.41800000000E+01 0. -1.
         -5    1    3    3    0  502  0.30528762229E+02  0.35375038374E+02  0.12961285236E+03  0.13784180266E+03  0.41800000000E+01 0. -1.
        -11    1    4    4    0    0  0.25391528540E+02  0.43634116758E+02  0.27221769432E+03  0.27685942095E+03  0.00000000000E+00 0.  1.
         11    1    4    4    0    0 -0.35016450515E+02  0.55295308339E+01  0.47095109523E+02  0.58946389702E+02  0.00000000000E+00 0. -1.
</event>
<event>
 8    1  0.3719512E-009  0.8195089E+02  0.7561462E-02  0.1323605E+00
          1   -1    0    0  501    0  0.00000000000E+00  0.00000000000E+00  0.97976798525E+03  0.97976798525E+03  0.00000000000E+00 0. -1.
         -1   -1    0    0    0  501 -0.00000000000E+00 -0.00000000000E+00 -0.23850134959E+02  0.23850134959E+02  0.00000000000E+00 0.  1.
         25    2    1    2    0    0  0.26477087479E+02 -0.10374028416E+02  0.85665033473E+03  0.86620213219E+03  0.12509069188E+03 0.  0.
         23    2    1    2    0    0 -0.26477087479E+02  0.10374028416E+02  0.99267515564E+02  0.13741598802E+03  0.90666738609E+02 0.  0.
          5    1    3    3  502    0 -0.19908978020E+02 -0.45259319916E+02  0.17009224007E+03  0.17718243699E+03  0.41800000000E+01 0. -1.
         -5    1    3    3    0  502  0.46386065500E+02  0.34885291500E+02  0.68655809465E+03  0.68901969520E+03  0.41800000000E+01 0. -1.
        -11    1    4    4    0    0 -0.24245896770E+02  0.28733253348E+02  0.11951518983E+01  0.37615046806E+02  0.00000000000E+00 0.  1.
         11    1    4    4    0    0 -0.22311907089E+01 -0.18359224932E+02  0.98072363665E+02  0.99800941213E+02  0.00000000000E+00 0. -1.
</event>
<event>
 8    1  0.3719512E-009  0.1136496E+03  0.7561462E-02  0.1253957E+00
          1   -1    0    0  501    0  0.00000000000E+00  0.00000000000E+00  0.25333747907E+03  0.25333747907E+03  0.00000000000E+00 0. -1.
         -1   -1    0    0    0  501 -0.00000000000E+00 -0.00000000000E+00 -0.76298166862E+02  0.76298166862E+02  0.00000000000E+00 0.  1.
         25    2    1    2    0    0  0.39631804722E+02  0.23749625840E+02  0.95360049072E+01  0.13368793086E+03  0.12508718078E+03 0.  0.
         23    2    1    2    0    0 -0.39631804722E+02 -0.23749625840E+02  0.16750330730E+03  0.19594771507E+03  0.90572757555E+02 0.  0.
          5    1    3    3  502    0  0.21478241811E+02  0.75138385567E+02  0.34988458939E+00  0.78260377434E+02  0.41800000000E+01 0.  1.
         -5    1    3    3    0  502  0.18153562911E+02 -0.51388759727E+02  0.91861203178E+01  0.55427553429E+02  0.41800000000E+01 0.  1.
        -11    1    4    4    0    0  0.54972042714E+01  0.26368984330E+02  0.19349319368E+02  0.33165324503E+02  0.00000000000E+00 0.  1.
         11    1    4    4    0    0 -0.45129008994E+02 -0.50118610170E+02  0.14815398793E+03  0.16278239057E+03  0.00000000000E+00 0. -1.
</event>
<event>
 8    1  0.3719512E-009  0.9345730E+02  0.7561462E-02  0.1294689E+00
          2   -1    0    0  501    0  0.00000000000E+00  0.00000000000E+00  0.39071084739E+03  0.39071084739E+03  0.00000000000E+00 0. -1.
         -2   -1    0    0    0  501 -0.00000000000E+00 -0.00000000000E+00 -0.40873742606E+02  0.40873742606E+02  0.00000000000E+00 0.  1.
         25    2    1    2    0    0  0.28490380682E+02  0.55834153701E+02  0.21305879240E+03  0.25488647614E+03  0.12507562587E+03 0.  0.
         23    2    1    2    0    0 -0.28490380682E+02 -0.55834153701E+02  0.13677831239E+03  0.17669811386E+03  0.92653991779E+02 0.  0.
          5    1    3    3  502    0  0.31049198361E+02 -0.25298925556E+02  0.13972859990E+03  0.14541541316E+03  0.41800000000E+01 0.  1.
         -5    1    3    3    0  502 -0.25588176792E+01  0.81133079258E+02  0.73330192497E+02  0.10947106298E+03  0.41800000000E+01 0.  1.
        -11    1    4    4    0    0 -0.16763627637E+02 -0.13761521971E+02 -0.97642280598E+01  0.23785265358E+02  0.00000000000E+00 0.  1.
         11    1    4    4    0    0 -0.11726753045E+02 -0.42072631730E+02  0.14654254045E+03  0.15291284851E+03  0.00000000000E+00 0. -1.
</event>
<event>
 8    1  0.3719512E-009  0.9022386E+02  0.7561462E-02  0.1302310E+00
          2   -1    0    0  501    0  0.00000000000E+00  0.00000000000E+00  0.49696451938E+02  0.49696451938E+02  0.00000000000E+00 0. -1.
         -2   -1    0    0    0  501 -0.00000000000E+00 -0.00000000000E+00 -0.30194530935E+03  0.30194530935E+03  0.00000000000E+00 0.  1.
         25    2    1    2    0    0 -0.43872951622E+02  0.18666691908E+02 -0.10093180728E+03  0.16765252841E+03  0.12508740660E+03 0.  0.
         23    2    1    2    0    0  0.43872951622E+02 -0.18666691908E+02 -0.15131705012E+03  0.18398923287E+03  0.93176750771E+02 0.  0.
          5    1    3    3  502    0 -0.56750480875E+02  0.25294550534E+02  0.32771092029E+01  0.62358986609E+02  0.41800000000E+01 0.  1.
         -5    1    3    3    0  502  0.12877529252E+02 -0.66278586263E+01 -0.10420891649E+03  0.10529354180E+03  0.41800000000E+01 0.  1.
        -11    1    4    4    0    0 -0.63359714221E+00  0.34079988408E+02 -0.35841273788E+02  0.49461540231E+02  0.00000000000E+00 0.  1.
         11    1    4    4    0    0  0.44506548765E+02 -0.52746680316E+02 -0.11547577634E+03  0.13452769264E+03  0.00000000000E+00 0. -1.
</event>
<event>
 8    1  0.3719512E-009  0.7917975E+02  0.7561462E-02  0.1331395E+00
         -2   -1    0    0    0  501 -0.00000000000E+00  0.00000000000E+00  0.29682986487E+03  0.29682986487E+03  0.00000000000E+00 0.  1.
          2   -1    0    0  501    0  0.00000000000E+00 -0.00000000000E+00 -0.46223594407E+02  0.46223594407E+02  0.00000000000E+00 0. -1.
         25    2    1    2    0    0 -0.20011003391E+02  0.35464662169E+02  0.11045395516E+03  0.17176252245E+03  0.12507639820E+03 0.  0.
         23    2    1    2    0    0  0.20011003391E+02 -0.35464662169E+02  0.14015231530E+03  0.17129093683E+03  0.89664547266E+02 0.  0.
          5    1    3    3  502    0  0.28575988097E+00 -0.15147614284E+02  0.11575391046E+03  0.11681597521E+03  0.41800000000E+01 0. -1.
         -5    1    3    3    0  502 -0.20296763272E+02  0.50612276453E+02 -0.52999552982E+01  0.54946547237E+02  0.41800000000E+01 0. -1.
        -11    1    4    4    0    0 -0.23833768467E+02 -0.37078946327E+02  0.31681077471E+02  0.54282478295E+02  0.00000000000E+00 0. -1.
         11    1    4    4    0    0  0.43844771857E+02  0.16142841577E+01  0.10847123783E+03  0.11700845854E+03  0.00000000000E+00 0.  1.
</event>
<event>
 8    1  0.3719512E-009  0.3300554E+03  0.7561462E-02  0.1071112E+00
          1   -1    0    0  501    0  0.00000000000E+00  0.00000000000E+00  0.17756389969E+03  0.17756389969E+03  0.00000000000E+00 0. -1.
         -1   -1    0    0    0  501 -0.00000000000E+00 -0.00000000000E+00 -0.62432541467E+03  0.62432541467E+03  0.00000000000E+00 0.  1.
         25    2    1    2    0    0 -0.16386443649E+03  0.26708225435E+03 -0.19580696204E+03  0.39008945319E+03  0.12507969845E+03 0.  0.
         23    2    1    2    0    0  0.16386443649E+03 -0.26708225435E+03 -0.25095455294E+03  0.41179986117E+03  0.91741233249E+02 0.  0.
          5    1    3    3  502    0 -0.17512705272E+03  0.26943113751E+03 -0.17495192822E+03  0.36590746377E+03  0.41800000000E+01 0. -1.
         -5    1    3    3    0  502  0.11262616228E+02 -0.23488831542E+01 -0.20855033823E+02  0.24181989417E+02  0.41800000000E+01 0. -1.
        -11    1    4    4    0    0  0.57123393801E+02 -0.25840248102E+02 -0.48349669498E+02  0.79173803002E+02  0.00000000000E+00 0. -1.
         11    1    4    4    0    0  0.10674104269E+03 -0.24124200625E+03 -0.20260488344E+03  0.33262605816E+03  0.00000000000E+00 0.  1.
</event>
<event>
 8    1  0.3719512E-009  0.2219672E+03  0.7561462E-02  0.1132425E+00
         -1   -1    0    0    0  501 -0.00000000000E+00  0.00000000000E+00  0.26459214684E+03  0.26459214684E+03  0.00000000000E+00 0.  1.
          1   -1    0    0  501    0  0.00000000000E+00 -0.00000000000E+00 -0.19676722535E+03  0.19676722535E+03  0.00000000000E+00 0. -1.
         25    2    1    2    0    0 -0.18480035834E+03  0.77795447345E+02  0.23298322273E+02  0.23747438510E+03  0.12509183701E+03 0.  0.
         23    2    1    2    0    0  0.18480035834E+03 -0.77795447345E+02  0.44526599214E+02  0.22388498708E+03  0.89098626993E+02 0.  0.
          5    1    3    3  502    0 -0.41541559873E+01 -0.26444360481E+02 -0.28211834223E+01  0.27239542748E+02  0.41800000000E+01 0.  1.
         -5    1    3    3    0  502 -0.18064620236E+03  0.10423980783E+03  0.26119505695E+02  0.21023484235E+03  0.41800000000E+01 0.  1.
        -11    1    4    4    0    0  0.11827936672E+02  0.88526332933E+01  0.25525380676E+02  0.29492613665E+02  0.00000000000E+00 0.  1.
         11    1    4    4    0    0  0.17297242167E+03 -0.86648080638E+02  0.19001218538E+02  0.19439237342E+03  0.00000000000E+00 0. -1.
</event>
<event>
 8    1  0.3719512E-009  0.2787575E+03  0.7561462E-02  0.1096370E+00
         -1   -1    0    0    0  501 -0.00000000000E+00  0.00000000000E+00  0.46063981386E+02  0.46063981386E+02  0.00000000000E+00 0.  1.
          1   -1    0    0  501    0  0.00000000000E+00 -0.00000000000E+00 -0.17305001442E+04  0.17305001442E+04  0.00000000000E+00 0. -1.
         25    2    1    2    0    0 -0.25778643714E+03 -0.27445442802E+02 -0.79459182721E+03  0.84512204509E+03  0.12509196505E+03 0.  0.
         23    2    1    2    0    0  0.25778643714E+03  0.27445442802E+02 -0.88984433556E+03  0.93144208046E+03  0.92489503255E+02 0.  0.
          5    1    3    3  502    0 -0.11036183821E+03  0.44233114180E+02 -0.25957454861E+03  0.28553935352E+03  0.41800000000E+01 0. -1.
         -5    1    3    3    0  502 -0.14742459893E+03 -0.71678556983E+02 -0.53501727860E+03  0.55958269156E+03  0.41800000000E+01 0. -1.
        -11    1    4    4    0    0  0.90044136381E+02  0.53610359262E+02 -0.30831237507E+03  0.32563559040E+03  0.00000000000E+00 0.  1.
         11    1    4    4    0    0  0.16774230076E+03 -0.26164916460E+02 -0.58153196050E+03  0.60580649006E+03  0.00000000000E+00 0. -1.
</event>
<event>
 8    1  0.3719512E-009  0.8618424E+02  0.7561462E-02  0.1312364E+00
         -2   -1    0    0    0  501 -0.00000000000E+00  0.00000000000E+00  0.33064138345E+03  0.33064138345E+03  0.00000000000E+00 0.  1.
          2   -1    0    0  501    0  0.00000000000E+00 -0.00000000000E+00 -0.52646015656E+02  0.52646015656E+02  0.00000000000E+00 0. -1.
         25    2    1    2    0    0  0.69525662785E+02  0.30846159803E+02  0.17341222438E+03  0.22694608462E+03  0.12508965745E+03 0.  0.
         23    2    1    2    0    0 -0.69525662785E+02 -0.30846159803E+02  0.10458314341E+03  0.15634131448E+03  0.87861649011E+02 0.  0.
          5    1    3    3  502    0  0.14982209707E+02 -0.46451016461E+01 -0.18291258544E+02  0.24455799233E+02  0.41800000000E+01 0. -1.
         -5    1    3    3    0  502  0.54543453078E+02  0.35491261450E+02  0.19170348292E+03  0.20249028539E+03  0.41800000000E+01 0. -1.
        -11    1    4    4    0    0  0.48411146639E+01 -0.13810187754E+02  0.71845680793E+02  0.73320935112E+02  0.00000000000E+00 0.  1.
         11    1    4    4    0    0 -0.74366777449E+02 -0.17035972049E+02  0.32737462622E+02  0.83020379370E+02  0.00000000000E+00 0. -1.
</event>
<event>
 8    1  0.3719512E-009  0.1755182E+03  0.7561462E-02  0.1172212E+00
          2   -1    0    0  501    0  0.00000000000E+00  0.00000000000E+00  0.43234269083E+03  0.43234269083E+03  0.00000000000E+00 0.  1.
         -2   -1    0    0    0  501 -0.00000000000E+00 -0.00000000000E+00 -0.80443923687E+02  0.80443923687E+02  0.00000000000E+00 0. -1.
         25    2    1    2    0    0 -0.13751952748E+03 -0.64580183795E+02  0.18750573153E+03  0.27182426788E+03  0.12509121742E+03 0.  0.
         23    2    1    2    0    0  0.13751952748E+03  0.64580183795E+02  0.16439303561E+03  0.24096234664E+03  0.89193955856E+02 0.  0.
          5    1    3    3  502    0 -0.71829625940E+02 -0.80660526548E+02  0.51190907970E+02  0.11959764699E+03  0.41800000000E+01 0. -1.
         -5    1    3    3    0  502 -0.65689901537E+02  0.16080342753E+02  0.13631482356E+03  0.15222662089E+03  0.41800000000E+01 0. -1.
        -11    1    4    4    0    0  0.14837435634E+03  0.68792362115E+02  0.14622468662E+03  0.21938322106E+03  0.00000000000E+00 0.  1.
         11    1    4    4    0    0 -0.10854828858E+02 -0.42121783193E+01  0.18168348988E+02  0.21579125577E+02  0.00000000000E+00 0. -1.
</event>
<event>
 8    1  0.3719512E-009  0.1003078E+03  0.7561462E-02  0.1279650E+00
         -2   -1    0    0    0  501 -0.00000000000E+00  0.00000000000E+00  0.14417310590E+03  0.14417310590E+03  0.00000000000E+00 0.  1.
          2   -1    0    0  501    0  0.00000000000E+00 -0.00000000000E+00 -0.10501615227E+03  0.10501615227E+03  0.00000000000E+00 0. -1.
         25    2    1    2    0    0  0.15912627002E+02  0.35080728121E+02 -0.23877871703E+02  0.13304809891E+03  0.12509106556E+03 0.  0.
         23    2    1    2    0    0 -0.15912627002E+02 -0.35080728121E+02  0.63034825332E+02  0.11614115927E+03  0.89618694966E+02 0.  0.
          5    1    3    3  502    0 -0.22485083736E+02  0.63505250268E+02  0.17476357161E+02  0.69723677914E+02  0.41800000000E+01 0. -1.
         -5    1    3    3    0  502  0.38397710738E+02 -0.28424522148E+02 -0.41354228864E+02  0.63324420994E+02  0.41800000000E+01 0. -1.
        -11    1    4    4    0    0 -0.45878534760E+02 -0.12240460516E+02  0.62458818322E+02  0.78458733176E+02  0.00000000000E+00 0.  1.
         11    1    4    4    0    0  0.29965907757E+02 -0.22840267604E+02  0.57600700996E+00  0.37682426090E+02  0.00000000000E+00 0. -1.
</event>
<event>
 8    1  0.3719512E-009  0.7468317E+02  0.7561462E-02  0.1344855E+00
          2   -1    0    0  501    0  0.00000000000E+00  0.00000000000E+00  0.26677702414E+02  0.26677702414E+02  0.00000000000E+00 0.  1.
         -2   -1    0    0    0  501 -0.00000000000E+00 -0.00000000000E+00 -0.49685943192E+03  0.49685943192E+03  0.00000000000E+00 0. -1.
         25    2    1    2    0    0 -0.14304030986E+02 -0.11910098301E+02 -0.19140582281E+03  0.22941158542E+03  0.12508809207E+03 0.  0.
         23    2    1    2    0    0  0.14304030986E+02  0.11910098301E+02 -0.27877590670E+03  0.29412554891E+03  0.91909611160E+02 0.  0.
          5    1    3    3  502    0  0.24702443016E+02  0.73020118149E+01 -0.18309631567E+03  0.18494664982E+03  0.41800000000E+01 0.  1.
         -5    1    3    3    0  502 -0.39006474002E+02 -0.19212110116E+02 -0.83095071366E+01  0.44464935601E+02  0.41800000000E+01 0.  1.
        -11    1    4    4    0    0 -0.31905420665E+02  0.96131821277E+01 -0.20008779834E+03  0.20284352635E+03  0.00000000000E+00 0. -1.
         11    1    4    4    0    0  0.46209451651E+02  0.22969161734E+01 -0.78688108361E+02  0.91282022563E+02  0.00000000000E+00 0.  1.
</event>
<event>
 8    1  0.3719512E-009  0.1140833E+03  0.7561462E-02  0.1253190E+00
          2   -1    0    0  501    0  0.00000000000E+00  0.00000000000E+00  0.24844897400E+02  0.24844897400E+02  0.00000000000E+00 0. -1.
         -2   -1    0    0    0  501 -0.00000000000E+00 -0.00000000000E+00 -0.93073323510E+03  0.93073323510E+03  0.00000000000E+00 0.  1.
         25    2    1    2    0    0  0.47579416832E+02  0.47796033906E+01 -0.78984220801E+03  0.80111483408E+03  0.12509044054E+03 0.  0.
         23    2    1    2    0    0 -0.47579416832E+02 -0.47796033906E+01 -0.11604612970E+03  0.15446329843E+03  0.90030888193E+02 0.  0.
          5    1    3    3  502    0  0.48457691000E+02  0.60720180459E+02 -0.45254358533E+03  0.45918216119E+03  0.41800000000E+01 0.  1.
         -5    1    3    3    0  502 -0.87827416774E+00 -0.55940577068E+02 -0.33729862267E+03  0.34193267288E+03  0.41800000000E+01 0.  1.
        -11    1    4    4    0    0 -0.44949235556E+02  0.33396893317E+02 -0.96310360120E+02  0.11140678492E+03  0.00000000000E+00 0.  1.
         11    1    4    4    0    0 -0.26301812762E+01 -0.38176496708E+02 -0.19735769578E+02  0.43056513506E+02  0.00000000000E+00 0. -1.
</event>
<event>
 8    1  0.3719512E-009  0.2347678E+03  0.7561462E-02  0.1123328E+00
          1   -1    0    0  501    0  0.00000000000E+00  0.00000000000E+00  0.13887427180E+04  0.13887427180E+04  0.00000000000E+00 0. -1.
         -1   -1    0    0    0  501 -0.00000000000E+00 -0.00000000000E+00 -0.56168990827E+02  0.56168990827E+02  0.00000000000E+00 0.  1.
         25    2    1    2    0    0 -0.21947067195E+03 -0.47457805936E+02  0.35840146638E+03  0.44104304694E+03  0.12509092279E+03 0.  0.
         23    2    1    2    0    0  0.21947067195E+03  0.47457805936E+02  0.97417226079E+03  0.10038686619E+04  0.91219939816E+02 0.  0.
          5    1    3    3  502    0 -0.11947232620E+03 -0.46199893149E+02  0.29736427301E+03  0.32380711869E+03  0.41800000000E+01 0. -1.
         -5    1    3    3    0  502 -0.99998345754E+02 -0.12579127864E+01  0.61037193369E+02  0.11723592825E+03  0.41800000000E+01 0. -1.
        -11    1    4    4    0    0  0.21292698702E+03  0.20925635368E+02  0.83020680229E+03  0.85733256009E+03  0.00000000000E+00 0.  1.
         11    1    4    4    0    0  0.65436849341E+01  0.26532170568E+02  0.14396545850E+03  0.14653610180E+03  0.00000000000E+00 0. -1.
</event>
<event>
 8    1  0.3719512E-009  0.1062076E+03  0.7561462E-02  0.1267758E+00
         -2   -1    0    0    0  501 -0.00000000000E+00  0.00000000000E+00  0.40781584159E+03  0.40781584159E+03  0.00000000000E+00 0.  1.
          2   -1    0    0  501    0  0.00000000000E+00 -0.00000000000E+00 -0.57406266955E+02  0.57406266955E+02  0.00000000000E+00 0. -1.
         25    2    1    2    0    0 -0.35247720123E+02 -0.87355508216E+02  0.10938861530E+03  0.19101595646E+03  0.12509132614E+03 0.  0.
         23    2    1    2    0    0  0.35247720123E+02  0.87355508216E+02  0.24102095933E+03  0.27420615208E+03  0.90689163702E+02 0.  0.
          5    1    3    3  502    0 -0.43765588854E+02 -0.95636201796E+02  0.12974948571E+03  0.16707516663E+03  0.41800000000E+01 0.  1.
         -5    1    3    3    0  502  0.85178687309E+01  0.82806935794E+01 -0.20360870411E+02  0.23940789832E+02  0.41800000000E+01 0.  1.
        -11    1    4    4    0    0  0.21718375543E+02  0.42729782054E+02  0.21606256833E+03  0.22131551131E+03  0.00000000000E+00 0.  1.
         11    1    4    4    0    0  0.13529344580E+02  0.44625726162E+02  0.24958390996E+02  0.52890640773E+02  0.00000000000E+00 0. -1.
</event>
<event>
 8    1  0.3719512E-009  0.1767940E+03  0.7561462E-02  0.1170942E+00
         -2   -1    0    0    0  501 -0.00000000000E+00  0.00000000000E+00  0.98801237271E+02  0.98801237271E+02  0.00000000000E+00 0.  1.
          2   -1    0    0  501    0  0.00000000000E+00 -0.00000000000E+00 -0.47543936107E+03  0.47543936107E+03  0.00000000000E+00 0. -1.
         25    2    1    2    0    0 -0.13049866870E+03 -0.59505953910E+02 -0.36212156968E+02  0.19372423319E+03  0.12508755785E+03 0.  0.
         23    2    1    2    0    0  0.13049866870E+03  0.59505953910E+02 -0.34042596683E+03  0.38051636515E+03  0.91279812510E+02 0.  0.
          5    1    3    3  502    0  0.18991020406E+01 -0.54619307637E+02  0.46664266290E+01  0.55010210804E+02  0.41800000000E+01 0. -1.
         -5    1    3    3    0  502 -0.13239777074E+03 -0.48866462738E+01 -0.40878583597E+02  0.13871402239E+03  0.41800000000E+01 0. -1.
        -11    1    4    4    0    0  0.46761325958E+02  0.67488134245E+02 -0.12831675309E+03  0.15233666333E+03  0.00000000000E+00 0. -1.
         11    1    4    4    0    0  0.83737342744E+02 -0.79821803343E+01 -0.21210921373E+03  0.22817970182E+03  0.00000000000E+00 0.  1.
</event>
<event>
 8    1  0.3719512E-009  0.1035533E+03  0.7561462E-02  0.1272996E+00
         -1   -1    0    0    0  501 -0.00000000000E+00  0.00000000000E+00  0.15662273736E+03  0.15662273736E+03  0.00000000000E+00 0.  1.
          1   -1    0    0  501    0  0.00000000000E+00 -0.00000000000E+00 -0.74387734817E+02  0.74387734817E+02  0.00000000000E+00 0. -1.
         25    2    1    2    0    0  0.10079907650E+02  0.15213167335E+02  0.44878034741E+02  0.13414260189E+03  0.12508858718E+03 0.  0.
         23    2    1    2    0    0 -0.10079907650E+02 -0.15213167335E+02  0.37356967799E+02  0.96867870280E+02  0.87491692468E+02 0.  0.
          5    1    3    3  502    0  0.59898293154E+02  0.27823362947E+02  0.59971047739E+00  0.66179884414E+02  0.41800000000E+01 0.  1.
         -5    1    3    3    0  502 -0.49818385503E+02 -0.12610195612E+02  0.44278324264E+02  0.67962717479E+02  0.41800000000E+01 0.  1.
        -11    1    4    4    0    0 -0.33603951566E+01  0.36785697809E+02  0.15926336099E+02  0.40225961772E+02  0.00000000000E+00 0. -1.
         11    1    4    4    0    0 -0.67195124937E+01 -0.51998865144E+02  0.21430631700E+02  0.56641908509E+02  0.00000000000E+00 0.  1.
</event>
<event>
 8    1  0.3719512E-009  0.1438595E+03  0.7561462E-02  0.1208228E+00
         -1   -1    0    0    0  501 -0.00000000000E+00  0.00000000000E+00  0.76469030779E+02  0.76469030779E+02  0.00000000000E+00 0. -1.
          1   -1    0    0  501    0  0.00000000000E+00 -0.00000000000E+00 -0.34184855537E+03  0.34184855537E+03  0.00000000000E+00 0.  1.
         25    2    1    2    0    0 -0.10466468197E+03 -0.32084934863E+02 -0.79120657877E+02  0.18409719924E+03  0.12509021372E+03 0.  0.
         23    2    1    2    0    0  0.10466468197E+03  0.32084934863E+02 -0.18625886671E+03  0.23422038691E+03  0.90458197640E+02 0.  0.
          5    1    3    3  502    0 -0.19835677658E-01  0.26130669741E+02 -0.56179074378E+02  0.62099702837E+02  0.41800000000E+01 0.  1.
         -5    1    3    3    0  502 -0.10464484629E+03 -0.58215604603E+02 -0.22941583499E+02  0.12199749640E+03  0.41800000000E+01 0.  1.
        -11    1    4    4    0    0  0.90061605562E+02 -0.15743243685E+02 -0.13025099831E+03  0.15913599555E+03  0.00000000000E+00 0. -1.
         11    1    4    4    0    0  0.14603076403E+02  0.47828178547E+02 -0.56007868401E+02  0.75084391364E+02  0.00000000000E+00 0.  1.
</event>
<event>
 8    1  0.3719512E-009  0.1037934E+03  0.7561462E-02  0.1272515E+00
         -1   -1    0    0    0  501 -0.00000000000E+00  0.00000000000E+00  0.25936892561E+02  0.25936892561E+02  0.00000000000E+00 0.  1.
          1   -1    0    0  501    0  0.00000000000E+00 -0.00000000000E+00 -0.72262728711E+03  0.72262728711E+03  0.00000000000E+00 0. -1.
         25    2    1    2    0    0 -0.29894814446E+02 -0.70474805273E+02 -0.46666639034E+03  0.48916745474E+03  0.12508749258E+03 0.  0.
         23    2    1    2    0    0  0.29894814446E+02  0.70474805273E+02 -0.23002400421E+03  0.25939672493E+03  0.92277951217E+02 0.  0.
          5    1    3    3  502    0  0.30964437162E+02 -0.29518738746E+02 -0.49406114771E+02  0.65487318488E+02  0.41800000000E+01 0.  1.
         -5    1    3    3    0  502 -0.60859251608E+02 -0.40956066527E+02 -0.41726027557E+03  0.42368013626E+03  0.41800000000E+01 0.  1.
        -11    1    4    4    0    0  0.23296497545E+02  0.31837717025E+01 -0.44799466400E+01  0.23936021432E+02  0.00000000000E+00 0.  1.
         11    1    4    4    0    0  0.65983169014E+01  0.67291033570E+02 -0.22554405757E+03  0.23546070350E+03  0.00000000000E+00 0. -1.
</event>
<event>
 8    1  0.3719512E-009  0.9878773E+02  0.7561462E-02  0.1282866E+00
         -1   -1    0    0    0  501 -0.00000000000E+00  0.00000000000E+00  0.10540982030E+03  0.10540982030E+03  0.00000000000E+00 0.  1.
          1   -1    0    0  501    0  0.00000000000E+00 -0.00000000000E+00 -0.12738204459E+03  0.12738204459E+03  0.00000000000E+00 0. -1.
         25    2    1    2    0    0 -0.18443293509E+02  0.29288907602E+02 -0.24250171563E+02  0.13203761861E+03  0.12509143345E+03 0.  0.
         23    2    1    2    0    0  0.18443293509E+02 -0.29288907602E+02  0.22779472728E+01  0.10075424628E+03  0.94595105131E+02 0.  0.
          5    1    3    3  502    0  0.82862483525E+01  0.75200868039E+02 -0.73271197178E+01  0.76124841865E+02  0.41800000000E+01 0. -1.
         -5    1    3    3    0  502 -0.26729541862E+02 -0.45911960437E+02 -0.16923051845E+02  0.55912776743E+02  0.41800000000E+01 0. -1.
        -11    1    4    4    0    0  0.39270625714E+02 -0.26787431914E+02 -0.34278443886E+02  0.58606827826E+02  0.00000000000E+00 0. -1.
         11    1    4    4    0    0 -0.20827332205E+02 -0.25014756878E+01  0.36556391159E+02  0.42147418450E+02  0.00000000000E+00 0.  1.
</event>
<event>
 8    1  0.3719512E-009  0.1221175E+03  0.7561462E-02  0.1239644E+00
         -1   -1    0    0    0  501 -0.00000000000E+00  0.00000000000E+00  0.57900243441E+02  0.57900243441E+02  0.00000000000E+00 0.  1.
          1   -1    0    0  501    0  0.00000000000E+00 -0.00000000000E+00 -0.45524441138E+03  0.45524441138E+03  0.00000000000E+00 0. -1.
         25    2    1    2    0    0  0.10441568321E+03 -0.51072664349E+02 -0.26665906504E+03  0.31664647021E+03  0.12508748213E+03 0.  0.
         23    2    1    2    0    0 -0.10441568321E+03  0.51072664349E+02 -0.13068510290E+03  0.19649818461E+03  0.89564995900E+02 0.  0.
          5    1    3    3  502    0  0.42491973261E+02 -0.50206315573E+02 -0.24036370040E+03  0.24923567719E+03  0.41800000000E+01 0.  1.
         -5    1    3    3    0  502  0.61923709949E+02 -0.86634877674E+00 -0.26295364638E+02  0.67410793020E+02  0.41800000000E+01 0.  1.
        -11    1    4    4    0    0 -0.49255134199E+02  0.25303220589E+02 -0.34917457260E+01  0.55484353698E+02  0.00000000000E+00 0.  1.
         11    1    4    4    0    0 -0.55160549011E+02  0.25769443761E+02 -0.12719335717E+03  0.14101383091E+03  0.00000000000E+00 0. -1.
</event>
<event>
 8    1  0.3719512E-009  0.1344027E+03  0.7561462E-02  0.1221065E+00
         -1   -1    0    0    0  501 -0.00000000000E+00  0.00000000000E+00  0.27995497134E+02  0.27995497134E+02  0.00000000000E+00 0.  1.
          1   -1    0    0  501    0  0.00000000000E+00 -0.00000000000E+00 -0.81699558313E+03  0.81699558313E+03  0.00000000000E+00 0. -1.
         25    2    1    2    0    0  0.95147311793E+02  0.39209767045E+02 -0.36878094162E+03  0.40278661258E+03  0.12508899072E+03 0.  0.
         23    2    1    2    0    0 -0.95147311793E+02 -0.39209767045E+02 -0.42021914438E+03  0.44220446769E+03  0.91489043959E+02 0.  0.
          5    1    3    3  502    0 -0.30399892658E+02  0.12758372964E+02 -0.87445896848E+02  0.93547778327E+02  0.41800000000E+01 0. -1.
         -5    1    3    3    0  502  0.12554720445E+03  0.26451394081E+02 -0.28133504477E+03  0.30923883425E+03  0.41800000000E+01 0. -1.
        -11    1    4    4    0    0 -0.28109384837E+02  0.25432837387E+01 -0.20821948384E+02  0.35073627452E+02  0.00000000000E+00 0.  1.
         11    1    4    4    0    0 -0.67037926956E+02 -0.41753050784E+02 -0.39939719600E+03  0.40713084024E+03  0.00000000000E+00 0. -1.
</event>
<event>
 8    1  0.3719512E-009  0.8821246E+02  0.7561462E-02  0.1307239E+00
         -2   -1    0    0    0  501 -0.00000000000E+00  0.00000000000E+00  0.35912026110E+02  0.35912026110E+02  0.00000000000E+00 0.  1.
          2   -1    0    0  501    0  0.00000000000E+00 -0.00000000000E+00 -0.49169189267E+03  0.49169189267E+03  0.00000000000E+00 0. -1.
         25    2    1    2    0    0  0.42214789715E+02  0.28286746864E+02 -0.34279623937E+03  0.36842745145E+03  0.12508915514E+03 0.  0.
         23    2    1    2    0    0 -0.42214789715E+02 -0.28286746864E+02 -0.11298362719E+03  0.15917646733E+03  0.99948082629E+02 0.  0.
          5    1    3    3  502    0 -0.38918609700E+01  0.31350854182E+02 -0.30994229587E+03  0.31157618941E+03  0.41800000000E+01 0.  1.
         -5    1    3    3    0  502  0.46106650685E+02 -0.30641073180E+01 -0.32853943498E+02  0.56851262031E+02  0.41800000000E+01 0.  1.
        -11    1    4    4    0    0  0.15412593920E+02 -0.36810304286E+02 -0.10454078831E+02  0.41253294622E+02  0.00000000000E+00 0.  1.
         11    1    4    4    0    0 -0.57627383636E+02  0.85235574218E+01 -0.10252954836E+03  0.11792317271E+03  0.00000000000E+00 0. -1.
</event>
<event>
 8    1  0.3719512E-009  0.8886138E+02  0.7561462E-02  0.1305633E+00
         -2   -1    0    0    0  501 -0.00000000000E+00  0.00000000000E+00  0.12061284041E+02  0.12061284041E+02  0.00000000000E+00 0. -1.
          2   -1    0    0  501    0  0.00000000000E+00 -0.00000000000E+00 -0.99869522016E+03  0.99869522016E+03  0.00000000000E+00 0.  1.
         25    2    1    2    0    0 -0.41517554515E+01  0.16368614541E+02 -0.63758332377E+03  0.64995674896E+03  0.12508442011E+03 0.  0.
         23    2    1    2    0    0  0.41517554515E+01 -0.16368614541E+02 -0.34905061235E+03  0.36079975524E+03  0.89749455621E+02 0.  0.
          5    1    3    3  502    0  0.32126686897E+02  0.37474227859E+02 -0.55518298946E+03  0.55738861305E+03  0.41800000000E+01 0.  1.
         -5    1    3    3    0  502 -0.36278442349E+02 -0.21105613318E+02 -0.82400334305E+02  0.92568135913E+02  0.41800000000E+01 0.  1.
        -11    1    4    4    0    0  0.18408356975E+02 -0.47947134863E+02 -0.26423675936E+03  0.26918183509E+03  0.00000000000E+00 0.  1.
         11    1    4    4    0    0 -0.14256601524E+02  0.31578520322E+02 -0.84813852991E+02  0.91617920146E+02  0.00000000000E+00 0. -1.
</event>
<event>
 8    1  0.3719512E-009  0.6721010E+02  0.7561462E-02  0.1369846E+00
         -1   -1    0    0    0  501 -0.00000000000E+00  0.00000000000E+00  0.23163090520E+03  0.23163090520E+03  0.00000000000E+00 0.  1.
          1   -1    0    0  501    0  0.00000000000E+00 -0.00000000000E+00 -0.52505407420E+02  0.52505407420E+02  0.00000000000E+00 0. -1.
         25    2    1    2    0    0 -0.27649083054E+01  0.20722327577E+02  0.11897285746E+03  0.17389079058E+03  0.12508559732E+03 0.  0.
         23    2    1    2    0    0  0.27649083054E+01 -0.20722327577E+02  0.60152640320E+02  0.11024552205E+03  0.89992640897E+02 0.  0.
          5    1    3    3  502    0  0.21788199284E+02  0.40469710311E+02 -0.45203490222E+01  0.46372718661E+02  0.41800000000E+01 0. -1.
         -5    1    3    3    0  502 -0.24553107589E+02 -0.19747382735E+02  0.12349320649E+03  0.12751807192E+03  0.41800000000E+01 0. -1.
        -11    1    4    4    0    0 -0.24814165704E+02 -0.11957720552E+02 -0.13817377525E+02  0.30816388855E+02  0.00000000000E+00 0. -1.
         11    1    4    4    0    0  0.27579074009E+02 -0.87646070245E+01  0.73970017845E+02  0.79429133191E+02  0.00000000000E+00 0.  1.
</event>
<event>
 8    1  0.3719512E-009  0.9817927E+02  0.7561462E-02  0.1284172E+00
          2   -1    0    0  501    0  0.00000000000E+00  0.00000000000E+00  0.24765527849E+03  0.24765527849E+03  0.00000000000E+00 0. -1.
         -2   -1    0    0    0  501 -0.00000000000E+00 -0.00000000000E+00 -0.57301152609E+02  0.57301152609E+02  0.00000000000E+00 0.  1.
         25    2    1    2    0    0 -0.37541099921E+02  0.13416915182E+02  0.70755123448E+02  0.14914214408E+03  0.12509094232E+03 0.  0.
         23    2    1    2    0    0  0.37541099921E+02 -0.13416915182E+02  0.11959900244E+03  0.15581428702E+03  0.91568678381E+02 0.  0.
          5    1    3    3  502    0 -0.71447079281E+02 -0.10890479111E+01  0.27048862651E+01  0.71628625373E+02  0.41800000000E+01 0.  1.
         -5    1    3    3    0  502  0.33905979359E+02  0.14505963093E+02  0.68050237183E+02  0.77513518706E+02  0.41800000000E+01 0.  1.
        -11    1    4    4    0    0 -0.23227125573E+02 -0.13564297265E+02  0.68887921938E+01  0.27765895998E+02  0.00000000000E+00 0.  1.
         11    1    4    4    0    0  0.60768225495E+02  0.14738208285E+00  0.11271021024E+03  0.12804839103E+03  0.00000000000E+00 0. -1.
</event>
<event>
 8    1  0.3719512E-009  0.8849486E+02  0.7561462E-02  0.1306538E+00
         -3   -1    0    0    0  501 -0.00000000000E+00  0.00000000000E+00  0.63850649184E+02  0.63850649184E+02  0.00000000000E+00 0.  1.
          3   -1    0    0  501    0  0.00000000000E+00 -0.00000000000E+00 -0.19380266659E+03  0.19380266659E+03  0.00000000000E+00 0. -1.
         25    2    1    2    0    0 -0.24973651489E+02  0.23077388521E+02 -0.84846612798E+02  0.15492992835E+03  0.12509230937E+03 0.  0.
         23    2    1    2    0    0  0.24973651489E+02 -0.23077388521E+02 -0.45105404605E+02  0.10272338742E+03  0.85798296426E+02 0.  0.
          5    1    3    3  502    0 -0.15317946337E+02 -0.30319360478E+02  0.17926704324E+02  0.38636022411E+02  0.41800000000E+01 0. -1.
         -5    1    3    3    0  502 -0.96557051513E+01  0.53396748999E+02 -0.10277331712E+03  0.11629390594E+03  0.41800000000E+01 0. -1.
        -11    1    4    4    0    0 -0.29252688795E+02 -0.16848748837E+02 -0.31996505571E+01  0.33909259839E+02  0.00000000000E+00 0. -1.
         11    1    4    4    0    0  0.54226340284E+02 -0.62286396838E+01 -0.41905754048E+02  0.68814127585E+02  0.00000000000E+00 0.  1.
</event>
<event>
 8    1  0.3719512E-009  0.8674334E+02  0.7561462E-02  0.1310935E+00
          2   -1    0    0  501    0  0.00000000000E+00  0.00000000000E+00  0.58999126826E+02  0.58999126826E+02  0.00000000000E+00 0.  1.
         -2   -1    0    0    0  501 -0.00000000000E+00 -0.00000000000E+00 -0.48196782517E+03  0.48196782517E+03  0.00000000000E+00 0. -1.
         25    2    1    2    0    0  0.37159175920E+02  0.46194720005E+02 -0.40931556448E+03  0.43209016851E+03  0.12509166991E+03 0.  0.
         23    2    1    2    0    0 -0.37159175920E+02 -0.46194720005E+02 -0.13653133858E+02  0.10887678349E+03  0.90293905702E+02 0.  0.
          5    1    3    3  502    0  0.30147831511E+02  0.12708978319E+02 -0.39224284361E+03  0.39362714672E+03  0.41800000000E+01 0.  1.
         -5    1    3    3    0  502  0.70113444085E+01  0.33485741686E+02 -0.17072720875E+02  0.38463021784E+02  0.41800000000E+01 0.  1.
        -11    1    4    4    0    0 -0.12080073859E+02  0.26507888170E+02  0.54429379020E+01  0.29634808801E+02  0.00000000000E+00 0.  1.
         11    1    4    4    0    0 -0.25079102061E+02 -0.72702608174E+02 -0.19096071760E+02  0.79241974686E+02  0.00000000000E+00 0. -1.
</event>
<event>
 8    1  0.3719512E-009  0.1269257E+03  0.7561462E-02  0.1232090E+00
          1   -1    0    0  501    0  0.00000000000E+00  0.00000000000E+00  0.13453384128E+03  0.13453384128E+03  0.00000000000E+00 0. -1.
         -1   -1    0    0    0  501 -0.00000000000E+00 -0.00000000000E+00 -0.15069175702E+03  0.15069175702E+03  0.00000000000E+00 0.  1.
         25    2    1    2    0    0 -0.90729086424E+02  0.21959256986E+02  0.81912911144E+00  0.15607843449E+03  0.12508329485E+03 0.  0.
         23    2    1    2    0    0  0.90729086424E+02 -0.21959256986E+02 -0.16977044849E+02  0.12914716380E+03  0.87617314355E+02 0.  0.
          5    1    3    3  502    0 -0.89394342241E+02  0.64027243240E+02 -0.14720291834E+02  0.11101799716E+03  0.41800000000E+01 0.  1.
         -5    1    3    3    0  502 -0.13347441835E+01 -0.42067986254E+02  0.15539420945E+02  0.45060437335E+02  0.41800000000E+01 0.  1.
        -11    1    4    4    0    0  0.49017437596E+01  0.90236156796E+01  0.26242992626E+02  0.28180620891E+02  0.00000000000E+00 0. -1.
         11    1    4    4    0    0  0.85827342665E+02 -0.30982872666E+02 -0.43220037475E+02  0.10096654291E+03  0.00000000000E+00 0.  1.
</event>
<event>
 8    1  0.3719512E-009  0.9639759E+02  0.7561462E-02  0.1288059E+00
          2   -1    0    0  501    0  0.00000000000E+00  0.00000000000E+00  0.83432987320E+02  0.83432987320E+02  0.00000000000E+00 0. -1.
         -2   -1    0    0    0  501 -0.00000000000E+00 -0.00000000000E+00 -0.29456893420E+03  0.29456893420E+03  0.00000000000E+00 0.  1.
         25    2    1    2    0    0 -0.40336140369E+02 -0.33990600156E+02 -0.23110275825E+03  0.26802768210E+03  0.12509191974E+03 0.  0.
         23    2    1    2    0    0  0.40336140369E+02  0.33990600156E+02  0.19966811370E+02  0.10997423942E+03  0.94410246587E+02 0.  0.
          5    1    3    3  502    0  0.13748690065E+02  0.40666952121E+02 -0.82693962491E+02  0.93266238832E+02  0.41800000000E+01 0.  1.
         -5    1    3    3    0  502 -0.54084830434E+02 -0.74657552277E+02 -0.14840879576E+03  0.17476144327E+03  0.41800000000E+01 0.  1.
        -11    1    4    4    0    0  0.26159442326E+02  0.73019253402E+01  0.56424028988E+02  0.62620328838E+02  0.00000000000E+00 0. -1.
         11    1    4    4    0    0  0.14176698043E+02  0.26688674815E+02 -0.36457217618E+02  0.47353910581E+02  0.00000000000E+00 0.  1.
</event>
<event>
 8    1  0.3719512E-009  0.1171723E+03  0.7561462E-02  0.1247836E+00
          1   -1    0    0  501    0  0.00000000000E+00  0.00000000000E+00  0.11673670332E+04  0.11673670332E+04  0.00000000000E+00 0. -1.
         -1   -1    0    0    0  501 -0.00000000000E+00 -0.00000000000E+00 -0.15991390888E+02  0.15991390888E+02  0.00000000000E+00 0.  1.
         25    2    1    2    0    0  0.57007462800E+01  0.82685470078E+02  0.66646135435E+03  0.68314681598E+03  0.12509776124E+03 0.  0.
         23    2    1    2    0    0 -0.57007462800E+01 -0.82685470078E+02  0.48491428801E+03  0.50021160816E+03  0.90556064127E+02 0.  0.
          5    1    3    3  502    0 -0.38011565020E+02  0.24122700054E+02  0.49034382658E+03  0.49242392753E+03  0.41800000000E+01 0.  1.
         -5    1    3    3    0  502  0.43712311300E+02  0.58562770024E+02  0.17611752777E+03  0.19072288845E+03  0.41800000000E+01 0.  1.
        -11    1    4    4    0    0 -0.31938866788E+02 -0.30462315899E+01  0.71335968077E+02  0.78218866523E+02  0.00000000000E+00 0.  1.
         11    1    4    4    0    0  0.26238120508E+02 -0.79639238488E+02  0.41357831993E+03  0.42199274163E+03  0.00000000000E+00 0. -1.
</event>
<event>
 8    1  0.3719512E-009  0.9627812E+02  0.7561462E-02  0.1288323E+00
         -2   -1    0    0    0  501 -0.00000000000E+00  0.00000000000E+00  0.63261498909E+02  0.63261498909E+02  0.00000000000E+00 0.  1.
          2   -1    0    0  501    0  0.00000000000E+00 -0.00000000000E+00 -0.28949257467E+03  0.28949257467E+03  0.00000000000E+00 0. -1.
         25    2    1    2    0    0 -0.29845223383E+02 -0.26360438907E+02 -0.32382717931E+02  0.13521059561E+03  0.12509058576E+03 0.  0.
         23    2    1    2    0    0  0.29845223383E+02  0.26360438907E+02 -0.19384835783E+03  0.21754347797E+03  0.90345829317E+02 0.  0.
          5    1    3    3  502    0 -0.65722913923E+02 -0.25548364401E+02 -0.57604755238E+02  0.91148234015E+02  0.41800000000E+01 0.  1.
         -5    1    3    3    0  502  0.35877690540E+02 -0.81207450652E+00  0.25222037307E+02  0.44062361596E+02  0.41800000000E+01 0.  1.
        -11    1    4    4    0    0 -0.77325082730E+01  0.43717668685E+02 -0.45672108796E+02  0.63694330684E+02  0.00000000000E+00 0. -1.
         11    1    4    4    0    0  0.37577731656E+02 -0.17357229778E+02 -0.14817624904E+03  0.15384914729E+03  0.00000000000E+00 0.  1.
</event>
<event>
 8    1  0.3719512E-009  0.1287000E+03  0.7561462E-02  0.1229398E+00
         -1   -1    0    0    0  501 -0.00000000000E+00  0.00000000000E+00  0.14814708290E+03  0.14814708290E+03  0.00000000000E+00 0.  1.
          1   -1    0    0  501    0  0.00000000000E+00 -0.00000000000E+00 -0.12314345489E+03  0.12314345489E+03  0.00000000000E+00 0. -1.
         25    2    1    2    0    0  0.63429146375E+02 -0.49117540343E+02  0.17522588254E+02  0.14963563060E+03  0.12509193207E+03 0.  0.
         23    2    1    2    0    0 -0.63429146375E+02  0.49117540343E+02  0.74810397489E+01  0.12165490719E+03  0.91149114684E+02 0.  0.
          5    1    3    3  502    0  0.42733446724E+02  0.36833917334E+02  0.22749855053E+02  0.60974693439E+02  0.41800000000E+01 0.  1.
         -5    1    3    3    0  502  0.20695699651E+02 -0.85951457677E+02 -0.52272667989E+01  0.88660937165E+02  0.41800000000E+01 0.  1.
        -11    1    4    4    0    0 -0.26387938027E+02  0.66396864736E+02 -0.17751418632E+02  0.73620511975E+02  0.00000000000E+00 0.  1.
         11    1    4    4    0    0 -0.37041208348E+02 -0.17279324393E+02  0.25232458381E+02  0.48034395211E+02  0.00000000000E+00 0. -1.
</event>
<event>
 8    1  0.3719512E-009  0.1615340E+03  0.7561462E-02  0.1186976E+00
         -1   -1    0    0    0  501 -0.00000000000E+00  0.00000000000E+00  0.80583189487E+02  0.80583189487E+02  0.00000000000E+00 0.  1.
          1   -1    0    0  501    0  0.00000000000E+00 -0.00000000000E+00 -0.47540444972E+03  0.47540444972E+03  0.00000000000E+00 0. -1.
         25    2    1    2    0    0  0.14807856333E+02  0.12170480267E+03 -0.56032087014E+02  0.18389679849E+03  0.12508839321E+03 0.  0.
         23    2    1    2    0    0 -0.14807856333E+02 -0.12170480267E+03 -0.33878917322E+03  0.37209084072E+03  0.92963209148E+02 0.  0.
          5    1    3    3  502    0 -0.44361733296E+02  0.93771094737E+02 -0.56770695277E+02  0.11832736721E+03  0.41800000000E+01 0.  1.
         -5    1    3    3    0  502  0.59169589628E+02  0.27933707931E+02  0.73860826300E+00  0.65569431275E+02  0.41800000000E+01 0.  1.
        -11    1    4    4    0    0  0.30772746259E+02 -0.97154959653E+02 -0.23300222285E+03  0.25431493065E+03  0.00000000000E+00 0. -1.
         11    1    4    4    0    0 -0.45580602592E+02 -0.24549843015E+02 -0.10578695036E+03  0.11777591007E+03  0.00000000000E+00 0.  1.
</event>
<event>
 8    1  0.3719512E-009  0.8321752E+02  0.7561462E-02  0.1320161E+00
          2   -1    0    0  501    0  0.00000000000E+00  0.00000000000E+00  0.12629750061E+03  0.12629750061E+03  0.00000000000E+00 0. -1.
         -2   -1    0    0    0  501 -0.00000000000E+00 -0.00000000000E+00 -0.22250247979E+03  0.22250247979E+03  0.00000000000E+00 0.  1.
         25    2    1    2    0    0  0.44158732070E+01  0.24146495268E+02 -0.18133872861E+03  0.22166175195E+03  0.12509054566E+03 0.  0.
         23    2    1    2    0    0 -0.44158732070E+01 -0.24146495268E+02  0.85133749431E+02  0.12713822845E+03  0.91180155030E+02 0.  0.
          5    1    3    3  502    0  0.39471751400E+02  0.15915326360E+01 -0.45583064741E+01  0.39985030857E+02  0.41800000000E+01 0. -1.
         -5    1    3    3    0  502 -0.35055878193E+02  0.22554962632E+02 -0.17678042214E+03  0.18167672109E+03  0.41800000000E+01 0. -1.
        -11    1    4    4    0    0 -0.54127495664E+01  0.30088984657E+02  0.59332394308E+01  0.31142385678E+02  0.00000000000E+00 0.  1.
         11    1    4    4    0    0  0.99687635939E+00 -0.54235479925E+02  0.79200510000E+02  0.95995842771E+02  0.00000000000E+00 0. -1.
</event>
<event>
 8    1  0.3719512E-009  0.1632337E+03  0.7561462E-02  0.1185094E+00
         -2   -1    0    0    0  501 -0.00000000000E+00  0.00000000000E+00  0.53752859812E+02  0.53752859812E+02  0.00000000000E+00 0.  1.
          2   -1    0    0  501    0  0.00000000000E+00 -0.00000000000E+00 -0.73662879390E+03  0.73662879390E+03  0.00000000000E+00 0. -1.
         25    2    1    2    0    0  0.14594515943E+03  0.33667444463E+02 -0.49769756068E+03  0.53459183486E+03  0.12510827957E+03 0.  0.
         23    2    1    2    0    0 -0.14594515943E+03 -0.33667444463E+02 -0.18517837341E+03  0.25578981886E+03  0.93294775171E+02 0.  0.
          5    1    3    3  502    0  0.10071534459E+02 -0.15034693515E+02 -0.22726329961E+03  0.22802095861E+03  0.41800000000E+01 0.  1.
         -5    1    3    3    0  502  0.13587362497E+03  0.48702137978E+02 -0.27043426107E+03  0.30657087625E+03  0.41800000000E+01 0.  1.
        -11    1    4    4    0    0 -0.92467197898E+01  0.15646296533E+02  0.25868213192E+01  0.18357561565E+02  0.00000000000E+00 0.  1.
         11    1    4    4    0    0 -0.13669843964E+03 -0.49313740996E+02 -0.18776519473E+03  0.23743225729E+03  0.00000000000E+00 0. -1.
</event>
<event>
 8    1  0.3719512E-009  0.1136796E+03  0.7561462E-02  0.1253904E+00
          1   -1    0    0  501    0  0.00000000000E+00  0.00000000000E+00  0.26239063373E+03  0.26239063373E+03  0.00000000000E+00 0. -1.
         -1   -1    0    0    0  501 -0.00000000000E+00 -0.00000000000E+00 -0.61820014707E+02  0.61820014707E+02  0.00000000000E+00 0.  1.
         25    2    1    2    0    0 -0.60121734777E+02  0.26531445296E+02  0.12496172013E+03  0.18862790425E+03  0.12508602713E+03 0.  0.
         23    2    1    2    0    0  0.60121734777E+02 -0.26531445296E+02  0.75608898900E+02  0.13558274419E+03  0.91364294703E+02 0.  0.
          5    1    3    3  502    0 -0.74109952405E+02  0.65790738370E+02  0.82924595250E+02  0.12928521647E+03  0.41800000000E+01 0. -1.
         -5    1    3    3    0  502  0.13988217628E+02 -0.39259293075E+02  0.42037124875E+02  0.59342687780E+02  0.41800000000E+01 0. -1.
        -11    1    4    4    0    0  0.40252792544E+02  0.12784613834E+02 -0.61811577149E+01  0.42684193434E+02  0.00000000000E+00 0.  1.
         11    1    4    4    0    0  0.19868942233E+02 -0.39316059130E+02  0.81790056615E+02  0.92898550753E+02  0.00000000000E+00 0. -1.
</event>
<event>
 8    1  0.3719512E-009  0.1037690E+03  0.7561462E-02  0.1272564E+00
         -2   -1    0    0    0  501 -0.00000000000E+00  0.00000000000E+00  0.22005351611E+03  0.22005351611E+03  0.00000000000E+00 0.  1.
          2   -1    0    0  501    0  0.00000000000E+00 -0.00000000000E+00 -0.83063865807E+02  0.83063865807E+02  0.00000000000E+00 0. -1.
         25    2    1    2    0    0  0.28161224523E+02  0.12490506529E+02  0.15552514611E+03  0.20195249586E+03  0.12509065588E+03 0.  0.
         23    2    1    2    0    0 -0.28161224523E+02 -0.12490506529E+02 -0.18535495806E+02  0.10116488607E+03  0.94560574491E+02 0.  0.
          5    1    3    3  502    0  0.47632609574E+02 -0.38437592970E+02  0.12520040286E+03  0.13942355370E+03  0.41800000000E+01 0.  1.
         -5    1    3    3    0  502 -0.19471385051E+02  0.50928099499E+02  0.30324743248E+02  0.62528942158E+02  0.41800000000E+01 0.  1.
        -11    1    4    4    0    0 -0.49791782672E+02  0.19006207487E+02  0.90231195652E+01  0.54054363666E+02  0.00000000000E+00 0.  1.
         11    1    4    4    0    0  0.21630558149E+02 -0.31496714015E+02 -0.27558615371E+02  0.47110522400E+02  0.00000000000E+00 0. -1.
</event>
<event>
 8    1  0.3719512E-009  0.8173628E+02  0.7561462E-02  0.1324195E+00
          2   -1    0    0  501    0  0.00000000000E+00  0.00000000000E+00  0.40289363538E+02  0.40289363538E+02  0.00000000000E+00 0. -1.
         -2   -1    0    0    0  501 -0.00000000000E+00 -0.00000000000E+00 -0.34564266555E+03  0.34564266555E+03  0.00000000000E+00 0.  1.
         25    2    1    2    0    0 -0.39684295124E+02  0.60160059626E+01 -0.16688705232E+03  0.21239131117E+03  0.12509094780E+03 0.  0.
         23    2    1    2    0    0  0.39684295124E+02 -0.60160059626E+01 -0.13846624969E+03  0.17354071791E+03  0.96604569578E+02 0.  0.
          5    1    3    3  502    0 -0.68621794911E+01  0.26362302774E+02 -0.17111434853E+03  0.17331951185E+03  0.41800000000E+01 0.  1.
         -5    1    3    3    0  502 -0.32822115633E+02 -0.20346296812E+02  0.42272962166E+01  0.39071799317E+02  0.41800000000E+01 0.  1.
        -11    1    4    4    0    0  0.60024820272E+02  0.20698795410E+02 -0.56609344378E+02  0.85064899053E+02  0.00000000000E+00 0. -1.
         11    1    4    4    0    0 -0.20340525147E+02 -0.26714801373E+02 -0.81856905313E+02  0.88475818860E+02  0.00000000000E+00 0.  1.
</event>
<event>
 8    1  0.3719512E-009  0.1098609E+03  0.7561462E-02  0.1260828E+00
         -2   -1    0    0    0  501 -0.00000000000E+00  0.00000000000E+00  0.27989605292E+02  0.27989605292E+02  0.00000000000E+00 0.  1.
          2   -1    0    0  501    0  0.00000000000E+00 -0.00000000000E+00 -0.51837850616E+03  0.51837850616E+03  0.00000000000E+00 0. -1.
         25    2    1    2    0    0 -0.12136666156E+02  0.51306927140E+02 -0.24957233367E+03  0.28410166594E+03  0.12509079669E+03 0.  0.
         23    2    1    2    0    0  0.12136666156E+02 -0.51306927140E+02 -0.24081656719E+03  0.26226644551E+03  0.89506256579E+02 0.  0.
          5    1    3    3  502    0 -0.62663733656E+02  0.43211146072E+02 -0.19401136438E+03  0.20845102199E+03  0.41800000000E+01 0. -1.
         -5    1    3    3    0  502  0.50527067500E+02  0.80957810687E+01 -0.55560969293E+02  0.75650643950E+02  0.41800000000E+01 0. -1.
        -11    1    4    4    0    0  0.42738012585E+02 -0.16529632559E+02 -0.18043282629E+03  0.18616060613E+03  0.00000000000E+00 0. -1.
         11    1    4    4    0    0 -0.30601346429E+02 -0.34777294581E+02 -0.60383740899E+02  0.76105839373E+02  0.00000000000E+00 0.  1.
</event>
<event>
 8    1  0.3719512E-009  0.9083983E+02  0.7561462E-02  0.1300831E+00
         -1   -1    0    0    0  501 -0.00000000000E+00  0.00000000000E+00  0.10136056522E+03  0.10136056522E+03  0.00000000000E+00 0.  1.
          1   -1    0    0  501    0  0.00000000000E+00 -0.00000000000E+00 -0.15272095966E+03  0.15272095966E+03  0.00000000000E+00 0. -1.
         25    2    1    2    0    0  0.47088700328E+02 -0.18271876137E+02  0.96312377497E+01  0.13524570296E+03  0.12508969691E+03 0.  0.
         23    2    1    2    0    0 -0.47088700328E+02  0.18271876137E+02 -0.60991632187E+02  0.11883582192E+03  0.88604549647E+02 0.  0.
          5    1    3    3  502    0 -0.78131550696E+01  0.21452928077E+02  0.50794849956E+02  0.55846778754E+02  0.41800000000E+01 0. -1.
         -5    1    3    3    0  502  0.54901855397E+02 -0.39724804213E+02 -0.41163612206E+02  0.79398924210E+02  0.41800000000E+01 0. -1.
        -11    1    4    4    0    0 -0.17289470489E+01 -0.26666530495E+02  0.48045582340E+01  0.27151001572E+02  0.00000000000E+00 0.  1.
         11    1    4    4    0    0 -0.45359753279E+02  0.44938406632E+02 -0.65796190421E+02  0.91684820347E+02  0.00000000000E+00 0. -1.
</event>
<event>
 8    1  0.3719512E-009  0.1011461E+03  0.7561462E-02  0.1277904E+00
          1   -1    0    0  501    0  0.00000000000E+00  0.00000000000E+00  0.49461904186E+03  0.49461904186E+03  0.00000000000E+00 0. -1.
         -1   -1    0    0    0  501 -0.00000000000E+00 -0.00000000000E+00 -0.31020921418E+02  0.31020921418E+02  0.00000000000E+00 0.  1.
         25    2    1    2    0    0  0.10065332238E+02  0.44872511623E+02  0.17198959553E+03  0.21758416893E+03  0.12509035288E+03 0.  0.
         23    2    1    2    0    0 -0.10065332238E+02 -0.44872511623E+02  0.29160852490E+03  0.30805579435E+03  0.88022652891E+02 0.  0.
          5    1    3    3  502    0  0.47640902395E+02 -0.75276741135E-01  0.14549032862E+03  0.15314884710E+03  0.41800000000E+01 0.  1.
         -5    1    3    3    0  502 -0.37575570156E+02  0.44947788365E+02  0.26499266915E+02  0.64435321823E+02  0.41800000000E+01 0.  1.
        -11    1    4    4    0    0 -0.44578306773E+02 -0.81105938541E+01  0.97650999561E+02  0.10765094000E+03  0.00000000000E+00 0.  1.
         11    1    4    4    0    0  0.34512974534E+02 -0.36761917769E+02  0.19395752534E+03  0.20040485435E+03  0.00000000000E+00 0. -1.
</event>
<event>
 8    1  0.3719512E-009  0.6279219E+02  0.7561462E-02  0.1386474E+00
          2   -1    0    0  501    0  0.00000000000E+00  0.00000000000E+00  0.21189679206E+03  0.21189679206E+03  0.00000000000E+00 0. -1.
         -2   -1    0    0    0  501 -0.00000000000E+00 -0.00000000000E+00 -0.56170287309E+02  0.56170287309E+02  0.00000000000E+00 0.  1.
         25    2    1    2    0    0 -0.19517302979E+02  0.40971018211E+01  0.87214081863E+02  0.15379068563E+03  0.12509023764E+03 0.  0.
         23    2    1    2    0    0  0.19517302979E+02 -0.40971018211E+01  0.68512422888E+02  0.11427639373E+03  0.89260465583E+02 0.  0.
          5    1    3    3  502    0 -0.48775501169E+02  0.18687231780E+02 -0.80237995205E+01  0.53010526357E+02  0.41800000000E+01 0. -1.
         -5    1    3    3    0  502  0.29258198189E+02 -0.14590129959E+02  0.95237881383E+02  0.10078015928E+03  0.41800000000E+01 0. -1.
        -11    1    4    4    0    0 -0.88665261118E+01  0.52945243528E+01 -0.19094641394E+02  0.21708353309E+02  0.00000000000E+00 0.  1.
         11    1    4    4    0    0  0.28383829091E+02 -0.93916261739E+01  0.87607064282E+02  0.92568040426E+02  0.00000000000E+00 0. -1.
</event>
<event>
 8    1  0.3719512E-009  0.1064417E+03  0.7561462E-02  0.1267305E+00
          1   -1    0    0  501    0  0.00000000000E+00  0.00000000000E+00  0.46050234201E+02  0.46050234201E+02  0.00000000000E+00 0. -1.
         -1   -1    0    0    0  501 -0.00000000000E+00 -0.00000000000E+00 -0.44383028490E+03  0.44383028490E+03  0.00000000000E+00 0.  1.
         25    2    1    2    0    0  0.84485902293E+00 -0.82387301327E+02 -0.13666793813E+03  0.20277143694E+03  0.12509895731E+03 0.  0.
         23    2    1    2    0    0 -0.84485902293E+00  0.82387301327E+02 -0.26111211258E+03  0.28710908217E+03  0.86392757352E+02 0.  0.
          5    1    3    3  502    0  0.27050320673E+02  0.93590171396E+01 -0.93664064336E+02  0.98029283371E+02  0.41800000000E+01 0.  1.
         -5    1    3    3    0  502 -0.26205461650E+02 -0.91746318467E+02 -0.43003873789E+02  0.10474215356E+03  0.41800000000E+01 0.  1.
        -11    1    4    4    0    0  0.13465323424E+02  0.62586937164E+02 -0.25359149239E+03  0.26154748068E+03  0.00000000000E+00 0.  1.
         11    1    4    4    0    0 -0.14310182447E+02  0.19800364164E+02 -0.75206201893E+01  0.25561601490E+02  0.00000000000E+00 0. -1.
</event>
<event>
 8    1  0.3719512E-009  0.1198997E+03  0.7561462E-02  0.1243263E+00
          2   -1    0    0  501    0  0.00000000000E+00  0.00000000000E+00  0.15226156720E+04  0.15226156720E+04  0.00000000000E+00 0. -1.
         -2   -1    0    0    0  501 -0.00000000000E+00 -0.00000000000E+00 -0.13393449804E+02  0.13393449804E+02  0.00000000000E+00 0.  1.
         25    2    1    2    0    0 -0.46166415532E+02 -0.36350322731E+02  0.12025780011E+04  0.12104931276E+04  0.12508828651E+03 0.  0.
         23    2    1    2    0    0  0.46166415532E+02  0.36350322731E+02  0.30664422109E+03  0.32551599417E+03  0.92072255570E+02 0.  0.
          5    1    3    3  502    0 -0.71269610911E+02 -0.65273215251E+02  0.73646607248E+03  0.74279182708E+03  0.41800000000E+01 0. -1.
         -5    1    3    3    0  502  0.25103195379E+02  0.28922892520E+02  0.46611192860E+03  0.46770130052E+03  0.41800000000E+01 0. -1.
        -11    1    4    4    0    0  0.63295625941E+02  0.51556425791E+02  0.19247509534E+03  0.20907191019E+03  0.00000000000E+00 0.  1.
         11    1    4    4    0    0 -0.17129210409E+02 -0.15206103060E+02  0.11416912575E+03  0.11644408398E+03  0.00000000000E+00 0. -1.
</event>
<event>
 8    1  0.3719512E-009  0.1258714E+03  0.7561462E-02  0.1233714E+00
          2   -1    0    0  501    0  0.00000000000E+00  0.00000000000E+00  0.46662974441E+03  0.46662974441E+03  0.00000000000E+00 0. -1.
         -2   -1    0    0    0  501 -0.00000000000E+00 -0.00000000000E+00 -0.58354866291E+02  0.58354866291E+02  0.00000000000E+00 0.  1.
         25    2    1    2    0    0 -0.31722667644E+02 -0.89160577627E+02  0.34551732501E+03  0.37945512550E+03  0.12509210263E+03 0.  0.
         23    2    1    2    0    0  0.31722667644E+02  0.89160577627E+02  0.62757553110E+02  0.14552948520E+03  0.91018593407E+02 0.  0.
          5    1    3    3  502    0  0.59023726422E+01 -0.83712639671E+02  0.98390775322E+02  0.12938647963E+03  0.41800000000E+01 0.  1.
         -5    1    3    3    0  502 -0.37625040287E+02 -0.54479379551E+01  0.24712654969E+03  0.25006864587E+03  0.41800000000E+01 0.  1.
        -11    1    4    4    0    0  0.36017462573E+02 -0.39759663502E+01  0.70390925280E+01  0.36913611883E+02  0.00000000000E+00 0.  1.
         11    1    4    4    0    0 -0.42947949287E+01  0.93136543977E+02  0.55718460582E+02  0.10861587332E+03  0.00000000000E+00 0. -1.
</event>
<event>
 8    1  0.3719512E-009  0.1382379E+03  0.7561462E-02  0.1215720E+00
         -1   -1    0    0    0  501 -0.00000000000E+00  0.00000000000E+00  0.30457892970E+03  0.30457892970E+03  0.00000000000E+00 0.  1.
          1   -1    0    0  501    0  0.00000000000E+00 -0.00000000000E+00 -0.11203030316E+03  0.11203030316E+03  0.00000000000E+00 0. -1.
         25    2    1    2    0    0 -0.11901194221E+03  0.58044250805E+02  0.19841925402E+02  0.18323336437E+03  0.12509111229E+03 0.  0.
         23    2    1    2    0    0  0.11901194221E+03 -0.58044250805E+02  0.17270670114E+03  0.23337586849E+03  0.84283532991E+02 0.  0.
          5    1    3    3  502    0 -0.67795418121E+02  0.35544813156E+02  0.73066563841E+02  0.10590489890E+03  0.41800000000E+01 0. -1.
         -5    1    3    3    0  502 -0.51216524092E+02  0.22499437650E+02 -0.53224638439E+02  0.77328465467E+02  0.41800000000E+01 0. -1.
        -11    1    4    4    0    0  0.10133491070E+03 -0.22181481525E+02  0.16133657712E+03  0.19180790746E+03  0.00000000000E+00 0.  1.
         11    1    4    4    0    0  0.17677031517E+02 -0.35862769281E+02  0.11370124022E+02  0.41567961028E+02  0.00000000000E+00 0. -1.
</event>
<event>
 8    1  0.3719512E-009  0.1143483E+03  0.7561462E-02  0.1252723E+00
          1   -1    0    0  501    0  0.00000000000E+00  0.00000000000E+00  0.64141470040E+02  0.64141470040E+02  0.00000000000E+00 0. -1.
         -1   -1    0    0    0  501 -0.00000000000E+00 -0.00000000000E+00 -0.36483561713E+03  0.36483561713E+03  0.00000000000E+00 0.  1.
         25    2    1    2    0    0 -0.19760185450E+02  0.79235003785E+02 -0.64375306758E+02  0.16266703062E+03  0.12509089486E+03 0.  0.
         23    2    1    2    0    0  0.19760185450E+02 -0.79235003785E+02 -0.23631884033E+03  0.26631005655E+03  0.91683156412E+02 0.  0.
          5    1    3    3  502    0  0.45730027689E+02  0.56953702286E+01 -0.26000671281E+01  0.46345500575E+02  0.41800000000E+01 0.  1.
         -5    1    3    3    0  502 -0.65490213140E+02  0.73539633557E+02 -0.61775239630E+02  0.11632153005E+03  0.41800000000E+01 0.  1.
        -11    1    4    4    0    0  0.22956756698E+02 -0.57836438568E+02 -0.23662682260E+03  0.24467186082E+03  0.00000000000E+00 0.  1.
         11    1    4    4    0    0 -0.31965712475E+01 -0.21398565217E+02  0.30798227248E+00  0.21638195723E+02  0.00000000000E+00 0. -1.
</event>
<event>
 8    1  0.3719512E-009  0.1068013E+03  0.7561462E-02  0.1266611E+00
          1   -1    0    0  501    0  0.00000000000E+00  0.00000000000E+00  0.79362641796E+03  0.79362641796E+03  0.00000000000E+00 0. -1.
         -1   -1    0    0    0  501 -0.00000000000E+00 -0.00000000000E+00 -0.23041065522E+02  0.23041065522E+02  0.00000000000E+00 0.  1.
         25    2    1    2    0    0 -0.16987747410E+01  0.47008112300E+02  0.62096332437E+03  0.63518205224E+03  0.12509252901E+03 0.  0.
         23    2    1    2    0    0  0.16987747410E+01 -0.47008112300E+02  0.14962202807E+03  0.18148543125E+03  0.91310251417E+02 0.  0.
          5    1    3    3  502    0  0.24437367866E+02  0.84310763002E+02  0.40255343807E+03  0.41203426145E+03  0.41800000000E+01 0. -1.
         -5    1    3    3    0  502 -0.26136142607E+02 -0.37302650703E+02  0.21840988629E+03  0.22314779078E+03  0.41800000000E+01 0. -1.
        -11    1    4    4    0    0 -0.31480077207E+02 -0.24494057414E+02  0.13162414141E+03  0.13753497268E+03  0.00000000000E+00 0. -1.
         11    1    4    4    0    0  0.33178851948E+02 -0.22514054885E+02  0.17997886666E+02  0.43950458569E+02  0.00000000000E+00 0.  1.
</event>
<event>
 8    1  0.3719512E-009  0.1324558E+03  0.7561462E-02  0.1223857E+00
          1   -1    0    0  501    0  0.00000000000E+00  0.00000000000E+00  0.89027943589E+03  0.89027943589E+03  0.00000000000E+00 0. -1.
         -1   -1    0    0    0  501 -0.00000000000E+00 -0.00000000000E+00 -0.24087800758E+02  0.24087800758E+02  0.00000000000E+00 0.  1.
         25    2    1    2    0    0 -0.79512467247E+02  0.55420114863E+02  0.52872729927E+03  0.55189957640E+03  0.12508782460E+03 0.  0.
         23    2    1    2    0    0  0.79512467247E+02 -0.55420114863E+02  0.33746433586E+03  0.36246766024E+03  0.90038909170E+02 0.  0.
          5    1    3    3  502    0 -0.10120549776E+03  0.61877023463E+02  0.50531479139E+03  0.51906823213E+03  0.41800000000E+01 0.  1.
         -5    1    3    3    0  502  0.21693030514E+02 -0.64569086004E+01  0.23412507876E+02  0.32831344270E+02  0.41800000000E+01 0.  1.
        -11    1    4    4    0    0  0.45043556757E+02  0.12747347305E+02  0.69250796931E+02  0.83588813511E+02  0.00000000000E+00 0.  1.
         11    1    4    4    0    0  0.34468910489E+02 -0.68167462168E+02  0.26821353893E+03  0.27887884673E+03  0.00000000000E+00 0. -1.
</event>
<event>
 8    1  0.3719512E-009  0.1165064E+03  0.7561462E-02  0.1248974E+00
          1   -1    0    0  501    0  0.00000000000E+00  0.00000000000E+00  0.26555068674E+03  0.26555068674E+03  0.00000000000E+00 0. -1.
         -1   -1    0    0    0  501 -0.00000000000E+00 -0.00000000000E+00 -0.81629327045E+02  0.81629327045E+02  0.00000000000E+00 0.  1.
         25    2    1    2    0    0  0.62172150961E+02 -0.35073642955E+02  0.19309889430E+02  0.14530850096E+03  0.12508457874E+03 0.  0.
         23    2    1    2    0    0 -0.62172150961E+02  0.35073642955E+02  0.16461147027E+03  0.20187151282E+03  0.92518294197E+02 0.  0.
          5    1    3    3  502    0  0.77251358165E+02  0.16281088129E+02 -0.16517190036E+02  0.80765934253E+02  0.41800000000E+01 0. -1.
         -5    1    3    3    0  502 -0.15079207204E+02 -0.51354731084E+02  0.35827079466E+02  0.64542566712E+02  0.41800000000E+01 0. -1.
        -11    1    4    4    0    0 -0.73018974121E+02  0.44827045779E+02  0.84132581891E+02  0.12008133057E+03  0.00000000000E+00 0.  1.
         11    1    4    4    0    0  0.10846823161E+02 -0.97534028246E+01  0.80478888377E+02  0.81790182258E+02  0.00000000000E+00 0. -1.
</event>
<event>
 8    1  0.3719512E-009  0.7524597E+02  0.7561462E-02  0.1343111E+00
          1   -1    0    0  501    0  0.00000000000E+00  0.00000000000E+00  0.10750293853E+03  0.10750293853E+03  0.00000000000E+00 0. -1.
         -1   -1    0    0    0  501 -0.00000000000E+00 -0.00000000000E+00 -0.16091612720E+03  0.16091612720E+03  0.00000000000E+00 0.  1.
         25    2    1    2    0    0  0.11970432462E+02 -0.42472514710E+02  0.29004817606E+02  0.13578578485E+03  0.12509713891E+03 0.  0.
         23    2    1    2    0    0 -0.11970432462E+02  0.42472514710E+02 -0.82418006277E+02  0.13263328088E+03  0.94083227405E+02 0.  0.
          5    1    3    3  502    0  0.23464252235E+02 -0.69286825217E+02 -0.22324741684E+02  0.76597008903E+02  0.41800000000E+01 0.  1.
         -5    1    3    3    0  502 -0.11493819773E+02  0.26814310507E+02  0.51329559290E+02  0.59188775945E+02  0.41800000000E+01 0.  1.
        -11    1    4    4    0    0 -0.13872398403E+02  0.15870767891E+02 -0.99006469296E+02  0.10122551888E+03  0.00000000000E+00 0.  1.
         11    1    4    4    0    0  0.19019659417E+01  0.26601746819E+02  0.16588463018E+02  0.31407761996E+02  0.00000000000E+00 0. -1.
</event>
<event>
 8    1  0.3719512E-009  0.7368234E+02  0.7561462E-02  0.1348001E+00
         -1   -1    0    0    0  501 -0.00000000000E+00  0.00000000000E+00  0.26598608037E+02  0.26598608037E+02  0.00000000000E+00 0.  1.
          1   -1    0    0  501    0  0.00000000000E+00 -0.00000000000E+00 -0.60434078921E+03  0.60434078921E+03  0.00000000000E+00 0. -1.
         25    2    1    2    0    0 -0.27230308405E+02 -0.45265602853E+02 -0.22377724934E+03  0.26175016405E+03  0.12508567688E+03 0.  0.
         23    2    1    2    0    0  0.27230308405E+02  0.45265602853E+02 -0.35396493183E+03  0.36918923320E+03  0.90658989870E+02 0.  0.
          5    1    3    3  502    0 -0.14269279968E+02 -0.55042149645E+02 -0.23484173568E+03  0.24166374119E+03  0.41800000000E+01 0. -1.
         -5    1    3    3    0  502 -0.12961028437E+02  0.97765467918E+01  0.11064486340E+02  0.20086422860E+02  0.41800000000E+01 0. -1.
        -11    1    4    4    0    0 -0.14378576264E+02  0.38660186795E+01 -0.55897140041E+01  0.15903913307E+02  0.00000000000E+00 0.  1.
         11    1    4    4    0    0  0.41608884669E+02  0.41399584174E+02 -0.34837521783E+03  0.35328531989E+03  0.00000000000E+00 0. -1.
</event>
<event>
 8    1  0.3719512E-009  0.8921741E+02  0.7561462E-02  0.1304758E+00
         -1   -1    0    0    0  501 -0.00000000000E+00  0.00000000000E+00  0.11320958030E+03  0.11320958030E+03  0.00000000000E+00 0.  1.
          1   -1    0    0  501    0  0.00000000000E+00 -0.00000000000E+00 -0.11012767060E+03  0.11012767060E+03  0.00000000000E+00 0. -1.
         25    2    1    2    0    0 -0.48787975457E+01  0.25481115247E+02  0.64221982130E+01  0.12791583081E+03  0.12509246677E+03 0.  0.
         23    2    1    2    0    0  0.48787975457E+01 -0.25481115247E+02 -0.33402885217E+01  0.95421420085E+02  0.91766006691E+02 0.  0.
          5    1    3    3  502    0 -0.30714633677E+02 -0.31032778118E+02  0.38049057085E+02  0.58065697143E+02  0.41800000000E+01 0.  1.
         -5    1    3    3    0  502  0.25835836131E+02  0.56513893364E+02 -0.31626858872E+02  0.69850133671E+02  0.41800000000E+01 0.  1.
        -11    1    4    4    0    0 -0.16890613117E+02 -0.41801469736E+02 -0.32470960135E+02  0.55560947937E+02  0.00000000000E+00 0. -1.
         11    1    4    4    0    0  0.21769410663E+02  0.16320354489E+02  0.29130671614E+02  0.39860472149E+02  0.00000000000E+00 0.  1.
</event>
<event>
 8    1  0.3719512E-009  0.1029598E+03  0.7561462E-02  0.1274192E+00
          1   -1    0    0  501    0  0.00000000000E+00  0.00000000000E+00  0.69479623588E+03  0.69479623588E+03  0.00000000000E+00 0. -1.
         -1   -1    0    0    0  501 -0.00000000000E+00 -0.00000000000E+00 -0.29113951697E+02  0.29113951697E+02  0.00000000000E+00 0.  1.
         25    2    1    2    0    0  0.74911610920E+02  0.37293619296E+01  0.22762810565E+03  0.27034698541E+03  0.12508909004E+03 0.  0.
         23    2    1    2    0    0 -0.74911610920E+02 -0.37293619296E+01  0.43805417854E+03  0.45356320217E+03  0.90567419295E+02 0.  0.
          5    1    3    3  502    0  0.77258088078E+02 -0.16118820831E+02  0.54459804707E+02  0.95979014827E+02  0.41800000000E+01 0. -1.
         -5    1    3    3    0  502 -0.23464771573E+01  0.19848182761E+02  0.17316830094E+03  0.17436797058E+03  0.41800000000E+01 0. -1.
        -11    1    4    4    0    0 -0.35578772770E+02 -0.39599964532E+02  0.12274794111E+03  0.13379485532E+03  0.00000000000E+00 0.  1.
         11    1    4    4    0    0 -0.39332838151E+02  0.35870602602E+02  0.31530623743E+03  0.31976834685E+03  0.00000000000E+00 0. -1.
</event>
<event>
 8    1  0.3719512E-009  0.1330650E+03  0.7561462E-02  0.1222977E+00
          1   -1    0    0  501    0  0.00000000000E+00  0.00000000000E+00  0.13227113566E+03  0.13227113566E+03  0.00000000000E+00 0. -1.
         -1   -1    0    0    0  501 -0.00000000000E+00 -0.00000000000E+00 -0.14953034695E+03  0.14953034695E+03  0.00000000000E+00 0.  1.
         25    2    1    2    0    0 -0.51209907929E+02  0.74484411162E+02 -0.17922814411E+02  0.15537704036E+03  0.12510161957E+03 0.  0.
         23    2    1    2    0    0  0.51209907929E+02 -0.74484411162E+02  0.66360312400E+00  0.12642444225E+03  0.88387312731E+02 0.  0.
          5    1    3    3  502    0 -0.42919062458E+02 -0.19761457314E+02  0.22388130985E+02  0.52452473025E+02  0.41800000000E+01 0. -1.
         -5    1    3    3    0  502 -0.82908454714E+01  0.94245868476E+02 -0.40310945397E+02  0.10292456734E+03  0.41800000000E+01 0. -1.
        -11    1    4    4    0    0  0.36453404738E+02  0.10342688014E+02  0.11608509467E+02  0.39630536262E+02  0.00000000000E+00 0. -1.
         11    1    4    4    0    0  0.14756503191E+02 -0.84827099176E+02 -0.10944906343E+02  0.86793905984E+02  0.00000000000E+00 0.  1.
</event>
<event>
 8    1  0.3719512E-009  0.6759539E+02  0.7561462E-02  0.1368466E+00
          1   -1    0    0  501    0  0.00000000000E+00  0.00000000000E+00  0.36370047133E+02  0.36370047133E+02  0.00000000000E+00 0. -1.
         -1   -1    0    0    0  501 -0.00000000000E+00 -0.00000000000E+00 -0.41672418479E+03  0.41672418479E+03  0.00000000000E+00 0.  1.
         25    2    1    2    0    0 -0.14487792053E+02  0.32816233760E+02 -0.12769061879E+03  0.18231678863E+03  0.12509083090E+03 0.  0.
         23    2    1    2    0    0  0.14487792053E+02 -0.32816233760E+02 -0.25266351887E+03  0.27077744329E+03  0.90524961804E+02 0.  0.
          5    1    3    3  502    0 -0.85424659494E+01  0.27937322596E+02 -0.15285270273E+03  0.15567558849E+03  0.41800000000E+01 0.  1.
         -5    1    3    3    0  502 -0.59453261040E+01  0.48789111642E+01  0.25162083946E+02  0.26641200145E+02  0.41800000000E+01 0.  1.
        -11    1    4    4    0    0  0.44142847909E+02 -0.46630761759E+02 -0.15473516808E+03  0.16752907570E+03  0.00000000000E+00 0.  1.
         11    1    4    4    0    0 -0.29655055855E+02  0.13814527999E+02 -0.97928350785E+02  0.10324836759E+03  0.00000000000E+00 0. -1.
</event>
<event>
 8    1  0.3719512E-009  0.8818163E+02  0.7561462E-02  0.1307316E+00
          1   -1    0    0  501    0  0.00000000000E+00  0.00000000000E+00  0.38607500729E+03  0.38607500729E+03  0.00000000000E+00 0. -1.
         -1   -1    0    0    0  501 -0.00000000000E+00 -0.00000000000E+00 -0.44843858880E+02  0.44843858880E+02  0.00000000000E+00 0.  1.
         25    2    1    2    0    0  0.62708210301E+02  0.13503915027E+02  0.25415432466E+03  0.29044183094E+03  0.12508941225E+03 0.  0.
         23    2    1    2    0    0 -0.62708210301E+02 -0.13503915027E+02  0.87076823754E+02  0.14047703523E+03  0.89647915941E+02 0.  0.
          5    1    3    3  502    0  0.19369648675E+02 -0.15656797692E+02 -0.52525274415E+01  0.25794961684E+02  0.41800000000E+01 0. -1.
         -5    1    3    3    0  502  0.43338561626E+02  0.29160712719E+02  0.25940685210E+03  0.26464686926E+03  0.41800000000E+01 0. -1.
        -11    1    4    4    0    0  0.96370312763E+01 -0.23757521364E+02 -0.14641667238E+01  0.25679485535E+02  0.00000000000E+00 0.  1.
         11    1    4    4    0    0 -0.72345241578E+02  0.10253606337E+02  0.88540990478E+02  0.11479754970E+03  0.00000000000E+00 0. -1.
</event>
<event>
 8    1  0.3719512E-009  0.2118043E+03  0.7561462E-02  0.1140145E+00
         -2   -1    0    0    0  501 -0.00000000000E+00  0.00000000000E+00  0.69647610268E+02  0.69647610268E+02  0.00000000000E+00 0.  1.
          2   -1    0    0  501    0  0.00000000000E+00 -0.00000000000E+00 -0.90231724393E+03  0.90231724393E+03  0.00000000000E+00 0. -1.
         25    2    1    2    0    0 -0.14834179755E+03 -0.12799428455E+03 -0.64650773126E+03  0.68702763559E+03  0.12508756816E+03 0.  0.
         23    2    1    2    0    0  0.14834179755E+03  0.12799428455E+03 -0.18616190241E+03  0.28493721861E+03  0.90250423069E+02 0.  0.
          5    1    3    3  502    0  0.96543815867E+01  0.25495338221E+01 -0.14272879442E+03  0.14313870323E+03  0.41800000000E+01 0.  1.
         -5    1    3    3    0  502 -0.15799617914E+03 -0.13054381837E+03 -0.50377893684E+03  0.54388893236E+03  0.41800000000E+01 0.  1.
        -11    1    4    4    0    0  0.39406005940E+02  0.79127884774E+02 -0.11805933851E+03  0.14748580563E+03  0.00000000000E+00 0.  1.
         11    1    4    4    0    0  0.10893579161E+03  0.48866399772E+02 -0.68102563898E+02  0.13745141298E+03  0.00000000000E+00 0. -1.
</event>
<event>
 8    1  0.3719512E-009  0.1199657E+03  0.7561462E-02  0.1243154E+00
          4   -1    0    0  501    0  0.00000000000E+00  0.00000000000E+00  0.44570230046E+03  0.44570230046E+03  0.00000000000E+00 0. -1.
         -4   -1    0    0    0  501 -0.00000000000E+00 -0.00000000000E+00 -0.57085635135E+02  0.57085635135E+02  0.00000000000E+00 0.  1.
         25    2    1    2    0    0  0.24539889014E+02 -0.97222013743E+02  0.30298811476E+03  0.34278903437E+03  0.12509275874E+03 0.  0.
         23    2    1    2    0    0 -0.24539889014E+02  0.97222013743E+02  0.85628550562E+02  0.15999890122E+03  0.90626009582E+02 0.  0.
          5    1    3    3  502    0  0.19159654378E+02 -0.11705644688E+03  0.16520758020E+03  0.20342153540E+03  0.41800000000E+01 0.  1.
         -5    1    3    3    0  502  0.53802346364E+01  0.19834433136E+02  0.13778053457E+03  0.13936749897E+03  0.41800000000E+01 0.  1.
        -11    1    4    4    0    0 -0.99019181879E+01  0.38702768234E+02 -0.15002042191E+02  0.42673335031E+02  0.00000000000E+00 0.  1.
         11    1    4    4    0    0 -0.14637970826E+02  0.58519245510E+02  0.10063059275E+03  0.11732556619E+03  0.00000000000E+00 0. -1.
</event>
<event>
 8    1  0.3719512E-009  0.1613458E+03  0.7561462E-02  0.1187186E+00
         -4   -1    0    0    0  501 -0.00000000000E+00  0.00000000000E+00  0.19579795462E+03  0.19579795462E+03  0.00000000000E+00 0.  1.
          4   -1    0    0  501    0  0.00000000000E+00 -0.00000000000E+00 -0.20358583416E+03  0.20358583416E+03  0.00000000000E+00 0. -1.
         25    2    1    2    0    0 -0.39944203955E+02 -0.11741365579E+03 -0.11601728582E+03  0.21091861622E+03  0.12508055829E+03 0.  0.
         23    2    1    2    0    0  0.39944203955E+02  0.11741365579E+03  0.10822940629E+03  0.18846517256E+03  0.91782410560E+02 0.  0.
          5    1    3    3  502    0 -0.24370435843E+02 -0.13915591576E+03 -0.70457841709E+02  0.15792424416E+03  0.41800000000E+01 0. -1.
         -5    1    3    3    0  502 -0.15573768111E+02  0.21742259972E+02 -0.45559444113E+02  0.52994372057E+02  0.41800000000E+01 0. -1.
        -11    1    4    4    0    0  0.48405726405E+02  0.13808661895E+02  0.35916097534E+02  0.61836555161E+02  0.00000000000E+00 0.  1.
         11    1    4    4    0    0 -0.84615224505E+01  0.10360499390E+03  0.72313308753E+02  0.12662861740E+03  0.00000000000E+00 0. -1.
</event>
<event>
 8    1  0.3719512E-009  0.9031957E+02  0.7561462E-02  0.1302080E+00
         -2   -1    0    0    0  501 -0.00000000000E+00  0.00000000000E+00  0.79186517510E+02  0.79186517510E+02  0.00000000000E+00 0.  1.
          2   -1    0    0  501    0  0.00000000000E+00 -0.00000000000E+00 -0.18586395438E+03  0.18586395438E+03  0.00000000000E+00 0. -1.
         25    2    1    2    0    0  0.11624955590E+02  0.33555414077E+02 -0.10405660516E+03  0.16654459399E+03  0.12509284274E+03 0.  0.
         23    2    1    2    0    0 -0.11624955590E+02 -0.33555414077E+02 -0.26208317119E+01  0.98505877899E+02  0.91844617782E+02 0.  0.
          5    1    3    3  502    0  0.35766782787E+02 -0.11582584649E+02 -0.10858619090E+03  0.11498631341E+03  0.41800000000E+01 0.  1.
         -5    1    3    3    0  502 -0.24141827198E+02  0.45137998726E+02  0.45295857407E+01  0.51558280580E+02  0.41800000000E+01 0.  1.
        -11    1    4    4    0    0 -0.47337095816E+02 -0.91902708731E+01 -0.19609333625E+02  0.52055621063E+02  0.00000000000E+00 0.  1.
         11    1    4    4    0    0  0.35712140227E+02 -0.24365143204E+02  0.16988501913E+02  0.46450256836E+02  0.00000000000E+00 0. -1.
</event>
<event>
 8    1  0.3719512E-009  0.1240378E+03  0.7561462E-02  0.1236581E+00
          2   -1    0    0  501    0  0.00000000000E+00  0.00000000000E+00  0.86998431885E+02  0.86998431885E+02  0.00000000000E+00 0. -1.
         -2   -1    0    0    0  501 -0.00000000000E+00 -0.00000000000E+00 -0.25944370808E+03  0.25944370808E+03  0.00000000000E+00 0.  1.
         25    2    1    2    0    0  0.21096149361E+02  0.79007327532E+02 -0.16709749167E+03  0.22418013717E+03  0.12509179372E+03 0.  0.
         23    2    1    2    0    0 -0.21096149361E+02 -0.79007327532E+02 -0.53477845275E+01  0.12226200280E+03  0.90731434510E+02 0.  0.
          5    1    3    3  502    0 -0.43425736248E+02  0.61008954787E+02 -0.53112770138E+02  0.91903894828E+02  0.41800000000E+01 0. -1.
         -5    1    3    3    0  502  0.64521885609E+02  0.17998372744E+02 -0.11398472153E+03  0.13227624234E+03  0.41800000000E+01 0. -1.
        -11    1    4    4    0    0 -0.16602338805E+02  0.82816276783E+01 -0.26485936209E+02  0.32337715251E+02  0.00000000000E+00 0.  1.
         11    1    4    4    0    0 -0.44938105556E+01 -0.87288955210E+02  0.21138151682E+02  0.89924287550E+02  0.00000000000E+00 0. -1.
</event>
<event>
 8    1  0.3719512E-009  0.1315448E+03  0.7561462E-02  0.1225181E+00
          2   -1    0    0  501    0  0.00000000000E+00  0.00000000000E+00  0.10970126251E+04  0.10970126251E+04  0.00000000000E+00 0. -1.
         -2   -1    0    0    0  501 -0.00000000000E+00 -0.00000000000E+00 -0.26792231446E+02  0.26792231446E+02  0.00000000000E+00 0.  1.
         25    2    1    2    0    0 -0.10349138888E+03 -0.19231511186E+02  0.84477520722E+03  0.86044998655E+03  0.12509480410E+03 0.  0.
         23    2    1    2    0    0  0.10349138888E+03  0.19231511186E+02  0.22544518643E+03  0.26335487000E+03  0.86313016828E+02 0.  0.
          5    1    3    3  502    0 -0.65899186342E+02 -0.64644194199E+02  0.66040574181E+03  0.66683940407E+03  0.41800000000E+01 0.  1.
         -5    1    3    3    0  502 -0.37592202535E+02  0.45412683013E+02  0.18436946541E+03  0.19361058247E+03  0.41800000000E+01 0.  1.
        -11    1    4    4    0    0  0.17069950470E+02  0.18479109751E+02  0.37821054953E+01  0.25439438441E+02  0.00000000000E+00 0. -1.
         11    1    4    4    0    0  0.86421438407E+02  0.75240143539E+00  0.22166308093E+03  0.23791543156E+03  0.00000000000E+00 0.  1.
</event>
<event>
 8    1  0.3719512E-009  0.1148814E+03  0.7561462E-02  0.1251788E+00
         -1   -1    0    0    0  501 -0.00000000000E+00  0.00000000000E+00  0.15140849345E+03  0.15140849345E+03  0.00000000000E+00 0.  1.
          1   -1    0    0  501    0  0.00000000000E+00 -0.00000000000E+00 -0.13555427507E+03  0.13555427507E+03  0.00000000000E+00 0. -1.
         25    2    1    2    0    0  0.87651037052E+02  0.13877187432E+02  0.36696241116E+02  0.15770449078E+03  0.12509521043E+03 0.  0.
         23    2    1    2    0    0 -0.87651037052E+02 -0.13877187432E+02 -0.20842022745E+02  0.12925827774E+03  0.91640775999E+02 0.  0.
          5    1    3    3  502    0  0.67719772885E+02  0.44581287948E+02 -0.25774850439E+02  0.85177897308E+02  0.41800000000E+01 0. -1.
         -5    1    3    3    0  502  0.19931264167E+02 -0.30704100517E+02  0.62471091555E+02  0.72526593467E+02  0.41800000000E+01 0. -1.
        -11    1    4    4    0    0 -0.46317479425E+02 -0.41361313207E+02  0.19722811406E+02  0.65154097494E+02  0.00000000000E+00 0.  1.
         11    1    4    4    0    0 -0.41333557627E+02  0.27484125776E+02 -0.40564834151E+02  0.64104180249E+02  0.00000000000E+00 0. -1.
</event>
<event>
 8    1  0.3719512E-009  0.1216632E+03  0.7561462E-02  0.1240378E+00
          4   -1    0    0  501    0  0.00000000000E+00  0.00000000000E+00  0.52885489484E+02  0.52885489484E+02  0.00000000000E+00 0. -1.
         -4   -1    0    0    0  501 -0.00000000000E+00 -0.00000000000E+00 -0.37915136050E+03  0.37915136050E+03  0.00000000000E+00 0.  1.
         25    2    1    2    0    0  0.89169297442E+02 -0.19156223597E+02 -0.18443498580E+03  0.24079106244E+03  0.12508376096E+03 0.  0.
         23    2    1    2    0    0 -0.89169297442E+02  0.19156223597E+02 -0.14183088522E+03  0.19124578754E+03  0.90226530147E+02 0.  0.
          5    1    3    3  502    0  0.34896960806E+02  0.27963716398E+02 -0.15773495006E+03  0.16400473828E+03  0.41800000000E+01 0.  1.
         -5    1    3    3    0  502  0.54272336635E+02 -0.47119939996E+02 -0.26700035733E+02  0.76786324155E+02  0.41800000000E+01 0.  1.
        -11    1    4    4    0    0 -0.38668056983E+02  0.53013616239E+02 -0.57264601692E+02  0.87091312682E+02  0.00000000000E+00 0.  1.
         11    1    4    4    0    0 -0.50501240458E+02 -0.33857392642E+02 -0.84566283526E+02  0.10415447486E+03  0.00000000000E+00 0. -1.
</event>
<event>
 8    1  0.3719512E-009  0.1560595E+03  0.7561462E-02  0.1193219E+00
          2   -1    0    0  501    0  0.00000000000E+00  0.00000000000E+00  0.14157129549E+04  0.14157129549E+04  0.00000000000E+00 0. -1.
         -2   -1    0    0    0  501 -0.00000000000E+00 -0.00000000000E+00 -0.23968081867E+02  0.23968081867E+02  0.00000000000E+00 0.  1.
         25    2    1    2    0    0  0.11187741190E+03  0.44464654893E+02  0.10744487456E+04  0.10883828822E+04  0.12507409943E+03 0.  0.
         23    2    1    2    0    0 -0.11187741190E+03 -0.44464654893E+02  0.31729612737E+03  0.35129815458E+03  0.90773895695E+02 0.  0.
          5    1    3    3  502    0  0.84373304659E+02  0.80149500220E+02  0.92307634551E+03  0.93039250263E+03  0.41800000000E+01 0.  1.
         -5    1    3    3    0  502  0.27504107242E+02 -0.35684845327E+02  0.15137240014E+03  0.15799037953E+03  0.41800000000E+01 0.  1.
        -11    1    4    4    0    0 -0.11701465635E+03 -0.12083808406E+02  0.25765984799E+03  0.28324379162E+03  0.00000000000E+00 0. -1.
         11    1    4    4    0    0  0.51372444444E+01 -0.32380846487E+02  0.59636279376E+02  0.68054362957E+02  0.00000000000E+00 0.  1.
</event>
<event>
 8    1  0.3719512E-009  0.1329407E+03  0.7561462E-02  0.1223156E+00
          1   -1    0    0  501    0  0.00000000000E+00  0.00000000000E+00  0.34137453808E+02  0.34137453808E+02  0.00000000000E+00 0. -1.
         -1   -1    0    0    0  501 -0.00000000000E+00 -0.00000000000E+00 -0.10571643947E+04  0.10571643947E+04  0.00000000000E+00 0.  1.
         25    2    1    2    0    0  0.49175792598E+02  0.11160162528E+03 -0.81191401208E+03  0.83049681250E+03  0.12508961276E+03 0.  0.
         23    2    1    2    0    0 -0.49175792598E+02 -0.11160162528E+03 -0.21111292880E+03  0.26080503599E+03  0.92614344189E+02 0.  0.
          5    1    3    3  502    0  0.64946614355E+02  0.64668765857E+02 -0.72166487116E+03  0.72747355324E+03  0.41800000000E+01 0. -1.
         -5    1    3    3    0  502 -0.15770821757E+02  0.46932859425E+02 -0.90249140918E+02  0.10302325926E+03  0.41800000000E+01 0. -1.
        -11    1    4    4    0    0 -0.20226314168E+02 -0.75546025396E+02 -0.19778113460E+03  0.21268211712E+03  0.00000000000E+00 0.  1.
         11    1    4    4    0    0 -0.28949478430E+02 -0.36055599886E+02 -0.13331794200E+02  0.48122918875E+02  0.00000000000E+00 0. -1.
</event>
<event>
 8    1  0.3719512E-009  0.1191001E+03  0.7561462E-02  0.1244589E+00
         -1   -1    0    0    0  501 -0.00000000000E+00  0.00000000000E+00  0.81206515437E+02  0.81206515437E+02  0.00000000000E+00 0.  1.
          1   -1    0    0  501    0  0.00000000000E+00 -0.00000000000E+00 -0.19074286429E+03  0.19074286429E+03  0.00000000000E+00 0. -1.
         25    2    1    2    0    0 -0.39154299101E+02  0.46502533004E+02 -0.50622585576E+02  0.14800670357E+03  0.12509114044E+03 0.  0.
         23    2    1    2    0    0  0.39154299101E+02 -0.46502533004E+02 -0.58913763280E+02  0.12394267616E+03  0.90528507975E+02 0.  0.
          5    1    3    3  502    0 -0.80106400304E+02  0.53294433464E+02 -0.43530306266E+02  0.10568676346E+03  0.41800000000E+01 0.  1.
         -5    1    3    3    0  502  0.40952101203E+02 -0.67919004593E+01 -0.70922793105E+01  0.42319940106E+02  0.41800000000E+01 0.  1.
        -11    1    4    4    0    0 -0.10045706902E+02 -0.49856813218E+02 -0.53571269193E+01  0.51140168754E+02  0.00000000000E+00 0. -1.
         11    1    4    4    0    0  0.49200006002E+02  0.33542802136E+01 -0.53556636360E+02  0.72802507406E+02  0.00000000000E+00 0.  1.
</event>
<event>
 8    1  0.3719512E-009  0.1193793E+03  0.7561462E-02  0.1244125E+00
          2   -1    0    0  501    0  0.00000000000E+00  0.00000000000E+00  0.13560333783E+04  0.13560333783E+04  0.00000000000E+00 0. -1.
         -2   -1    0    0    0  501 -0.00000000000E+00 -0.00000000000E+00 -0.10851080837E+02  0.10851080837E+02  0.00000000000E+00 0.  1.
         25    2    1    2    0    0 -0.39102709111E+02 -0.37714377552E+02  0.76025905777E+03  0.77239439762E+03  0.12509146418E+03 0.  0.
         23    2    1    2    0    0  0.39102709111E+02  0.37714377552E+02  0.58492323972E+03  0.59449006155E+03  0.91278917516E+02 0.  0.
          5    1    3    3  502    0 -0.49316298484E+02  0.34209143067E+02  0.25996402729E+03  0.26683539992E+03  0.41800000000E+01 0. -1.
         -5    1    3    3    0  502  0.10213589374E+02 -0.71923520619E+02  0.50029503048E+03  0.50555899769E+03  0.41800000000E+01 0. -1.
        -11    1    4    4    0    0  0.51179552521E+02 -0.13726838681E+02  0.31845749317E+03  0.32283579054E+03  0.00000000000E+00 0. -1.
         11    1    4    4    0    0 -0.12076843411E+02  0.51441216232E+02  0.26646574655E+03  0.27165427101E+03  0.00000000000E+00 0.  1.
</event>
<event>
 8    1  0.3719512E-009  0.8280700E+02  0.7561462E-02  0.1321269E+00
         -2   -1    0    0    0  501 -0.00000000000E+00  0.00000000000E+00  0.80148550371E+02  0.80148550371E+02  0.00000000000E+00 0. -1.
          2   -1    0    0  501    0  0.00000000000E+00 -0.00000000000E+00 -0.15956790112E+03  0.15956790112E+03  0.00000000000E+00 0.  1.
         25    2    1    2    0    0 -0.69450252611E+01  0.41686244903E+01 -0.22650081497E+02  0.12738632284E+03  0.12509451727E+03 0.  0.
         23    2    1    2    0    0  0.69450252611E+01 -0.41686244903E+01 -0.56769269256E+02  0.11233012865E+03  0.96590356995E+02 0.  0.
          5    1    3    3  502    0 -0.44394154764E+02 -0.38114170956E+02 -0.36489291749E+02  0.69083079095E+02  0.41800000000E+01 0.  1.
         -5    1    3    3    0  502  0.37449129503E+02  0.42282795446E+02  0.13839210253E+02  0.58303243749E+02  0.41800000000E+01 0.  1.
        -11    1    4    4    0    0  0.22958300390E+02 -0.17987383581E+02 -0.77443251573E+02  0.82753167547E+02  0.00000000000E+00 0.  1.
         11    1    4    4    0    0 -0.16013275129E+02  0.13818759090E+02  0.20673982317E+02  0.29576961102E+02  0.00000000000E+00 0. -1.
</event>
<event>
 8    1  0.3719512E-009  0.1163386E+03  0.7561462E-02  0.1249262E+00
         -1   -1    0    0    0  501 -0.00000000000E+00  0.00000000000E+00  0.52310809931E+02  0.52310809931E+02  0.00000000000E+00 0.  1.
          1   -1    0    0  501    0  0.00000000000E+00 -0.00000000000E+00 -0.51412612166E+03  0.51412612166E+03  0.00000000000E+00 0. -1.
         25    2    1    2    0    0 -0.66041101851E+02 -0.26369496997E+02 -0.41959453112E+03  0.44358076523E+03  0.12509015642E+03 0.  0.
         23    2    1    2    0    0  0.66041101851E+02  0.26369496997E+02 -0.42220780601E+02  0.12285616635E+03  0.90852989993E+02 0.  0.
          5    1    3    3  502    0 -0.41371878020E+02 -0.75479566140E+02 -0.21330202014E+03  0.23005221449E+03  0.41800000000E+01 0.  1.
         -5    1    3    3    0  502 -0.24669223831E+02  0.49110069143E+02 -0.20629251098E+03  0.21352855075E+03  0.41800000000E+01 0.  1.
        -11    1    4    4    0    0  0.10419661890E+02 -0.17620237693E+02  0.19923406862E+02  0.28565438405E+02  0.00000000000E+00 0.  1.
         11    1    4    4    0    0  0.55621439961E+02  0.43989734690E+02 -0.62144187464E+02  0.94290727948E+02  0.00000000000E+00 0. -1.
</event>
<event>
 8    1  0.3719512E-009  0.1477543E+03  0.7561462E-02  0.1203260E+00
          2   -1    0    0  501    0  0.00000000000E+00  0.00000000000E+00  0.13565523143E+04  0.13565523143E+04  0.00000000000E+00 0. -1.
         -2   -1    0    0    0  501 -0.00000000000E+00 -0.00000000000E+00 -0.20393781082E+02  0.20393781082E+02  0.00000000000E+00 0.  1.
         25    2    1    2    0    0  0.10981470943E+03  0.50279032369E+02  0.87020024548E+03  0.88740262935E+03  0.12509079839E+03 0.  0.
         23    2    1    2    0    0 -0.10981470943E+03 -0.50279032369E+02  0.46595828770E+03  0.48954346599E+03  0.89153955140E+02 0.  0.
          5    1    3    3  502    0  0.29022352541E+02 -0.41961002668E+02  0.25675988624E+03  0.26181316673E+03  0.41800000000E+01 0.  1.
         -5    1    3    3    0  502  0.80792356893E+02  0.92240035036E+02  0.61344035924E+03  0.62558946262E+03  0.41800000000E+01 0.  1.
        -11    1    4    4    0    0 -0.13805172683E+02 -0.11915187777E+02  0.77485616741E+01  0.19814002639E+02  0.00000000000E+00 0.  1.
         11    1    4    4    0    0 -0.96009536751E+02 -0.38363844592E+02  0.45820972602E+03  0.46972946335E+03  0.00000000000E+00 0. -1.
</event>
<event>
 8    1  0.3719512E-009  0.1158257E+03  0.7561462E-02  0.1250147E+00
         -1   -1    0    0    0  501 -0.00000000000E+00  0.00000000000E+00  0.11954736525E+03  0.11954736525E+03  0.00000000000E+00 0.  1.
          1   -1    0    0  501    0  0.00000000000E+00 -0.00000000000E+00 -0.12305228269E+03  0.12305228269E+03  0.00000000000E+00 0. -1.
         25    2    1    2    0    0  0.52125917564E+02 -0.11550141929E+02 -0.18347131343E+01  0.13601794784E+03  0.12508796466E+03 0.  0.
         23    2    1    2    0    0 -0.52125917564E+02  0.11550141929E+02 -0.16702043033E+01  0.10658170010E+03  0.92229887524E+02 0.  0.
          5    1    3    3  502    0 -0.15393381351E+02  0.44644407007E+02  0.57094491037E+01  0.47750910730E+02  0.41800000000E+01 0.  1.
         -5    1    3    3    0  502  0.67519298915E+02 -0.56194548937E+02 -0.75441622381E+01  0.88267037109E+02  0.41800000000E+01 0.  1.
        -11    1    4    4    0    0 -0.58611329598E+02  0.37480069508E+02 -0.22037553602E+02  0.72977375510E+02  0.00000000000E+00 0. -1.
         11    1    4    4    0    0  0.64854120345E+01 -0.25929927578E+02  0.20367349299E+02  0.33604324587E+02  0.00000000000E+00 0.  1.
</event>
<event>
 8    1  0.3719512E-009  0.1158641E+03  0.7561462E-02  0.1250080E+00
         -1   -1    0    0    0  501 -0.00000000000E+00  0.00000000000E+00  0.92112083058E+02  0.92112083058E+02  0.00000000000E+00 0.  1.
          1   -1    0    0  501    0  0.00000000000E+00 -0.00000000000E+00 -0.19233167184E+03  0.19233167184E+03  0.00000000000E+00 0. -1.
         25    2    1    2    0    0 -0.71875102597E+02 -0.29411321198E+01 -0.80334515917E+02  0.16515566958E+03  0.12509228639E+03 0.  0.
         23    2    1    2    0    0  0.71875102597E+02  0.29411321198E+01 -0.19885072864E+02  0.11928808532E+03  0.93056706071E+02 0.  0.
          5    1    3    3  502    0 -0.35377377284E+02 -0.55028569052E+02 -0.77287873228E+02  0.10134391932E+03  0.41800000000E+01 0.  1.
         -5    1    3    3    0  502 -0.36497725313E+02  0.52087436933E+02 -0.30466426896E+01  0.63811750257E+02  0.41800000000E+01 0.  1.
        -11    1    4    4    0    0  0.73210386030E+02  0.27230384830E+02  0.12164645735E+02  0.79052090969E+02  0.00000000000E+00 0.  1.
         11    1    4    4    0    0 -0.13352834337E+01 -0.24289252710E+02 -0.32049718599E+02  0.40235994350E+02  0.00000000000E+00 0. -1.
</event>
<event>
 8    1  0.3719512E-009  0.8096540E+02  0.7561462E-02  0.1326334E+00
         -2   -1    0    0    0  501 -0.00000000000E+00  0.00000000000E+00  0.19333687105E+02  0.19333687105E+02  0.00000000000E+00 0.  1.
          2   -1    0    0  501    0  0.00000000000E+00 -0.00000000000E+00 -0.66917426720E+03  0.66917426720E+03  0.00000000000E+00 0. -1.
         25    2    1    2    0    0  0.14183164603E+02  0.27488544225E+02 -0.39311265650E+03  0.41369393048E+03  0.12509326596E+03 0.  0.
         23    2    1    2    0    0 -0.14183164603E+02 -0.27488544225E+02 -0.25672792359E+03  0.27481402383E+03  0.93041596710E+02 0.  0.
          5    1    3    3  502    0 -0.21743462847E+02 -0.28916649280E+02 -0.39254013456E+02  0.53547182508E+02  0.41800000000E+01 0.  1.
         -5    1    3    3    0  502  0.35926627450E+02  0.56405193505E+02 -0.35385864305E+03  0.36014674797E+03  0.41800000000E+01 0.  1.
        -11    1    4    4    0    0 -0.23638717868E+02 -0.37756988259E+02 -0.25702035814E+03  0.26085214901E+03  0.00000000000E+00 0. -1.
         11    1    4    4    0    0  0.94555532654E+01  0.10268444034E+02  0.29243454813E+00  0.13961874816E+02  0.00000000000E+00 0.  1.
</event>
<event>
 8    1  0.3719512E-009  0.8047677E+02  0.7561462E-02  0.1327704E+00
         -3   -1    0    0    0  501 -0.00000000000E+00  0.00000000000E+00  0.66037041190E+02  0.66037041190E+02  0.00000000000E+00 0.  1.
          3   -1    0    0  501    0  0.00000000000E+00 -0.00000000000E+00 -0.22160630922E+03  0.22160630922E+03  0.00000000000E+00 0. -1.
         25    2    1    2    0    0 -0.24459019041E+02 -0.30067260513E+00 -0.14378379640E+03  0.19214223917E+03  0.12508607418E+03 0.  0.
         23    2    1    2    0    0  0.24459019041E+02  0.30067260513E+00 -0.11785471634E+02  0.95501111236E+02  0.91559985197E+02 0.  0.
          5    1    3    3  502    0 -0.60659960162E+02  0.19446373094E+01 -0.14324486974E+03  0.15562768870E+03  0.41800000000E+01 0. -1.
         -5    1    3    3    0  502  0.36200941121E+02 -0.22453099145E+01 -0.53892665147E+00  0.36514550478E+02  0.41800000000E+01 0. -1.
        -11    1    4    4    0    0  0.13716069202E+02  0.29479638924E+02 -0.41345444888E+02  0.52598721262E+02  0.00000000000E+00 0. -1.
         11    1    4    4    0    0  0.10742949839E+02 -0.29178966319E+02  0.29559973254E+02  0.42902389974E+02  0.00000000000E+00 0.  1.
</event>
<event>
 8    1  0.3719512E-009  0.9006273E+02  0.7561462E-02  0.1302700E+00
         -1   -1    0    0    0  501 -0.00000000000E+00  0.00000000000E+00  0.30438759784E+02  0.30438759784E+02  0.00000000000E+00 0.  1.
          1   -1    0    0  501    0  0.00000000000E+00 -0.00000000000E+00 -0.66569897550E+03  0.66569897550E+03  0.00000000000E+00 0. -1.
         25    2    1    2    0    0  0.51110053984E+02  0.31200319674E+02 -0.50899604454E+03  0.52754848533E+03  0.12507890889E+03 0.  0.
         23    2    1    2    0    0 -0.51110053984E+02 -0.31200319674E+02 -0.12626417118E+03  0.16858924996E+03  0.94307988589E+02 0.  0.
          5    1    3    3  502    0  0.41757444925E+02  0.43668564964E+01 -0.41536349297E+02  0.59207215398E+02  0.41800000000E+01 0. -1.
         -5    1    3    3    0  502  0.93526090592E+01  0.26833463178E+02 -0.46745969524E+03  0.46834126993E+03  0.41800000000E+01 0. -1.
        -11    1    4    4    0    0 -0.32928922248E+02 -0.63849278936E+02 -0.99051613581E+02  0.12236121319E+03  0.00000000000E+00 0. -1.
         11    1    4    4    0    0 -0.18181131736E+02  0.32648959261E+02 -0.27212557594E+02  0.46228036762E+02  0.00000000000E+00 0.  1.
</event>
<event>
 8    1  0.3719512E-009  0.1575744E+03  0.7561462E-02  0.1191463E+00
          1   -1    0    0  501    0  0.00000000000E+00  0.00000000000E+00  0.84360958951E+03  0.84360958951E+03  0.00000000000E+00 0. -1.
         -1   -1    0    0    0  501 -0.00000000000E+00 -0.00000000000E+00 -0.29886730981E+02  0.29886730981E+02  0.00000000000E+00 0.  1.
         25    2    1    2    0    0 -0.10460191511E+03  0.49447336596E+02  0.44057147377E+03  0.47237378316E+03  0.12508863967E+03 0.  0.
         23    2    1    2    0    0  0.10460191511E+03 -0.49447336596E+02  0.37315138476E+03  0.40112253733E+03  0.90943577390E+02 0.  0.
          5    1    3    3  502    0 -0.50085016827E+02 -0.40147815859E+02  0.19418247831E+03  0.20455968154E+03  0.41800000000E+01 0.  1.
         -5    1    3    3    0  502 -0.54516898282E+02  0.89595152455E+02  0.24638899546E+03  0.26781410162E+03  0.41800000000E+01 0.  1.
        -11    1    4    4    0    0  0.96987142943E+02 -0.72818725409E+02  0.28801580618E+03  0.31250948350E+03  0.00000000000E+00 0.  1.
         11    1    4    4    0    0  0.76147721656E+01  0.23371388813E+02  0.85135578573E+02  0.88613053831E+02  0.00000000000E+00 0. -1.
</event>
<event>
 8    1  0.3719512E-009  0.7958317E+02  0.7561462E-02  0.1330239E+00
         -2   -1    0    0    0  501 -0.00000000000E+00  0.00000000000E+00  0.16756576690E+03  0.16756576690E+03  0.00000000000E+00 0.  1.
          2   -1    0    0  501    0  0.00000000000E+00 -0.00000000000E+00 -0.83593920786E+02  0.83593920786E+02  0.00000000000E+00 0. -1.
         25    2    1    2    0    0  0.44443197656E+02  0.60286847120E+01  0.47131630657E+02  0.14099622472E+03  0.12508797672E+03 0.  0.
         23    2    1    2    0    0 -0.44443197656E+02 -0.60286847120E+01  0.36840215455E+02  0.11016346296E+03  0.93633563640E+02 0.  0.
          5    1    3    3  502    0 -0.23775156547E+02 -0.23926668076E+02 -0.20997283283E+02  0.39951243026E+02  0.41800000000E+01 0. -1.
         -5    1    3    3    0  502  0.68218354203E+02  0.29955352788E+02  0.68128913940E+02  0.10104498169E+03  0.41800000000E+01 0. -1.
        -11    1    4    4    0    0 -0.11311435724E+02  0.87265032491E+01  0.63540285589E+02  0.65126556256E+02  0.00000000000E+00 0.  1.
         11    1    4    4    0    0 -0.33131761933E+02 -0.14755187961E+02 -0.26700070134E+02  0.45036906707E+02  0.00000000000E+00 0. -1.
</event>
<event>
 8    1  0.3719512E-009  0.1187665E+03  0.7561462E-02  0.1245146E+00
          1   -1    0    0  501    0  0.00000000000E+00  0.00000000000E+00  0.38772939099E+03  0.38772939099E+03  0.00000000000E+00 0. -1.
         -1   -1    0    0    0  501 -0.00000000000E+00 -0.00000000000E+00 -0.66950637275E+02  0.66950637275E+02  0.00000000000E+00 0.  1.
         25    2    1    2    0    0  0.60211912919E+02 -0.76729288860E+02  0.76475085923E+02  0.17610043171E+03  0.12510022005E+03 0.  0.
         23    2    1    2    0    0 -0.60211912919E+02  0.76729288860E+02  0.24430366779E+03  0.27857959655E+03  0.91703060424E+02 0.  0.
          5    1    3    3  502    0  0.82489162154E+02 -0.44407119548E+02  0.43483114953E+01  0.93876697600E+02  0.41800000000E+01 0. -1.
         -5    1    3    3    0  502 -0.22277249235E+02 -0.32322169312E+02  0.72126774427E+02  0.82223734115E+02  0.41800000000E+01 0. -1.
        -11    1    4    4    0    0 -0.27100237033E+02  0.62723555779E+02  0.60406109071E+02  0.91200687004E+02  0.00000000000E+00 0.  1.
         11    1    4    4    0    0 -0.33111675887E+02  0.14005733081E+02  0.18389755872E+03  0.18737890955E+03  0.00000000000E+00 0. -1.
</event>
<event>
 8    1  0.3719512E-009  0.1851839E+03  0.7561462E-02  0.1162878E+00
          4   -1    0    0  501    0  0.00000000000E+00  0.00000000000E+00  0.46339736847E+02  0.46339736847E+02  0.00000000000E+00 0.  1.
         -4   -1    0    0    0  501 -0.00000000000E+00 -0.00000000000E+00 -0.87644453926E+03  0.87644453926E+03  0.00000000000E+00 0. -1.
         25    2    1    2    0    0 -0.16743234157E+03  0.24513683896E+02 -0.42961588992E+03  0.47838112114E+03  0.12507667445E+03 0.  0.
         23    2    1    2    0    0  0.16743234157E+03 -0.24513683896E+02 -0.40048891250E+03  0.44440315497E+03  0.92023287340E+02 0.  0.
          5    1    3    3  502    0 -0.67424886395E+02 -0.25034398792E+02 -0.64963204463E+02  0.97007869590E+02  0.41800000000E+01 0. -1.
         -5    1    3    3    0  502 -0.10000745517E+03  0.49548082687E+02 -0.36465268545E+03  0.38137325155E+03  0.41800000000E+01 0. -1.
        -11    1    4    4    0    0  0.70431168977E+02 -0.49962856507E+02 -0.24102227321E+03  0.25602455503E+03  0.00000000000E+00 0.  1.
         11    1    4    4    0    0  0.97001172591E+02  0.25449172612E+02 -0.15946663929E+03  0.18837859995E+03  0.00000000000E+00 0. -1.
</event>
<event>
 8    1  0.3719512E-009  0.1081773E+03  0.7561462E-02  0.1263983E+00
          2   -1    0    0  501    0  0.00000000000E+00  0.00000000000E+00  0.10860709393E+03  0.10860709393E+03  0.00000000000E+00 0. -1.
         -2   -1    0    0    0  501 -0.00000000000E+00 -0.00000000000E+00 -0.20588680080E+03  0.20588680080E+03  0.00000000000E+00 0.  1.
         25    2    1    2    0    0  0.56992009121E+01 -0.41568741238E+02  0.46810155876E+02  0.14001187607E+03  0.12510672887E+03 0.  0.
         23    2    1    2    0    0 -0.56992009121E+01  0.41568741238E+02 -0.14408986274E+03  0.17448201865E+03  0.89003624349E+02 0.  0.
          5    1    3    3  502    0  0.31649201371E+02  0.36898148429E+02  0.12063426750E+02  0.50260759742E+02  0.41800000000E+01 0. -1.
         -5    1    3    3    0  502 -0.25950000459E+02 -0.78466889667E+02  0.34746729126E+02  0.89751116332E+02  0.41800000000E+01 0. -1.
        -11    1    4    4    0    0 -0.38950923886E+02  0.31422863465E+02 -0.12538663132E+03  0.13500510410E+03  0.00000000000E+00 0.  1.
         11    1    4    4    0    0  0.33251722974E+02  0.10145877773E+02 -0.18703231425E+02  0.39476914548E+02  0.00000000000E+00 0. -1.
</event>
<event>
 8    1  0.3719512E-009  0.1449259E+03  0.7561462E-02  0.1206850E+00
          1   -1    0    0  501    0  0.00000000000E+00  0.00000000000E+00  0.92095615296E+03  0.92095615296E+03  0.00000000000E+00 0. -1.
         -1   -1    0    0    0  501 -0.00000000000E+00 -0.00000000000E+00 -0.25799878689E+02  0.25799878689E+02  0.00000000000E+00 0.  1.
         25    2    1    2    0    0  0.55786138412E+02 -0.88448303476E+02  0.38194225503E+03  0.41528397049E+03  0.12508274997E+03 0.  0.
         23    2    1    2    0    0 -0.55786138412E+02  0.88448303476E+02  0.51321401924E+03  0.53147206116E+03  0.90214891354E+02 0.  0.
          5    1    3    3  502    0  0.95446151754E+02 -0.57144465406E+02  0.28301263816E+03  0.30412017948E+03  0.41800000000E+01 0.  1.
         -5    1    3    3    0  502 -0.39660013342E+02 -0.31303838070E+02  0.98929616872E+02  0.11116379100E+03  0.41800000000E+01 0.  1.
        -11    1    4    4    0    0  0.10736907336E+02  0.49696000038E+02  0.11286748862E+03  0.12379032106E+03  0.00000000000E+00 0.  1.
         11    1    4    4    0    0 -0.66523045748E+02  0.38752303438E+02  0.40034653062E+03  0.40768174010E+03  0.00000000000E+00 0. -1.
</event>
<event>
 8    1  0.3719512E-009  0.7716687E+02  0.7561462E-02  0.1337289E+00
         -1   -1    0    0    0  501 -0.00000000000E+00  0.00000000000E+00  0.32568038339E+03  0.32568038339E+03  0.00000000000E+00 0.  1.
          1   -1    0    0  501    0  0.00000000000E+00 -0.00000000000E+00 -0.43892383017E+02  0.43892383017E+02  0.00000000000E+00 0. -1.
         25    2    1    2    0    0 -0.13459517064E+02  0.28375863460E+02  0.97130281197E+02  0.16146021452E+03  0.12509500838E+03 0.  0.
         23    2    1    2    0    0  0.13459517064E+02 -0.28375863460E+02  0.18465771918E+03  0.20811255189E+03  0.90697369169E+02 0.  0.
          5    1    3    3  502    0 -0.31577977634E+02  0.11606537295E+02 -0.21547181086E+02  0.40170060893E+02  0.41800000000E+01 0. -1.
         -5    1    3    3    0  502  0.18118460570E+02  0.16769326166E+02  0.11867746228E+03  0.12129015363E+03  0.41800000000E+01 0. -1.
        -11    1    4    4    0    0 -0.36994930858E+02 -0.25350797318E+02  0.75395562097E+02  0.87725587019E+02  0.00000000000E+00 0.  1.
         11    1    4    4    0    0  0.50454447921E+02 -0.30250661427E+01  0.10926215708E+03  0.12038696487E+03  0.00000000000E+00 0. -1.
</event>
<event>
 8    1  0.3719512E-009  0.1121321E+03  0.7561462E-02  0.1256672E+00
         -3   -1    0    0    0  501 -0.00000000000E+00  0.00000000000E+00  0.21254602965E+03  0.21254602965E+03  0.00000000000E+00 0.  1.
          3   -1    0    0  501    0  0.00000000000E+00 -0.00000000000E+00 -0.84947285883E+02  0.84947285883E+02  0.00000000000E+00 0. -1.
         25    2    1    2    0    0 -0.57365615404E+02  0.32890726035E+02  0.11928194996E+03  0.18506330881E+03  0.12509049121E+03 0.  0.
         23    2    1    2    0    0  0.57365615404E+02 -0.32890726035E+02  0.83167938031E+01  0.11243000672E+03  0.90546803708E+02 0.  0.
          5    1    3    3  502    0  0.37340188340E+02  0.26045262911E+02  0.47756280930E+02  0.66111876041E+02  0.41800000000E+01 0. -1.
         -5    1    3    3    0  502 -0.94705803743E+02  0.68454631240E+01  0.71525669033E+02  0.11895143277E+03  0.41800000000E+01 0. -1.
        -11    1    4    4    0    0  0.37138523117E+02 -0.46208996040E+02 -0.30506611934E+02  0.66672292491E+02  0.00000000000E+00 0. -1.
         11    1    4    4    0    0  0.20227092287E+02  0.13318270005E+02  0.38823405737E+02  0.45757714227E+02  0.00000000000E+00 0.  1.
</event>
<event>
 8    1  0.3719512E-009  0.8995437E+02  0.7561462E-02  0.1302962E+00
         -1   -1    0    0    0  501 -0.00000000000E+00  0.00000000000E+00  0.16460568346E+03  0.16460568346E+03  0.00000000000E+00 0.  1.
          1   -1    0    0  501    0  0.00000000000E+00 -0.00000000000E+00 -0.83853535242E+02  0.83853535242E+02  0.00000000000E+00 0. -1.
         25    2    1    2    0    0  0.21120054574E+02  0.38667034240E+02  0.39567541193E+02  0.13840624812E+03  0.12509797345E+03 0.  0.
         23    2    1    2    0    0 -0.21120054574E+02 -0.38667034240E+02  0.41184607030E+02  0.11005297059E+03  0.92055897348E+02 0.  0.
          5    1    3    3  502    0  0.90785054761E+01  0.75243939152E+02  0.57982824603E+02  0.95517275870E+02  0.41800000000E+01 0.  1.
         -5    1    3    3    0  502  0.12041549098E+02 -0.36576904912E+02 -0.18415283410E+02  0.42888972250E+02  0.41800000000E+01 0.  1.
        -11    1    4    4    0    0 -0.28212808743E+02 -0.46695632889E+02  0.64449295415E+02  0.84440253361E+02  0.00000000000E+00 0.  1.
         11    1    4    4    0    0  0.70927541689E+01  0.80285986495E+01 -0.23264688386E+02  0.25612717225E+02  0.00000000000E+00 0. -1.
</event>
<event>
 8    1  0.3719512E-009  0.1343891E+03  0.7561462E-02  0.1221085E+00
         -1   -1    0    0    0  501 -0.00000000000E+00  0.00000000000E+00  0.14251220486E+03  0.14251220486E+03  0.00000000000E+00 0.  1.
          1   -1    0    0  501    0  0.00000000000E+00 -0.00000000000E+00 -0.19806796671E+03  0.19806796671E+03  0.00000000000E+00 0. -1.
         25    2    1    2    0    0 -0.68230187126E+02 -0.10720634667E+03 -0.12030297067E+02  0.17871468273E+03  0.12508257502E+03 0.  0.
         23    2    1    2    0    0  0.68230187126E+02  0.10720634667E+03 -0.43525464787E+02  0.16186548884E+03  0.90318387890E+02 0.  0.
          5    1    3    3  502    0 -0.28464207691E+02 -0.31022773208E+02 -0.65088311010E+02  0.77631077585E+02  0.41800000000E+01 0. -1.
         -5    1    3    3    0  502 -0.39765979435E+02 -0.76183573462E+02  0.53058013942E+02  0.10108360515E+03  0.41800000000E+01 0. -1.
        -11    1    4    4    0    0  0.12967597536E+01  0.56355959174E+02  0.16312836975E+02  0.58683765817E+02  0.00000000000E+00 0.  1.
         11    1    4    4    0    0  0.66933427372E+02  0.50850387495E+02 -0.59838301762E+02  0.10318172302E+03  0.00000000000E+00 0. -1.
</event>
<event>
 8    1  0.3719512E-009  0.1467559E+03  0.7561462E-02  0.1204517E+00
          2   -1    0    0  501    0  0.00000000000E+00  0.00000000000E+00  0.13952912317E+03  0.13952912317E+03  0.00000000000E+00 0. -1.
         -2   -1    0    0    0  501 -0.00000000000E+00 -0.00000000000E+00 -0.24293626978E+03  0.24293626978E+03  0.00000000000E+00 0.  1.
         25    2    1    2    0    0 -0.11253983421E+03 -0.93167981683E+01 -0.15358836693E+03  0.22801075108E+03  0.12508996419E+03 0.  0.
         23    2    1    2    0    0  0.11253983421E+03  0.93167981683E+01  0.50181220328E+02  0.15445464187E+03  0.92661019362E+02 0.  0.
          5    1    3    3  502    0 -0.85909046297E+02  0.37211103697E+02 -0.14630635441E+03  0.17374709268E+03  0.41800000000E+01 0. -1.
         -5    1    3    3    0  502 -0.26630787911E+02 -0.46527901866E+02 -0.72820125182E+01  0.54263658401E+02  0.41800000000E+01 0. -1.
        -11    1    4    4    0    0 -0.13512334631E+02  0.14558408856E+02  0.82480926813E+01  0.21507242698E+02  0.00000000000E+00 0. -1.
         11    1    4    4    0    0  0.12605216884E+03 -0.52416106878E+01  0.41933127646E+02  0.13294739917E+03  0.00000000000E+00 0.  1.
</event>
<event>
 8    1  0.3719512E-009  0.9135874E+02  0.7561462E-02  0.1299594E+00
         -2   -1    0    0    0  501 -0.00000000000E+00  0.00000000000E+00  0.11247797683E+02  0.11247797683E+02  0.00000000000E+00 0.  1.
          2   -1    0    0  501    0  0.00000000000E+00 -0.00000000000E+00 -0.15767648777E+04  0.15767648777E+04  0.00000000000E+00 0. -1.
         25    2    1    2    0    0  0.12398930964E+02  0.64471865561E+02 -0.11168987787E+04  0.11257978104E+04  0.12508986019E+03 0.  0.
         23    2    1    2    0    0 -0.12398930964E+02 -0.64471865561E+02 -0.44861830132E+03  0.46221486498E+03  0.89854583574E+02 0.  0.
          5    1    3    3  502    0  0.25540747542E+02  0.56749786360E+02 -0.21766776885E+03  0.22642790913E+03  0.41800000000E+01 0.  1.
         -5    1    3    3    0  502 -0.13141816578E+02  0.77220792011E+01 -0.89923100984E+03  0.89936990127E+03  0.41800000000E+01 0.  1.
        -11    1    4    4    0    0 -0.23274644324E+01  0.19664860500E+02 -0.37008847442E+02  0.41973546648E+02  0.00000000000E+00 0.  1.
         11    1    4    4    0    0 -0.10071466532E+02 -0.84136726061E+02 -0.41160945388E+03  0.42024131833E+03  0.00000000000E+00 0. -1.
</event>
<event>
 8    1  0.3719512E-009  0.1488987E+03  0.7561462E-02  0.1201833E+00
         -1   -1    0    0    0  501 -0.00000000000E+00  0.00000000000E+00  0.11632312442E+03  0.11632312442E+03  0.00000000000E+00 0.  1.
          1   -1    0    0  501    0  0.00000000000E+00 -0.00000000000E+00 -0.27179885996E+03  0.27179885996E+03  0.00000000000E+00 0. -1.
         25    2    1    2    0    0  0.25546059855E+02  0.13440206008E+03 -0.11675475665E+03  0.21907851327E+03  0.12508879585E+03 0.  0.
         23    2    1    2    0    0 -0.25546059855E+02 -0.13440206008E+03 -0.38720978889E+02  0.16904347111E+03  0.91432302765E+02 0.  0.
          5    1    3    3  502    0  0.36683315947E+02  0.12968238182E+03 -0.39120012852E+02  0.14039598865E+03  0.41800000000E+01 0.  1.
         -5    1    3    3    0  502 -0.11137256092E+02  0.47196782624E+01 -0.77634743798E+02  0.78682524621E+02  0.41800000000E+01 0.  1.
        -11    1    4    4    0    0 -0.37306142430E+02 -0.38742445218E+02  0.18596184520E+02  0.56908201546E+02  0.00000000000E+00 0.  1.
         11    1    4    4    0    0  0.11760082575E+02 -0.95659614864E+02 -0.57317163408E+02  0.11213526956E+03  0.00000000000E+00 0. -1.
</event>
<event>
 8    1  0.3719512E-009  0.6940433E+02  0.7561462E-02  0.1362130E+00
          3   -1    0    0  501    0  0.00000000000E+00  0.00000000000E+00  0.16570801935E+02  0.16570801935E+02  0.00000000000E+00 0. -1.
         -3   -1    0    0    0  501 -0.00000000000E+00 -0.00000000000E+00 -0.78451376747E+03  0.78451376747E+03  0.00000000000E+00 0.  1.
         25    2    1    2    0    0  0.27591068698E+02 -0.17724427678E+02 -0.41401112109E+03  0.43373770018E+03  0.12509101392E+03 0.  0.
         23    2    1    2    0    0 -0.27591068698E+02  0.17724427678E+02 -0.35393184445E+03  0.36734686923E+03  0.92739147116E+02 0.  0.
          5    1    3    3  502    0 -0.34103221658E+01  0.52634575869E+01  0.73880910451E+01  0.10554173219E+02  0.41800000000E+01 0. -1.
         -5    1    3    3    0  502  0.31001390864E+02 -0.22987885265E+02 -0.42139921213E+03  0.42318352696E+03  0.41800000000E+01 0. -1.
        -11    1    4    4    0    0 -0.58336835430E+02  0.31380492074E+01 -0.15743506582E+03  0.16792508350E+03  0.00000000000E+00 0. -1.
         11    1    4    4    0    0  0.30745766731E+02  0.14586378470E+02 -0.19649677863E+03  0.19942178572E+03  0.00000000000E+00 0.  1.
</event>
<event>
 8    1  0.3719512E-009  0.1859235E+03  0.7561462E-02  0.1162190E+00
         -2   -1    0    0    0  501 -0.00000000000E+00  0.00000000000E+00  0.10020360693E+04  0.10020360693E+04  0.00000000000E+00 0.  1.
          2   -1    0    0  501    0  0.00000000000E+00 -0.00000000000E+00 -0.38268540190E+02  0.38268540190E+02  0.00000000000E+00 0. -1.
         25    2    1    2    0    0 -0.15141013184E+03  0.18974035756E+02  0.36208348297E+03  0.41236002599E+03  0.12510515712E+03 0.  0.
         23    2    1    2    0    0  0.15141013184E+03 -0.18974035756E+02  0.60168404617E+03  0.62794458353E+03  0.94898190258E+02 0.  0.
          5    1    3    3  502    0 -0.13516972631E+03  0.60433030791E+02  0.31095530219E+03  0.34443240045E+03  0.41800000000E+01 0. -1.
         -5    1    3    3    0  502 -0.16240405529E+02 -0.41458995035E+02  0.51128180784E+02  0.67927625539E+02  0.41800000000E+01 0. -1.
        -11    1    4    4    0    0  0.10083440746E+03 -0.56904393294E+02  0.41487308830E+03  0.43072655723E+03  0.00000000000E+00 0.  1.
         11    1    4    4    0    0  0.50575724379E+02  0.37930357538E+02  0.18681095786E+03  0.19721802630E+03  0.00000000000E+00 0. -1.
</event>
<event>
 8    1  0.3719512E-009  0.1356311E+03  0.7561462E-02  0.1219332E+00
          2   -1    0    0  501    0  0.00000000000E+00  0.00000000000E+00  0.53156988060E+03  0.53156988060E+03  0.00000000000E+00 0. -1.
         -2   -1    0    0    0  501 -0.00000000000E+00 -0.00000000000E+00 -0.40002668525E+02  0.40002668525E+02  0.00000000000E+00 0.  1.
         25    2    1    2    0    0 -0.24680167302E+02  0.94107408092E+02  0.23382253209E+03  0.28246362803E+03  0.12508960681E+03 0.  0.
         23    2    1    2    0    0  0.24680167302E+02 -0.94107408092E+02  0.25774467999E+03  0.28910892109E+03  0.87671735913E+02 0.  0.
          5    1    3    3  502    0 -0.15898616231E+02  0.12452545661E+03  0.19792930548E+03  0.23442021609E+03  0.41800000000E+01 0. -1.
         -5    1    3    3    0  502 -0.87815510711E+01 -0.30418048520E+02  0.35893226609E+02  0.48043411946E+02  0.41800000000E+01 0. -1.
        -11    1    4    4    0    0  0.33664917005E+02 -0.20180141579E+02  0.16783063898E+03  0.17235918349E+03  0.00000000000E+00 0. -1.
         11    1    4    4    0    0 -0.89847497035E+01 -0.73927266513E+02  0.89914041007E+02  0.11674973761E+03  0.00000000000E+00 0.  1.
</event>
<event>
 8    1  0.3719512E-009  0.1293209E+03  0.7561462E-02  0.1228467E+00
          2   -1    0    0  501    0  0.00000000000E+00  0.00000000000E+00  0.92683992930E+02  0.92683992930E+02  0.00000000000E+00 0.  1.
         -2   -1    0    0    0  501 -0.00000000000E+00 -0.00000000000E+00 -0.18652565651E+03  0.18652565651E+03  0.00000000000E+00 0. -1.
         25    2    1    2    0    0 -0.85261970120E+01 -0.71633203632E+02 -0.65904047001E+02  0.15871785152E+03  0.12507598123E+03 0.  0.
         23    2    1    2    0    0  0.85261970120E+01  0.71633203632E+02 -0.27937616578E+02  0.12049179792E+03  0.92378303994E+02 0.  0.
          5    1    3    3  502    0  0.28555060357E+02 -0.93736802521E+02 -0.59924236639E+02  0.11493635698E+03  0.41800000000E+01 0.  1.
         -5    1    3    3    0  502 -0.37081257369E+02  0.22103598889E+02 -0.59798103620E+01  0.43781494537E+02  0.41800000000E+01 0.  1.
        -11    1    4    4    0    0  0.45203798059E+02  0.11316228961E+02 -0.10123117171E+02  0.47685615211E+02  0.00000000000E+00 0.  1.
         11    1    4    4    0    0 -0.36677601047E+02  0.60316974672E+02 -0.17814499408E+02  0.72806182713E+02  0.00000000000E+00 0. -1.
</event>
<event>
 8    1  0.3719512E-009  0.2262367E+03  0.7561462E-02  0.1129317E+00
          1   -1    0    0  501    0  0.00000000000E+00  0.00000000000E+00  0.12160196531E+03  0.12160196531E+03  0.00000000000E+00 0. -1.
         -1   -1    0    0    0  501 -0.00000000000E+00 -0.00000000000E+00 -0.62070730172E+03  0.62070730172E+03  0.00000000000E+00 0.  1.
         25    2    1    2    0    0 -0.18203050012E+03  0.11071338773E+03 -0.43677999450E+03  0.50181420873E+03  0.12509268283E+03 0.  0.
         23    2    1    2    0    0  0.18203050012E+03 -0.11071338773E+03 -0.62325341917E+02  0.24049505830E+03  0.92524956757E+02 0.  0.
          5    1    3    3  502    0 -0.17209733234E+03  0.77575902472E+02 -0.25825189618E+03  0.31991721855E+03  0.41800000000E+01 0. -1.
         -5    1    3    3    0  502 -0.99331677866E+01  0.33137485253E+02 -0.17852809831E+03  0.18189699019E+03  0.41800000000E+01 0. -1.
        -11    1    4    4    0    0  0.53243298900E+02 -0.80514953070E+02 -0.46901688056E+02  0.10731856730E+03  0.00000000000E+00 0.  1.
         11    1    4    4    0    0  0.12878720122E+03 -0.30198434656E+02 -0.15423653861E+02  0.13317649099E+03  0.00000000000E+00 0. -1.
</event>
<event>
 8    1  0.3719512E-009  0.8087686E+02  0.7561462E-02  0.1326581E+00
         -2   -1    0    0    0  501 -0.00000000000E+00  0.00000000000E+00  0.44598204452E+03  0.44598204452E+03  0.00000000000E+00 0. -1.
          2   -1    0    0  501    0  0.00000000000E+00 -0.00000000000E+00 -0.27725811537E+02  0.27725811537E+02  0.00000000000E+00 0.  1.
         25    2    1    2    0    0  0.26012424790E+02  0.47614516072E+00  0.22684079872E+03  0.26034792346E+03  0.12508964917E+03 0.  0.
         23    2    1    2    0    0 -0.26012424790E+02 -0.47614516072E+00  0.19141543426E+03  0.21335993259E+03  0.90585426009E+02 0.  0.
          5    1    3    3  502    0 -0.52227052796E+01  0.31534981265E+02  0.21085059535E+03  0.21330067429E+03  0.41800000000E+01 0. -1.
         -5    1    3    3    0  502  0.31235130070E+02 -0.31058836104E+02  0.15990203369E+02  0.47047249169E+02  0.41800000000E+01 0. -1.
        -11    1    4    4    0    0  0.16909028251E+02 -0.29116923070E+02  0.12384458766E+03  0.12834014312E+03  0.00000000000E+00 0.  1.
         11    1    4    4    0    0 -0.42921453041E+02  0.28640777909E+02  0.67570846603E+02  0.85019789467E+02  0.00000000000E+00 0. -1.
</event>
<event>
 8    1  0.3719512E-009  0.1036232E+03  0.7561462E-02  0.1272856E+00
          1   -1    0    0  501    0  0.00000000000E+00  0.00000000000E+00  0.55268344406E+03  0.55268344406E+03  0.00000000000E+00 0. -1.
         -1   -1    0    0    0  501 -0.00000000000E+00 -0.00000000000E+00 -0.59631554839E+02  0.59631554839E+02  0.00000000000E+00 0.  1.
         25    2    1    2    0    0 -0.54730131571E+02 -0.30084545267E+02  0.39299348285E+02  0.14522716522E+03  0.12508406603E+03 0.  0.
         23    2    1    2    0    0  0.54730131571E+02  0.30084545267E+02  0.45375254093E+03  0.46708783368E+03  0.91538018347E+02 0.  0.
          5    1    3    3  502    0  0.23615084331E+02 -0.69813062232E+01 -0.29284215092E+02  0.38489589477E+02  0.41800000000E+01 0.  1.
         -5    1    3    3    0  502 -0.78345215902E+02 -0.23103239044E+02  0.68583563378E+02  0.10673757574E+03  0.41800000000E+01 0.  1.
        -11    1    4    4    0    0  0.70211447425E+02  0.41214593484E+02  0.42403111952E+03  0.43177619247E+03  0.00000000000E+00 0. -1.
         11    1    4    4    0    0 -0.15481315853E+02 -0.11130048217E+02  0.29721421411E+02  0.35311641204E+02  0.00000000000E+00 0.  1.
</event>
<event>
 8    1  0.3719512E-009  0.1040486E+03  0.7561462E-02  0.1272005E+00
          1   -1    0    0  501    0  0.00000000000E+00  0.00000000000E+00  0.42859404070E+03  0.42859404070E+03  0.00000000000E+00 0. -1.
         -1   -1    0    0    0  501 -0.00000000000E+00 -0.00000000000E+00 -0.29604359827E+02  0.29604359827E+02  0.00000000000E+00 0.  1.
         25    2    1    2    0    0 -0.10844377408E+02 -0.83726794545E+01  0.30300814640E+03  0.32809844329E+03  0.12508776688E+03 0.  0.
         23    2    1    2    0    0  0.10844377408E+02  0.83726794545E+01  0.95981534471E+02  0.13009995723E+03  0.86751608805E+02 0.  0.
          5    1    3    3  502    0  0.42805815097E+02 -0.42493046022E+02  0.12110692634E+03  0.13536010037E+03  0.41800000000E+01 0. -1.
         -5    1    3    3    0  502 -0.53650192505E+02  0.34120366567E+02  0.18190122006E+03  0.19273834292E+03  0.41800000000E+01 0. -1.
        -11    1    4    4    0    0 -0.15604194102E+02 -0.32029960403E+02  0.22391695456E+02  0.42080841988E+02  0.00000000000E+00 0.  1.
         11    1    4    4    0    0  0.26448571510E+02  0.40402639858E+02  0.73589839016E+02  0.88019115246E+02  0.00000000000E+00 0. -1.
</event>
<event>
 8    1  0.3719512E-009  0.1145480E+03  0.7561462E-02  0.1252372E+00
         -2   -1    0    0    0  501 -0.00000000000E+00  0.00000000000E+00  0.12487068755E+03  0.12487068755E+03  0.00000000000E+00 0.  1.
          2   -1    0    0  501    0  0.00000000000E+00 -0.00000000000E+00 -0.11516724431E+03  0.11516724431E+03  0.00000000000E+00 0. -1.
         25    2    1    2    0    0 -0.76540940426E+01 -0.50768869849E+02  0.24957284752E+01  0.13524145996E+03  0.12509180841E+03 0.  0.
         23    2    1    2    0    0  0.76540940426E+01  0.50768869849E+02  0.72077147650E+01  0.10479647190E+03  0.91072971124E+02 0.  0.
          5    1    3    3  502    0 -0.65105863539E+02 -0.28747173558E+02 -0.10934800232E+02  0.72126387064E+02  0.41800000000E+01 0. -1.
         -5    1    3    3    0  502  0.57451769497E+02 -0.22021696290E+02  0.13430528707E+02  0.63115072900E+02  0.41800000000E+01 0. -1.
        -11    1    4    4    0    0 -0.23542202095E+02 -0.11714356115E+02  0.20947859631E+02  0.33619551481E+02  0.00000000000E+00 0.  1.
         11    1    4    4    0    0  0.31196296137E+02  0.62483225964E+02 -0.13740144866E+02  0.71176920420E+02  0.00000000000E+00 0. -1.
</event>
<event>
 8    1  0.3719512E-009  0.1078639E+03  0.7561462E-02  0.1264578E+00
         -1   -1    0    0    0  501 -0.00000000000E+00  0.00000000000E+00  0.82254716592E+02  0.82254716592E+02  0.00000000000E+00 0.  1.
          1   -1    0    0  501    0  0.00000000000E+00 -0.00000000000E+00 -0.18477090755E+03  0.18477090755E+03  0.00000000000E+00 0. -1.
         25    2    1    2    0    0 -0.12810294921E+02  0.25582978001E+02 -0.28751031482E+01  0.12834860398E+03  0.12508599245E+03 0.  0.
         23    2    1    2    0    0  0.12810294921E+02 -0.25582978001E+02 -0.99641087807E+02  0.13867702016E+03  0.92110678645E+02 0.  0.
          5    1    3    3  502    0 -0.58465590679E+01  0.71896988986E+02  0.21498925706E+02  0.75385910386E+02  0.41800000000E+01 0. -1.
         -5    1    3    3    0  502 -0.69637358530E+01 -0.46314010985E+02 -0.24374028854E+02  0.52962693597E+02  0.41800000000E+01 0. -1.
        -11    1    4    4    0    0 -0.35605759613E+01 -0.59069995674E+02 -0.60987111914E+02  0.84978643845E+02  0.00000000000E+00 0. -1.
         11    1    4    4    0    0  0.16370870882E+02  0.33487017672E+02 -0.38653975893E+02  0.53698376310E+02  0.00000000000E+00 0.  1.
</event>
<event>
 8    1  0.3719512E-009  0.1381059E+03  0.7561462E-02  0.1215901E+00
         -4   -1    0    0    0  501 -0.00000000000E+00  0.00000000000E+00  0.11570474041E+03  0.11570474041E+03  0.00000000000E+00 0.  1.
          4   -1    0    0  501    0  0.00000000000E+00 -0.00000000000E+00 -0.18967256870E+03  0.18967256870E+03  0.00000000000E+00 0. -1.
         25    2    1    2    0    0 -0.67008248414E+02 -0.54622508032E+02  0.13266416277E+02  0.15263339315E+03  0.12508889305E+03 0.  0.
         23    2    1    2    0    0  0.67008248414E+02  0.54622508032E+02 -0.87234244572E+02  0.15274391596E+03  0.90813912459E+02 0.  0.
          5    1    3    3  502    0 -0.86068018680E+02  0.67702235835E+01  0.17060807314E+02  0.88102686186E+02  0.41800000000E+01 0.  1.
         -5    1    3    3    0  502  0.19059770266E+02 -0.61392731616E+02 -0.37943910369E+01  0.64530706963E+02  0.41800000000E+01 0.  1.
        -11    1    4    4    0    0  0.89209711196E+02  0.51302730153E+02 -0.70425185097E+02  0.12469983716E+03  0.00000000000E+00 0.  1.
         11    1    4    4    0    0 -0.22201462782E+02  0.33197778795E+01 -0.16809059475E+02  0.28044078792E+02  0.00000000000E+00 0. -1.
</event>
<event>
 8    1  0.3719512E-009  0.8562066E+02  0.7561462E-02  0.1313817E+00
         -1   -1    0    0    0  501 -0.00000000000E+00  0.00000000000E+00  0.35065629270E+02  0.35065629270E+02  0.00000000000E+00 0.  1.
          1   -1    0    0  501    0  0.00000000000E+00 -0.00000000000E+00 -0.41044344775E+03  0.41044344775E+03  0.00000000000E+00 0. -1.
         25    2    1    2    0    0  0.76137380719E+01  0.29556294495E+02 -0.28602851848E+03  0.31366658055E+03  0.12507144685E+03 0.  0.
         23    2    1    2    0    0 -0.76137380719E+01 -0.29556294495E+02 -0.89349300000E+02  0.13184249647E+03  0.92019578967E+02 0.  0.
          5    1    3    3  502    0  0.41045292143E+02  0.66794336953E+02 -0.17676848055E+03  0.19341863295E+03  0.41800000000E+01 0. -1.
         -5    1    3    3    0  502 -0.33431554071E+02 -0.37238042457E+02 -0.10926003793E+03  0.12024794760E+03  0.41800000000E+01 0. -1.
        -11    1    4    4    0    0  0.29790737602E+01 -0.31588462702E+02 -0.10675252234E+03  0.11136788981E+03  0.00000000000E+00 0. -1.
         11    1    4    4    0    0 -0.10592811832E+02  0.20321682065E+01  0.17403222335E+02  0.20474606658E+02  0.00000000000E+00 0.  1.
</event>
<event>
 8    1  0.3719512E-009  0.1097143E+03  0.7561462E-02  0.1261100E+00
         -2   -1    0    0    0  501 -0.00000000000E+00  0.00000000000E+00  0.24894389095E+03  0.24894389095E+03  0.00000000000E+00 0. -1.
          2   -1    0    0  501    0  0.00000000000E+00 -0.00000000000E+00 -0.69802859628E+02  0.69802859628E+02  0.00000000000E+00 0.  1.
         25    2    1    2    0    0 -0.41890670167E+02 -0.60296110166E+02  0.12581174993E+03  0.19200718928E+03  0.12509082766E+03 0.  0.
         23    2    1    2    0    0  0.41890670167E+02  0.60296110166E+02  0.53329281397E+02  0.12673956130E+03  0.88478556709E+02 0.  0.
          5    1    3    3  502    0 -0.47343494712E+02 -0.75629283186E+02  0.29244161101E+02  0.93988767017E+02  0.41800000000E+01 0. -1.
         -5    1    3    3    0  502  0.54528245452E+01  0.15333173020E+02  0.96567588826E+02  0.98018422258E+02  0.41800000000E+01 0. -1.
        -11    1    4    4    0    0 -0.24273597085E+02  0.74367766348E+00  0.20765015789E+02  0.31952252700E+02  0.00000000000E+00 0.  1.
         11    1    4    4    0    0  0.66164267252E+02  0.59552432502E+02  0.32564265607E+02  0.94787308604E+02  0.00000000000E+00 0. -1.
</event>
<event>
 8    1  0.3719512E-009  0.1006108E+03  0.7561462E-02  0.1279017E+00
         -2   -1    0    0    0  501 -0.00000000000E+00  0.00000000000E+00  0.55783510297E+03  0.55783510297E+03  0.00000000000E+00 0.  1.
          2   -1    0    0  501    0  0.00000000000E+00 -0.00000000000E+00 -0.31129396981E+02  0.31129396981E+02  0.00000000000E+00 0. -1.
         25    2    1    2    0    0  0.15411860345E+02 -0.54014927822E+02  0.18293763795E+03  0.22862598097E+03  0.12509405234E+03 0.  0.
         23    2    1    2    0    0 -0.15411860345E+02  0.54014927822E+02  0.34376806804E+03  0.36033851898E+03  0.92261724406E+02 0.  0.
          5    1    3    3  502    0 -0.34436775267E+02 -0.14658047303E+02  0.30186726172E+01  0.37780082397E+02  0.41800000000E+01 0.  1.
         -5    1    3    3    0  502  0.49848635612E+02 -0.39356880519E+02  0.17991896533E+03  0.19084589858E+03  0.41800000000E+01 0.  1.
        -11    1    4    4    0    0 -0.35242990947E+02 -0.68462359451E+01  0.19661804762E+03  0.19986894708E+03  0.00000000000E+00 0.  1.
         11    1    4    4    0    0  0.19831130602E+02  0.60861163767E+02  0.14715002042E+03  0.16046957190E+03  0.00000000000E+00 0. -1.
</event>
<event>
 8    1  0.3719512E-009  0.9029656E+02  0.7561462E-02  0.1302135E+00
         -2   -1    0    0    0  501 -0.00000000000E+00  0.00000000000E+00  0.21859291693E+02  0.21859291693E+02  0.00000000000E+00 0.  1.
          2   -1    0    0  501    0  0.00000000000E+00 -0.00000000000E+00 -0.68358759625E+03  0.68358759625E+03  0.00000000000E+00 0. -1.
         25    2    1    2    0    0  0.28031615175E+02  0.34964945702E+02 -0.47990899075E+03  0.49796386848E+03  0.12508819302E+03 0.  0.
         23    2    1    2    0    0 -0.28031615175E+02 -0.34964945702E+02 -0.18181931380E+03  0.20748301946E+03  0.89345518158E+02 0.  0.
          5    1    3    3  502    0  0.47170769250E+02  0.39553201008E+02 -0.99869898693E+02  0.11739253063E+03  0.41800000000E+01 0. -1.
         -5    1    3    3    0  502 -0.19139154075E+02 -0.45882553061E+01 -0.38003909206E+03  0.38057133785E+03  0.41800000000E+01 0. -1.
        -11    1    4    4    0    0  0.31213951140E+02 -0.21822808273E+02 -0.55096971477E+02  0.66979265244E+02  0.00000000000E+00 0.  1.
         11    1    4    4    0    0 -0.59245566314E+02 -0.13142137429E+02 -0.12672234233E+03  0.14050375422E+03  0.00000000000E+00 0. -1.
</event>
<event>
 8    1  0.3719512E-009  0.1176511E+03  0.7561462E-02  0.1247023E+00
         -1   -1    0    0    0  501 -0.00000000000E+00  0.00000000000E+00  0.13586171579E+03  0.13586171579E+03  0.00000000000E+00 0.  1.
          1   -1    0    0  501    0  0.00000000000E+00 -0.00000000000E+00 -0.11062256809E+03  0.11062256809E+03  0.00000000000E+00 0. -1.
         25    2    1    2    0    0 -0.22009596022E+02 -0.45362389891E+02 -0.10170002081E+02  0.13525513348E+03  0.12509337894E+03 0.  0.
         23    2    1    2    0    0  0.22009596022E+02  0.45362389891E+02  0.35409149776E+02  0.11122915040E+03  0.92606410566E+02 0.  0.
          5    1    3    3  502    0 -0.71326601239E+02 -0.10588770118E+02  0.64732779328E+01  0.72518837719E+02  0.41800000000E+01 0.  1.
         -5    1    3    3    0  502  0.49317005217E+02 -0.34773619773E+02 -0.16643280013E+02  0.62736295757E+02  0.41800000000E+01 0.  1.
        -11    1    4    4    0    0 -0.19446424609E+02  0.56421420210E+02  0.33141636069E+02  0.68263519759E+02  0.00000000000E+00 0.  1.
         11    1    4    4    0    0  0.41456020632E+02 -0.11059030319E+02  0.22675137068E+01  0.42965630644E+02  0.00000000000E+00 0. -1.
</event>
<event>
 8    1  0.3719512E-009  0.4805974E+02  0.7561462E-02  0.1456097E+00
         -2   -1    0    0    0  501 -0.00000000000E+00  0.00000000000E+00  0.45530085341E+02  0.45530085341E+02  0.00000000000E+00 0.  1.
          2   -1    0    0  501    0  0.00000000000E+00 -0.00000000000E+00 -0.32601160729E+03  0.32601160729E+03  0.00000000000E+00 0. -1.
         25    2    1    2    0    0  0.19782509316E+02 -0.40096349296E+01 -0.23679866070E+03  0.26856790504E+03  0.12509072330E+03 0.  0.
         23    2    1    2    0    0 -0.19782509316E+02  0.40096349296E+01 -0.43682861242E+02  0.10297378759E+03  0.91038363989E+02 0.  0.
          5    1    3    3  502    0 -0.50853072012E+01 -0.18582277174E+02  0.85561785747E+01  0.21490508744E+02  0.41800000000E+01 0.  1.
         -5    1    3    3    0  502  0.24867816517E+02  0.14572642244E+02 -0.24535483928E+03  0.24707739629E+03  0.41800000000E+01 0.  1.
        -11    1    4    4    0    0 -0.32757588671E+02 -0.23294062940E+01  0.19478639063E+02  0.38182497678E+02  0.00000000000E+00 0.  1.
         11    1    4    4    0    0  0.12975079355E+02  0.63390412235E+01 -0.63161500305E+02  0.64791289914E+02  0.00000000000E+00 0. -1.
</event>
<event>
 8    1  0.3719512E-009  0.7905417E+02  0.7561462E-02  0.1331757E+00
         -2   -1    0    0    0  501 -0.00000000000E+00  0.00000000000E+00  0.12935711039E+03  0.12935711039E+03  0.00000000000E+00 0. -1.
          2   -1    0    0  501    0  0.00000000000E+00 -0.00000000000E+00 -0.10383794887E+03  0.10383794887E+03  0.00000000000E+00 0.  1.
         25    2    1    2    0    0 -0.35114883919E+02  0.85847572008E+01  0.10786014810E+01  0.13020998322E+03  0.12508686270E+03 0.  0.
         23    2    1    2    0    0  0.35114883919E+02 -0.85847572008E+01  0.24440560043E+02  0.10298507604E+03  0.93283609399E+02 0.  0.
          5    1    3    3  502    0  0.99998710785E+01 -0.31099532694E+01 -0.55588320578E+02  0.56720393296E+02  0.41800000000E+01 0.  1.
         -5    1    3    3    0  502 -0.45114754998E+02  0.11694710470E+02  0.56666922059E+02  0.73489589923E+02  0.41800000000E+01 0.  1.
        -11    1    4    4    0    0  0.59754636769E+02  0.19332413387E+02  0.15744007230E+02  0.64747452354E+02  0.00000000000E+00 0. -1.
         11    1    4    4    0    0 -0.24639752850E+02 -0.27917170588E+02  0.86965528133E+01  0.38237623683E+02  0.00000000000E+00 0.  1.
</event>
<event>
 8    1  0.3719512E-009  0.1113485E+03  0.7561462E-02  0.1258093E+00
          1   -1    0    0  501    0  0.00000000000E+00  0.00000000000E+00  0.39838139306E+03  0.39838139306E+03  0.00000000000E+00 0. -1.
         -1   -1    0    0    0  501 -0.00000000000E+00 -0.00000000000E+00 -0.31592624937E+02  0.31592624937E+02  0.00000000000E+00 0.  1.
         25    2    1    2    0    0 -0.21965819492E+02  0.30316359360E+02  0.19928701623E+03  0.23825244624E+03  0.12508930582E+03 0.  0.
         23    2    1    2    0    0  0.21965819492E+02 -0.30316359360E+02  0.16750175189E+03  0.19172157176E+03  0.85432694669E+02 0.  0.
          5    1    3    3  502    0 -0.27422686594E+02 -0.46044504960E+02  0.87741732391E+02  0.10289890272E+03  0.41800000000E+01 0.  1.
         -5    1    3    3    0  502  0.54568671022E+01  0.76360864320E+02  0.11154528384E+03  0.13535354352E+03  0.41800000000E+01 0.  1.
        -11    1    4    4    0    0  0.43476367086E+02  0.11740882203E+02  0.95807140936E+02  0.10586336035E+03  0.00000000000E+00 0.  1.
         11    1    4    4    0    0 -0.21510547594E+02 -0.42057241564E+02  0.71694610957E+02  0.85858211407E+02  0.00000000000E+00 0. -1.
</event>
<event>
 8    1  0.3719512E-009  0.2859374E+03  0.7561462E-02  0.1092490E+00
          1   -1    0    0  501    0  0.00000000000E+00  0.00000000000E+00  0.14618812792E+04  0.14618812792E+04  0.00000000000E+00 0.  1.
         -1   -1    0    0    0  501 -0.00000000000E+00 -0.00000000000E+00 -0.56161967169E+02  0.56161967169E+02  0.00000000000E+00 0. -1.
         25    2    1    2    0    0 -0.27061855088E+02  0.26343516521E+03  0.69680268479E+03  0.75585206918E+03  0.12509172111E+03 0.  0.
         23    2    1    2    0    0  0.27061855088E+02 -0.26343516521E+03  0.70891662726E+03  0.76219117720E+03  0.90786430340E+02 0.  0.
          5    1    3    3  502    0 -0.30150249392E+02  0.10906230314E+01  0.69486850238E+02  0.75869109346E+02  0.41800000000E+01 0.  1.
         -5    1    3    3    0  502  0.30883943039E+01  0.26234454218E+03  0.62731583455E+03  0.67998295984E+03  0.41800000000E+01 0.  1.
        -11    1    4    4    0    0 -0.35182879898E+00 -0.24711811108E+03  0.60619304833E+03  0.65462775411E+03  0.00000000000E+00 0.  1.
         11    1    4    4    0    0  0.27413683887E+02 -0.16317054127E+02  0.10272357892E+03  0.10756342309E+03  0.00000000000E+00 0. -1.
</event>
<event>
 8    1  0.3719512E-009  0.1074603E+03  0.7561462E-02  0.1265347E+00
          1   -1    0    0  501    0  0.00000000000E+00  0.00000000000E+00  0.14617479077E+04  0.14617479077E+04  0.00000000000E+00 0. -1.
         -1   -1    0    0    0  501 -0.00000000000E+00 -0.00000000000E+00 -0.11139259184E+02  0.11139259184E+02  0.00000000000E+00 0.  1.
         25    2    1    2    0    0 -0.83091754856E+01  0.62256378958E+02  0.93726692505E+03  0.94766095542E+03  0.12508836286E+03 0.  0.
         23    2    1    2    0    0  0.83091754856E+01 -0.62256378958E+02  0.51334172349E+03  0.52522621149E+03  0.91640324299E+02 0.  0.
          5    1    3    3  502    0  0.36666012807E+02  0.19992786140E+02  0.73378443470E+03  0.73498379370E+03  0.41800000000E+01 0.  1.
         -5    1    3    3    0  502 -0.44975188292E+02  0.42263592818E+02  0.20348249035E+03  0.21267716172E+03  0.41800000000E+01 0.  1.
        -11    1    4    4    0    0 -0.35758630413E+02 -0.11821126368E+01  0.16253068880E+03  0.16642205936E+03  0.00000000000E+00 0.  1.
         11    1    4    4    0    0  0.44067805899E+02 -0.61074266321E+02  0.35081103469E+03  0.35880415213E+03  0.00000000000E+00 0. -1.
</event>
<event>
 8    1  0.3719512E-009  0.9343756E+02  0.7561462E-02  0.1294734E+00
         -2   -1    0    0    0  501 -0.00000000000E+00  0.00000000000E+00  0.30797944569E+02  0.30797944569E+02  0.00000000000E+00 0. -1.
          2   -1    0    0  501    0  0.00000000000E+00 -0.00000000000E+00 -0.46685882561E+03  0.46685882561E+03  0.00000000000E+00 0.  1.
         25    2    1    2    0    0  0.37125045897E+02  0.26641051256E+02 -0.29480368012E+03  0.32348866994E+03  0.12509074754E+03 0.  0.
         23    2    1    2    0    0 -0.37125045897E+02 -0.26641051256E+02 -0.14125720092E+03  0.17416810024E+03  0.91065447264E+02 0.  0.
          5    1    3    3  502    0  0.28574360393E+01 -0.42169055851E+02 -0.18219669285E+03  0.18708153703E+03  0.41800000000E+01 0.  1.
         -5    1    3    3    0  502  0.34267609858E+02  0.68810107107E+02 -0.11260698727E+03  0.13640713291E+03  0.41800000000E+01 0.  1.
        -11    1    4    4    0    0 -0.21232961414E+02 -0.40890105174E+02 -0.14531218277E+03  0.15244169316E+03  0.00000000000E+00 0.  1.
         11    1    4    4    0    0 -0.15892084483E+02  0.14249053918E+02  0.40549818544E+01  0.21726407080E+02  0.00000000000E+00 0. -1.
</event>
<event>
 8    1  0.3719512E-009  0.1405218E+03  0.7561462E-02  0.1212629E+00
          2   -1    0    0  501    0  0.00000000000E+00  0.00000000000E+00  0.10160218357E+04  0.10160218357E+04  0.00000000000E+00 0. -1.
         -2   -1    0    0    0  501 -0.00000000000E+00 -0.00000000000E+00 -0.21863316779E+02  0.21863316779E+02  0.00000000000E+00 0.  1.
         25    2    1    2    0    0  0.82227784104E+02  0.58944190024E+02  0.49973368687E+03  0.52499256863E+03  0.12509042050E+03 0.  0.
         23    2    1    2    0    0 -0.82227784104E+02 -0.58944190024E+02  0.49442483208E+03  0.51289258388E+03  0.91471645948E+02 0.  0.
          5    1    3    3  502    0  0.10693609760E+03  0.13849681467E+02  0.30440887100E+03  0.32296962054E+03  0.41800000000E+01 0. -1.
         -5    1    3    3    0  502 -0.24708313498E+02  0.45094508557E+02  0.19532481587E+03  0.20202294809E+03  0.41800000000E+01 0. -1.
        -11    1    4    4    0    0 -0.82755286510E+02 -0.23405901347E+02  0.43681824014E+03  0.44520382813E+03  0.00000000000E+00 0.  1.
         11    1    4    4    0    0  0.52750240667E+00 -0.35538288677E+02  0.57606591941E+02  0.67688755757E+02  0.00000000000E+00 0. -1.
</event>
<event>
 8    1  0.3719512E-009  0.8395684E+02  0.7561462E-02  0.1318183E+00
          1   -1    0    0  501    0  0.00000000000E+00  0.00000000000E+00  0.56588517446E+03  0.56588517446E+03  0.00000000000E+00 0. -1.
         -1   -1    0    0    0  501 -0.00000000000E+00 -0.00000000000E+00 -0.21882301643E+02  0.21882301643E+02  0.00000000000E+00 0.  1.
         25    2    1    2    0    0 -0.53363090888E+00  0.97792888327E+01  0.37902206039E+03  0.39925432108E+03  0.12510144436E+03 0.  0.
         23    2    1    2    0    0  0.53363090888E+00 -0.97792888327E+01  0.16498081243E+03  0.18851315503E+03  0.90678673887E+02 0.  0.
          5    1    3    3  502    0 -0.34454369997E+02 -0.30193992341E+02  0.30500796313E+03  0.30845763203E+03  0.41800000000E+01 0. -1.
         -5    1    3    3    0  502  0.33920739088E+02  0.39973281174E+02  0.74014097265E+02  0.90796689048E+02  0.41800000000E+01 0. -1.
        -11    1    4    4    0    0 -0.34044399543E+02 -0.45328687340E+01  0.20802462799E+02  0.40153586362E+02  0.00000000000E+00 0.  1.
         11    1    4    4    0    0  0.34578030452E+02 -0.52464200987E+01  0.14417834963E+03  0.14835956867E+03  0.00000000000E+00 0. -1.
</event>
<event>
 8    1  0.3719512E-009  0.1078950E+03  0.7561462E-02  0.1264518E+00
         -1   -1    0    0    0  501 -0.00000000000E+00  0.00000000000E+00  0.48209938427E+02  0.48209938427E+02  0.00000000000E+00 0.  1.
          1   -1    0    0  501    0  0.00000000000E+00 -0.00000000000E+00 -0.47007660471E+03  0.47007660471E+03  0.00000000000E+00 0. -1.
         25    2    1    2    0    0 -0.30934527329E+02 -0.92472982210E+02 -0.29946853704E+03  0.33887469309E+03  0.12508579264E+03 0.  0.
         23    2    1    2    0    0  0.30934527329E+02  0.92472982210E+02 -0.12239812925E+03  0.17941185005E+03  0.87744586585E+02 0.  0.
          5    1    3    3  502    0 -0.32512650793E+02 -0.63927908331E+02 -0.49505652009E+02  0.87247532377E+02  0.41800000000E+01 0. -1.
         -5    1    3    3    0  502  0.15781234646E+01 -0.28545073879E+02 -0.24996288503E+03  0.25162716071E+03  0.41800000000E+01 0. -1.
        -11    1    4    4    0    0  0.66563838659E+01  0.90448047779E+02 -0.51169371562E+02  0.10413194217E+03  0.00000000000E+00 0.  1.
         11    1    4    4    0    0  0.24278143463E+02  0.20249344301E+01 -0.71228757685E+02  0.75279907883E+02  0.00000000000E+00 0. -1.
</event>
<event>
 8    1  0.3719512E-009  0.8659492E+02  0.7561462E-02  0.1311314E+00
         -1   -1    0    0    0  501 -0.00000000000E+00  0.00000000000E+00  0.82193945729E+03  0.82193945729E+03  0.00000000000E+00 0.  1.
          1   -1    0    0  501    0  0.00000000000E+00 -0.00000000000E+00 -0.21937772666E+02  0.21937772666E+02  0.00000000000E+00 0. -1.
         25    2    1    2    0    0  0.45196258139E+02 -0.59684589071E+02  0.51928246907E+03  0.53935674789E+03  0.12508583808E+03 0.  0.
         23    2    1    2    0    0 -0.45196258139E+02  0.59684589071E+02  0.28071921556E+03  0.30452048207E+03  0.91238665567E+02 0.  0.
          5    1    3    3  502    0  0.63425139324E+01 -0.21281153952E+02  0.63018657140E+01  0.23458493302E+02  0.41800000000E+01 0. -1.
         -5    1    3    3    0  502  0.38853744207E+02 -0.38403435119E+02  0.51298060335E+03  0.51589825459E+03  0.41800000000E+01 0. -1.
        -11    1    4    4    0    0 -0.39606013667E+01  0.54038653447E+02  0.24090547990E+03  0.24692369808E+03  0.00000000000E+00 0.  1.
         11    1    4    4    0    0 -0.41235656772E+02  0.56459356237E+01  0.39813735657E+02  0.57596783986E+02  0.00000000000E+00 0. -1.
</event>
<event>
 8    1  0.3719512E-009  0.1072588E+03  0.7561462E-02  0.1265732E+00
         -1   -1    0    0    0  501 -0.00000000000E+00  0.00000000000E+00  0.82305713177E+02  0.82305713177E+02  0.00000000000E+00 0.  1.
          1   -1    0    0  501    0  0.00000000000E+00 -0.00000000000E+00 -0.29931763428E+03  0.29931763428E+03  0.00000000000E+00 0. -1.
         25    2    1    2    0    0  0.43338117882E+02 -0.74426202926E+01 -0.24273402141E+03  0.27658801613E+03  0.12509012934E+03 0.  0.
         23    2    1    2    0    0 -0.43338117882E+02  0.74426202926E+01  0.25722100304E+02  0.10503533133E+03  0.91854283107E+02 0.  0.
          5    1    3    3  502    0  0.64073019945E+02  0.39746706460E+02 -0.10396447992E+03  0.12849606237E+03  0.41800000000E+01 0. -1.
         -5    1    3    3    0  502 -0.20734902063E+02 -0.47189326753E+02 -0.13876954149E+03  0.14809195376E+03  0.41800000000E+01 0. -1.
        -11    1    4    4    0    0 -0.62760188868E+02  0.17856564052E+02 -0.69557712702E+01  0.65620735599E+02  0.00000000000E+00 0. -1.
         11    1    4    4    0    0  0.19422070986E+02 -0.10413943760E+02  0.32677871574E+02  0.39414595731E+02  0.00000000000E+00 0.  1.
</event>
<event>
 8    1  0.3719512E-009  0.1522301E+03  0.7561462E-02  0.1197759E+00
          1   -1    0    0  501    0  0.00000000000E+00  0.00000000000E+00  0.14729564418E+03  0.14729564418E+03  0.00000000000E+00 0. -1.
         -1   -1    0    0    0  501 -0.00000000000E+00 -0.00000000000E+00 -0.17745793684E+03  0.17745793684E+03  0.00000000000E+00 0.  1.
         25    2    1    2    0    0  0.10264660921E+03  0.56300349120E+02 -0.40958582215E+02  0.17615849599E+03  0.12509258394E+03 0.  0.
         23    2    1    2    0    0 -0.10264660921E+03 -0.56300349120E+02  0.10796289561E+02  0.14859508503E+03  0.90872898783E+02 0.  0.
          5    1    3    3  502    0  0.11963993235E+03  0.20319775880E+02 -0.55604907847E+02  0.13355143159E+03  0.41800000000E+01 0.  1.
         -5    1    3    3    0  502 -0.16993323136E+02  0.35980573239E+02  0.14646325632E+02  0.42607064395E+02  0.41800000000E+01 0.  1.
        -11    1    4    4    0    0 -0.35105626905E+02 -0.66034040429E+02  0.25076856797E+02  0.78878059577E+02  0.00000000000E+00 0.  1.
         11    1    4    4    0    0 -0.67540982308E+02  0.97336913091E+01 -0.14280567236E+02  0.69717025454E+02  0.00000000000E+00 0. -1.
</event>
<event>
 8    1  0.3719512E-009  0.1169741E+03  0.7561462E-02  0.1248174E+00
         -1   -1    0    0    0  501 -0.00000000000E+00  0.00000000000E+00  0.17963611087E+02  0.17963611087E+02  0.00000000000E+00 0. -1.
          1   -1    0    0  501    0  0.00000000000E+00 -0.00000000000E+00 -0.10804357012E+04  0.10804357012E+04  0.00000000000E+00 0.  1.
         25    2    1    2    0    0  0.57006764284E+02 -0.44360531730E+02 -0.75054724174E+03  0.76432130290E+03  0.12509302151E+03 0.  0.
         23    2    1    2    0    0 -0.57006764284E+02  0.44360531730E+02 -0.31192484840E+03  0.33407800942E+03  0.95359201850E+02 0.  0.
          5    1    3    3  502    0 -0.36195330537E+02  0.71749705226E+01 -0.22944277151E+03  0.23242856957E+03  0.41800000000E+01 0. -1.
         -5    1    3    3    0  502  0.93202094821E+02 -0.51535502253E+02 -0.52110447023E+03  0.53189273333E+03  0.41800000000E+01 0. -1.
        -11    1    4    4    0    0 -0.15687929683E+02  0.46279075057E+02 -0.27280074669E+03  0.27714276343E+03  0.00000000000E+00 0.  1.
         11    1    4    4    0    0 -0.41318834601E+02 -0.19185433270E+01 -0.39124101711E+02  0.56935245991E+02  0.00000000000E+00 0. -1.
</event>
<event>
 8    1  0.3719512E-009  0.8133797E+02  0.7561462E-02  0.1325297E+00
         -2   -1    0    0    0  501 -0.00000000000E+00  0.00000000000E+00  0.27931016843E+02  0.27931016843E+02  0.00000000000E+00 0.  1.
          2   -1    0    0  501    0  0.00000000000E+00 -0.00000000000E+00 -0.44459993037E+03  0.44459993037E+03  0.00000000000E+00 0. -1.
         25    2    1    2    0    0 -0.10422742678E+02 -0.22076617713E+02 -0.21651515968E+03  0.25124684781E+03  0.12510057374E+03 0.  0.
         23    2    1    2    0    0  0.10422742678E+02  0.22076617713E+02 -0.20015375385E+03  0.22128409940E+03  0.91154357292E+02 0.  0.
          5    1    3    3  502    0 -0.46411143500E+02 -0.12729903343E+02 -0.21849838960E+02  0.53018228400E+02  0.41800000000E+01 0. -1.
         -5    1    3    3    0  502  0.35988400822E+02 -0.93467143700E+01 -0.19466532072E+03  0.19822861941E+03  0.41800000000E+01 0. -1.
        -11    1    4    4    0    0  0.77204981400E+01  0.49146127204E+02 -0.57387736418E+02  0.75949326540E+02  0.00000000000E+00 0.  1.
         11    1    4    4    0    0  0.27022445383E+01 -0.27069509491E+02 -0.14276601743E+03  0.14533477286E+03  0.00000000000E+00 0. -1.
</event>
<event>
 8    1  0.3719512E-009  0.1186132E+03  0.7561462E-02  0.1245403E+00
          2   -1    0    0  501    0  0.00000000000E+00  0.00000000000E+00  0.14759895453E+03  0.14759895453E+03  0.00000000000E+00 0. -1.
         -2   -1    0    0    0  501 -0.00000000000E+00 -0.00000000000E+00 -0.13450516533E+03  0.13450516533E+03  0.00000000000E+00 0.  1.
         25    2    1    2    0    0 -0.64374806123E+02  0.49144543755E+02 -0.32939060311E+02  0.15261902306E+03  0.12509309598E+03 0.  0.
         23    2    1    2    0    0  0.64374806123E+02 -0.49144543755E+02  0.46032849508E+02  0.12948509680E+03  0.89933671200E+02 0.  0.
          5    1    3    3  502    0 -0.33130638403E+02 -0.37101846234E+02 -0.34671082348E+02  0.60776167583E+02  0.41800000000E+01 0.  1.
         -5    1    3    3    0  502 -0.31244167720E+02  0.86246389988E+02  0.17320220364E+01  0.91842855481E+02  0.41800000000E+01 0.  1.
        -11    1    4    4    0    0  0.41861016686E+02 -0.57797035838E+02  0.66730462794E+02  0.97702593284E+02  0.00000000000E+00 0. -1.
         11    1    4    4    0    0  0.22513789438E+02  0.86524920833E+01 -0.20697613286E+02  0.31782503517E+02  0.00000000000E+00 0.  1.
</event>
<event>
 8    1  0.3719512E-009  0.1218528E+03  0.7561462E-02  0.1240071E+00
          1   -1    0    0  501    0  0.00000000000E+00  0.00000000000E+00  0.15171636183E+03  0.15171636183E+03  0.00000000000E+00 0. -1.
         -1   -1    0    0    0  501 -0.00000000000E+00 -0.00000000000E+00 -0.27744615718E+03  0.27744615718E+03  0.00000000000E+00 0.  1.
         25    2    1    2    0    0  0.79999570429E+02 -0.76812547115E+02  0.75379701781E+02  0.18338375858E+03  0.12508958713E+03 0.  0.
         23    2    1    2    0    0 -0.79999570429E+02  0.76812547115E+02 -0.20110949713E+03  0.24577876042E+03  0.87533254104E+02 0.  0.
          5    1    3    3  502    0  0.65964267332E+02 -0.51839166842E+02  0.10990301485E+03  0.13832833715E+03  0.41800000000E+01 0. -1.
         -5    1    3    3    0  502  0.14035303097E+02 -0.24973380273E+02 -0.34523313073E+02  0.45055421437E+02  0.41800000000E+01 0. -1.
        -11    1    4    4    0    0 -0.17083859526E+02  0.64398545222E+02 -0.55648289872E+02  0.86808772879E+02  0.00000000000E+00 0. -1.
         11    1    4    4    0    0 -0.62915710902E+02  0.12414001892E+02 -0.14546120726E+03  0.15896998754E+03  0.00000000000E+00 0.  1.
</event>
<event>
 8    1  0.3719512E-009  0.8569625E+02  0.7561462E-02  0.1313622E+00
          2   -1    0    0  501    0  0.00000000000E+00  0.00000000000E+00  0.84177075331E+02  0.84177075331E+02  0.00000000000E+00 0. -1.
         -2   -1    0    0    0  501 -0.00000000000E+00 -0.00000000000E+00 -0.14396756690E+03  0.14396756690E+03  0.00000000000E+00 0.  1.
         25    2    1    2    0    0  0.25406728098E+02 -0.10082148587E+02 -0.56646692193E+02  0.14001781439E+03  0.12509591942E+03 0.  0.
         23    2    1    2    0    0 -0.25406728098E+02  0.10082148587E+02 -0.31437993809E+01  0.88126827848E+02  0.83721578814E+02 0.  0.
          5    1    3    3  502    0  0.53601738228E+02  0.42195057620E+02 -0.26781197346E+02  0.73404864689E+02  0.41800000000E+01 0. -1.
         -5    1    3    3    0  502 -0.28195010130E+02 -0.52277206208E+02 -0.29865494846E+02  0.66612949699E+02  0.41800000000E+01 0. -1.
        -11    1    4    4    0    0 -0.31912758635E+02  0.49268713575E+00 -0.39028658178E+02  0.50417289331E+02  0.00000000000E+00 0.  1.
         11    1    4    4    0    0  0.65060305370E+01  0.95894614517E+01  0.35884858797E+02  0.37709538517E+02  0.00000000000E+00 0. -1.
</event>
<event>
 8    1  0.3719512E-009  0.1534084E+03  0.7561462E-02  0.1196346E+00
         -2   -1    0    0    0  501 -0.00000000000E+00  0.00000000000E+00  0.33816739620E+02  0.33816739620E+02  0.00000000000E+00 0.  1.
          2   -1    0    0  501    0  0.00000000000E+00 -0.00000000000E+00 -0.80191343922E+03  0.80191343922E+03  0.00000000000E+00 0. -1.
         25    2    1    2    0    0 -0.10184238064E+03 -0.66747011170E+02 -0.46489186178E+03  0.49658765221E+03  0.12509124344E+03 0.  0.
         23    2    1    2    0    0  0.10184238064E+03  0.66747011170E+02 -0.30320483782E+03  0.33914252663E+03  0.90870488591E+02 0.  0.
          5    1    3    3  502    0 -0.11778132816E+03 -0.86533325650E+02 -0.35949343474E+03  0.38808949964E+03  0.41800000000E+01 0. -1.
         -5    1    3    3    0  502  0.15938947520E+02  0.19786314479E+02 -0.10539842704E+03  0.10849815257E+03  0.41800000000E+01 0. -1.
        -11    1    4    4    0    0  0.49639668980E+02 -0.60288715765E+00 -0.44159300935E+02  0.66441734387E+02  0.00000000000E+00 0.  1.
         11    1    4    4    0    0  0.52202711657E+02  0.67349898328E+02 -0.25904553688E+03  0.27270079224E+03  0.00000000000E+00 0. -1.
</event>
<event>
 8    1  0.3719512E-009  0.1146498E+03  0.7561462E-02  0.1252194E+00
         -1   -1    0    0    0  501 -0.00000000000E+00  0.00000000000E+00  0.58065454502E+02  0.58065454502E+02  0.00000000000E+00 0.  1.
          1   -1    0    0  501    0  0.00000000000E+00 -0.00000000000E+00 -0.35960328104E+03  0.35960328104E+03  0.00000000000E+00 0. -1.
         25    2    1    2    0    0  0.33336663210E+02  0.82718348612E+02 -0.12133361266E+03  0.19576079011E+03  0.12508710195E+03 0.  0.
         23    2    1    2    0    0 -0.33336663210E+02 -0.82718348612E+02 -0.18020421388E+03  0.22190794543E+03  0.93893126657E+02 0.  0.
          5    1    3    3  502    0  0.72644210042E+02  0.61198189371E+02 -0.40713832770E+02  0.10342866244E+03  0.41800000000E+01 0.  1.
         -5    1    3    3    0  502 -0.39307546832E+02  0.21520159241E+02 -0.80619779888E+02  0.92332127675E+02  0.41800000000E+01 0.  1.
        -11    1    4    4    0    0 -0.14149832844E+02 -0.38226023422E+02 -0.61337890483E+01  0.41219776859E+02  0.00000000000E+00 0.  1.
         11    1    4    4    0    0 -0.19186830366E+02 -0.44492325190E+02 -0.17407042483E+03  0.18068816857E+03  0.00000000000E+00 0. -1.
</event>
<event>
 8    1  0.3719512E-009  0.2676269E+03  0.7561462E-02  0.1102646E+00
          1   -1    0    0  501    0  0.00000000000E+00  0.00000000000E+00  0.10073734820E+03  0.10073734820E+03  0.00000000000E+00 0. -1.
         -1   -1    0    0    0  501 -0.00000000000E+00 -0.00000000000E+00 -0.73473380340E+03  0.73473380340E+03  0.00000000000E+00 0.  1.
         25    2    1    2    0    0 -0.11507461028E+02  0.24467953344E+03 -0.39530051034E+03  0.48157005864E+03  0.12508689841E+03 0.  0.
         23    2    1    2    0    0  0.11507461028E+02 -0.24467953344E+03 -0.23869594485E+03  0.35390109296E+03  0.90938076558E+02 0.  0.
          5    1    3    3  502    0 -0.59460891789E+02  0.20196213474E+03 -0.29694641463E+03  0.36403151935E+03  0.41800000000E+01 0.  1.
         -5    1    3    3    0  502  0.47953430761E+02  0.42717398698E+02 -0.98354095713E+02  0.11753853928E+03  0.41800000000E+01 0.  1.
        -11    1    4    4    0    0 -0.33827273465E+02 -0.49551359437E+02 -0.68293219856E+02  0.90904265744E+02  0.00000000000E+00 0.  1.
         11    1    4    4    0    0  0.45334734493E+02 -0.19512817400E+03 -0.17040272500E+03  0.26299682722E+03  0.00000000000E+00 0. -1.
</event>
<event>
 8    1  0.3719512E-009  0.8698111E+02  0.7561462E-02  0.1310332E+00
          2   -1    0    0  501    0  0.00000000000E+00  0.00000000000E+00  0.18313350381E+03  0.18313350381E+03  0.00000000000E+00 0. -1.
         -2   -1    0    0    0  501 -0.00000000000E+00 -0.00000000000E+00 -0.77942474975E+02  0.77942474975E+02  0.00000000000E+00 0.  1.
         25    2    1    2    0    0 -0.16995674480E+02  0.41418428561E+01  0.10891277720E+03  0.16677900354E+03  0.12508890906E+03 0.  0.
         23    2    1    2    0    0  0.16995674480E+02 -0.41418428561E+01 -0.37217483656E+01  0.94296975245E+02  0.92585421726E+02 0.  0.
          5    1    3    3  502    0 -0.40595094623E+01  0.41780024217E+02 -0.82384682384E+01  0.42981330826E+02  0.41800000000E+01 0.  1.
         -5    1    3    3    0  502 -0.12936165018E+02 -0.37638181361E+02  0.11715124544E+03  0.12379767271E+03  0.41800000000E+01 0.  1.
        -11    1    4    4    0    0  0.52009668202E+02  0.11730453429E+02 -0.12724062962E+02  0.54813418999E+02  0.00000000000E+00 0.  1.
         11    1    4    4    0    0 -0.35013993722E+02 -0.15872296285E+02  0.90023145964E+01  0.39483556246E+02  0.00000000000E+00 0. -1.
</event>
<event>
 8    1  0.3719512E-009  0.1120564E+03  0.7561462E-02  0.1256808E+00
         -2   -1    0    0    0  501 -0.00000000000E+00  0.00000000000E+00  0.63151235607E+02  0.63151235607E+02  0.00000000000E+00 0.  1.
          2   -1    0    0  501    0  0.00000000000E+00 -0.00000000000E+00 -0.20795323126E+03  0.20795323126E+03  0.00000000000E+00 0. -1.
         25    2    1    2    0    0 -0.30815670309E+02  0.19392766525E+02 -0.83131663414E+02  0.15455964104E+03  0.12510844994E+03 0.  0.
         23    2    1    2    0    0  0.30815670309E+02 -0.19392766525E+02 -0.61670332238E+02  0.11654482583E+03  0.91944448547E+02 0.  0.
          5    1    3    3  502    0 -0.51815798291E+02  0.60131248197E+02 -0.31784791423E+02  0.85606012219E+02  0.41800000000E+01 0. -1.
         -5    1    3    3    0  502  0.21000127982E+02 -0.40738481672E+02 -0.51346871991E+02  0.68953628820E+02  0.41800000000E+01 0. -1.
        -11    1    4    4    0    0 -0.17605961148E+01 -0.52282057763E+02 -0.37141249237E+02  0.64155947951E+02  0.00000000000E+00 0. -1.
         11    1    4    4    0    0  0.32576266424E+02  0.32889291238E+02 -0.24529083001E+02  0.52388877876E+02  0.00000000000E+00 0.  1.
</event>
<event>
 8    1  0.3719512E-009  0.1194876E+03  0.7561462E-02  0.1243945E+00
          1   -1    0    0  501    0  0.00000000000E+00  0.00000000000E+00  0.37435401606E+03  0.37435401606E+03  0.00000000000E+00 0.  1.
         -1   -1    0    0    0  501 -0.00000000000E+00 -0.00000000000E+00 -0.53451918228E+02  0.53451918228E+02  0.00000000000E+00 0. -1.
         25    2    1    2    0    0 -0.93757225275E+01  0.70662147332E+02  0.25506674064E+03  0.29289258892E+03  0.12508390474E+03 0.  0.
         23    2    1    2    0    0  0.93757225275E+01 -0.70662147332E+02  0.65835357194E+02  0.13491334537E+03  0.93735122894E+02 0.  0.
          5    1    3    3  502    0 -0.31702705873E+02  0.87462324767E+02  0.24629054626E+03  0.26330823267E+03  0.41800000000E+01 0. -1.
         -5    1    3    3    0  502  0.22326983345E+02 -0.16800177435E+02  0.87761943840E+01  0.29584356255E+02  0.41800000000E+01 0. -1.
        -11    1    4    4    0    0 -0.12582170013E+02 -0.88449193087E+02  0.52989744852E+02  0.10387244013E+03  0.00000000000E+00 0.  1.
         11    1    4    4    0    0  0.21957892541E+02  0.17787045755E+02  0.12845612342E+02  0.31040905237E+02  0.00000000000E+00 0. -1.
</event>
<event>
 8    1  0.3719512E-009  0.1410403E+03  0.7561462E-02  0.1211936E+00
          2   -1    0    0  501    0  0.00000000000E+00  0.00000000000E+00  0.14990106346E+03  0.14990106346E+03  0.00000000000E+00 0. -1.
         -2   -1    0    0    0  501 -0.00000000000E+00 -0.00000000000E+00 -0.14142466547E+03  0.14142466547E+03  0.00000000000E+00 0.  1.
         25    2    1    2    0    0  0.80726631290E+02 -0.44771672899E+02  0.34678956274E+02  0.15929464512E+03  0.12510340627E+03 0.  0.
         23    2    1    2    0    0 -0.80726631290E+02  0.44771672899E+02 -0.26202558288E+02  0.13203108382E+03  0.90688154351E+02 0.  0.
          5    1    3    3  502    0 -0.29536647408E+02 -0.32423275365E+02  0.48389863892E+01  0.44323475888E+02  0.41800000000E+01 0. -1.
         -5    1    3    3    0  502  0.11026327870E+03 -0.12348397534E+02  0.29839969885E+02  0.11497116923E+03  0.41800000000E+01 0. -1.
        -11    1    4    4    0    0 -0.50468183062E+02 -0.20945567084E+02  0.12307679887E+01  0.54655915250E+02  0.00000000000E+00 0. -1.
         11    1    4    4    0    0 -0.30258448228E+02  0.65717239983E+02 -0.27433326277E+02  0.77375168567E+02  0.00000000000E+00 0.  1.
</event>
<event>
 8    1  0.3719512E-009  0.2990843E+03  0.7561462E-02  0.1085699E+00
          2   -1    0    0  501    0  0.00000000000E+00  0.00000000000E+00  0.57025631142E+03  0.57025631142E+03  0.00000000000E+00 0. -1.
         -2   -1    0    0    0  501 -0.00000000000E+00 -0.00000000000E+00 -0.21013529274E+03  0.21013529274E+03  0.00000000000E+00 0.  1.
         25    2    1    2    0    0  0.28369710337E+03 -0.41358776878E+02  0.26340293948E+01  0.31281230248E+03  0.12509997435E+03 0.  0.
         23    2    1    2    0    0 -0.28369710337E+03  0.41358776878E+02  0.35748698928E+03  0.46757930168E+03  0.92945473084E+02 0.  0.
          5    1    3    3  502    0  0.34962430409E+02  0.22127434798E+02 -0.33679232760E+02  0.53514091884E+02  0.41800000000E+01 0.  1.
         -5    1    3    3    0  502  0.24873467296E+03 -0.63486211676E+02  0.36313262155E+02  0.25929821059E+03  0.41800000000E+01 0.  1.
        -11    1    4    4    0    0 -0.19859347750E+03 -0.12730395203E+02  0.21429530095E+03  0.29244470978E+03  0.00000000000E+00 0. -1.
         11    1    4    4    0    0 -0.85103625870E+02  0.54089172082E+02  0.14319168834E+03  0.17513459190E+03  0.00000000000E+00 0.  1.
</event>
<event>
 8    1  0.3719512E-009  0.1161396E+03  0.7561462E-02  0.1249605E+00
         -1   -1    0    0    0  501 -0.00000000000E+00  0.00000000000E+00  0.11102167285E+03  0.11102167285E+03  0.00000000000E+00 0.  1.
          1   -1    0    0  501    0  0.00000000000E+00 -0.00000000000E+00 -0.18305201075E+03  0.18305201075E+03  0.00000000000E+00 0. -1.
         25    2    1    2    0    0  0.71112170507E+02 -0.50711453979E+02 -0.67001776929E+01  0.15270743486E+03  0.12508427528E+03 0.  0.
         23    2    1    2    0    0 -0.71112170507E+02  0.50711453979E+02 -0.65330160209E+02  0.14136624874E+03  0.89932163832E+02 0.  0.
          5    1    3    3  502    0  0.80699205632E+02 -0.60318877530E+02 -0.46063586448E+02  0.11086052125E+03  0.41800000000E+01 0.  1.
         -5    1    3    3    0  502 -0.95870351250E+01  0.96074235513E+01  0.39363408755E+02  0.41846913609E+02  0.41800000000E+01 0.  1.
        -11    1    4    4    0    0 -0.49731364956E+02 -0.11852012078E+02 -0.41595045210E+01  0.51293082658E+02  0.00000000000E+00 0.  1.
         11    1    4    4    0    0 -0.21380805551E+02  0.62563466057E+02 -0.61170655688E+02  0.90073166084E+02  0.00000000000E+00 0. -1.
</event>
<event>
 8    1  0.3719512E-009  0.8878064E+02  0.7561462E-02  0.1305832E+00
          2   -1    0    0  501    0  0.00000000000E+00  0.00000000000E+00  0.87259208208E+02  0.87259208208E+02  0.00000000000E+00 0.  1.
         -2   -1    0    0    0  501 -0.00000000000E+00 -0.00000000000E+00 -0.20984142542E+03  0.20984142542E+03  0.00000000000E+00 0. -1.
         25    2    1    2    0    0 -0.67801268656E+02 -0.17067659264E+02 -0.11260297904E+03  0.18225139835E+03  0.12509126384E+03 0.  0.
         23    2    1    2    0    0  0.67801268656E+02  0.17067659264E+02 -0.99792381713E+01  0.11484923528E+03  0.90567348561E+02 0.  0.
          5    1    3    3  502    0  0.39425560775E+01 -0.28596443800E+02  0.16889903494E+02  0.33705216012E+02  0.41800000000E+01 0.  1.
         -5    1    3    3    0  502 -0.71743824733E+02  0.11528784536E+02 -0.12949288254E+03  0.14854618234E+03  0.41800000000E+01 0.  1.
        -11    1    4    4    0    0  0.26468056448E+02 -0.75197354751E+01 -0.46792949225E+02  0.54283372509E+02  0.00000000000E+00 0. -1.
         11    1    4    4    0    0  0.41333212208E+02  0.24587394739E+02  0.36813711054E+02  0.60565862769E+02  0.00000000000E+00 0.  1.
</event>
<event>
 8    1  0.3719512E-009  0.1032536E+03  0.7561462E-02  0.1273599E+00
          4   -1    0    0  501    0  0.00000000000E+00  0.00000000000E+00  0.66769945540E+03  0.66769945540E+03  0.00000000000E+00 0. -1.
         -4   -1    0    0    0  501 -0.00000000000E+00 -0.00000000000E+00 -0.43237928108E+02  0.43237928108E+02  0.00000000000E+00 0.  1.
         25    2    1    2    0    0 -0.63617323900E+02  0.22867572068E+02  0.56490803727E+03  0.58252799532E+03  0.12509070710E+03 0.  0.
         23    2    1    2    0    0  0.63617323900E+02 -0.22867572068E+02  0.59553490026E+02  0.12840938820E+03  0.91500071312E+02 0.  0.
          5    1    3    3  502    0 -0.27028095385E+02  0.45691144270E+02  0.50909339337E+03  0.51187083740E+03  0.41800000000E+01 0. -1.
         -5    1    3    3    0  502 -0.36589228515E+02 -0.22823572203E+02  0.55814643898E+02  0.70657157917E+02  0.41800000000E+01 0. -1.
        -11    1    4    4    0    0  0.83577909641E+02 -0.59932792530E+01  0.58607700293E+02  0.10225482341E+03  0.00000000000E+00 0. -1.
         11    1    4    4    0    0 -0.19960585741E+02 -0.16874292815E+02  0.94578973315E+00  0.26154564790E+02  0.00000000000E+00 0.  1.
</event>
<event>
 8    1  0.3719512E-009  0.4627176E+02  0.7561462E-02  0.1466555E+00
         -3   -1    0    0    0  501 -0.00000000000E+00  0.00000000000E+00  0.19104691588E+03  0.19104691588E+03  0.00000000000E+00 0.  1.
          3   -1    0    0  501    0  0.00000000000E+00 -0.00000000000E+00 -0.67378611344E+02  0.67378611344E+02  0.00000000000E+00 0. -1.
         25    2    1    2    0    0 -0.31102057506E+02  0.21386702281E+01  0.68881515654E+02  0.14615648172E+03  0.12508054229E+03 0.  0.
         23    2    1    2    0    0  0.31102057506E+02 -0.21386702281E+01  0.54786788880E+02  0.11226904550E+03  0.92902284416E+02 0.  0.
          5    1    3    3  502    0 -0.53915483648E+01 -0.40795751397E+01 -0.36535944233E+02  0.37390631823E+02  0.41800000000E+01 0. -1.
         -5    1    3    3    0  502 -0.25710509141E+02  0.62182453679E+01  0.10541745989E+03  0.10876584990E+03  0.41800000000E+01 0. -1.
        -11    1    4    4    0    0 -0.38968556416E+01  0.17331743903E+02 -0.20418318245E+02  0.27064414839E+02  0.00000000000E+00 0. -1.
         11    1    4    4    0    0  0.34998913147E+02 -0.19470414131E+02  0.75205107125E+02  0.85204630658E+02  0.00000000000E+00 0.  1.
</event>
<event>
 8    1  0.3719512E-009  0.9220934E+02  0.7561462E-02  0.1297588E+00
          1   -1    0    0  501    0  0.00000000000E+00  0.00000000000E+00  0.12710620067E+03  0.12710620067E+03  0.00000000000E+00 0. -1.
         -1   -1    0    0    0  501 -0.00000000000E+00 -0.00000000000E+00 -0.14352215332E+03  0.14352215332E+03  0.00000000000E+00 0.  1.
         25    2    1    2    0    0 -0.47539938879E+02  0.88029550076E+00 -0.73044858233E+02  0.15245779250E+03  0.12508799491E+03 0.  0.
         23    2    1    2    0    0  0.47539938879E+02 -0.88029550076E+00  0.56628905585E+02  0.11817056149E+03  0.92177155229E+02 0.  0.
          5    1    3    3  502    0 -0.39323550452E+02  0.31554890221E+02  0.19735095337E+02  0.54304687689E+02  0.41800000000E+01 0. -1.
         -5    1    3    3    0  502 -0.82163884267E+01 -0.30674594721E+02 -0.92779953570E+02  0.98153104814E+02  0.41800000000E+01 0. -1.
        -11    1    4    4    0    0 -0.27109525368E+02  0.93318866332E+00  0.25634915683E+02  0.37322193248E+02  0.00000000000E+00 0.  1.
         11    1    4    4    0    0  0.74649464247E+02 -0.18134841641E+01  0.30993989903E+02  0.80848368241E+02  0.00000000000E+00 0. -1.
</event>
<event>
 8    1  0.3719512E-009  0.1184814E+03  0.7561462E-02  0.1245623E+00
          2   -1    0    0  501    0  0.00000000000E+00  0.00000000000E+00  0.15613574949E+04  0.15613574949E+04  0.00000000000E+00 0. -1.
         -2   -1    0    0    0  501 -0.00000000000E+00 -0.00000000000E+00 -0.15106016018E+02  0.15106016018E+02  0.00000000000E+00 0.  1.
         25    2    1    2    0    0  0.23518147052E+02  0.42521999047E+02  0.13303927521E+04  0.13371437948E+04  0.12508968516E+03 0.  0.
         23    2    1    2    0    0 -0.23518147052E+02 -0.42521999047E+02  0.21585872674E+03  0.23931971614E+03  0.91201496575E+02 0.  0.
          5    1    3    3  502    0  0.51062166777E+02 -0.27928573613E+02  0.55517037326E+03  0.55822841726E+03  0.41800000000E+01 0. -1.
         -5    1    3    3    0  502 -0.27544019725E+02  0.70450572661E+02  0.77522237886E+03  0.77891537750E+03  0.41800000000E+01 0. -1.
        -11    1    4    4    0    0 -0.32677592755E+02 -0.68181451773E+02  0.14795972425E+03  0.16615840465E+03  0.00000000000E+00 0. -1.
         11    1    4    4    0    0  0.91594457029E+01  0.25659452726E+02  0.67899002489E+02  0.73161311489E+02  0.00000000000E+00 0.  1.
</event>
<event>
 8    1  0.3719512E-009  0.7363676E+02  0.7561462E-02  0.1348145E+00
         -1   -1    0    0    0  501 -0.00000000000E+00  0.00000000000E+00  0.19011245843E+02  0.19011245843E+02  0.00000000000E+00 0.  1.
          1   -1    0    0  501    0  0.00000000000E+00 -0.00000000000E+00 -0.76150566220E+03  0.76150566220E+03  0.00000000000E+00 0. -1.
         25    2    1    2    0    0  0.56295595138E+02 -0.71555604814E+01 -0.51080605924E+03  0.52895393209E+03  0.12509610722E+03 0.  0.
         23    2    1    2    0    0 -0.56295595138E+02  0.71555604814E+01 -0.23168835712E+03  0.25156297595E+03  0.79900187534E+02 0.  0.
          5    1    3    3  502    0  0.29592184454E+02 -0.94197054258E+01 -0.49795552517E+03  0.49894048310E+03  0.41800000000E+01 0.  1.
         -5    1    3    3    0  502  0.26703410684E+02  0.22641449444E+01 -0.12850534072E+02  0.30013448993E+02  0.41800000000E+01 0.  1.
        -11    1    4    4    0    0 -0.32600739778E+02 -0.30291166490E+02 -0.16921692523E+03  0.17497065693E+03  0.00000000000E+00 0. -1.
         11    1    4    4    0    0 -0.23694855361E+02  0.37446726971E+02 -0.62471431890E+02  0.76592319026E+02  0.00000000000E+00 0.  1.
</event>
<event>
 8    1  0.3719512E-009  0.2406624E+03  0.7561462E-02  0.1119352E+00
         -1   -1    0    0    0  501 -0.00000000000E+00  0.00000000000E+00  0.73147525493E+03  0.73147525493E+03  0.00000000000E+00 0.  1.
          1   -1    0    0  501    0  0.00000000000E+00 -0.00000000000E+00 -0.17758520902E+03  0.17758520902E+03  0.00000000000E+00 0. -1.
         25    2    1    2    0    0  0.14993384316E+03 -0.18369258494E+03 -0.32482472559E+02  0.27004877616E+03  0.12509239545E+03 0.  0.
         23    2    1    2    0    0 -0.14993384316E+03  0.18369258494E+03  0.58637251847E+03  0.63901168779E+03  0.90994964844E+02 0.  0.
          5    1    3    3  502    0  0.30703251108E+02 -0.77351409238E+02  0.42471878189E+02  0.93526803520E+02  0.41800000000E+01 0.  1.
         -5    1    3    3    0  502  0.11923059205E+03 -0.10634117570E+03 -0.74954350748E+02  0.17652197264E+03  0.41800000000E+01 0.  1.
        -11    1    4    4    0    0 -0.71306961228E+02  0.10511627194E+03  0.42105844369E+03  0.43980032554E+03  0.00000000000E+00 0.  1.
         11    1    4    4    0    0 -0.78626881934E+02  0.78576312998E+02  0.16531407478E+03  0.19921136225E+03  0.00000000000E+00 0. -1.
</event>
<event>
 8    1  0.3719512E-009  0.8645041E+02  0.7561462E-02  0.1311683E+00
          1   -1    0    0  501    0  0.00000000000E+00  0.00000000000E+00  0.27121600276E+03  0.27121600276E+03  0.00000000000E+00 0. -1.
         -1   -1    0    0    0  501 -0.00000000000E+00 -0.00000000000E+00 -0.68213745963E+02  0.68213745963E+02  0.00000000000E+00 0.  1.
         25    2    1    2    0    0  0.11996606555E+02  0.38434982750E+02  0.20050139833E+03  0.23972682298E+03  0.12508785894E+03 0.  0.
         23    2    1    2    0    0 -0.11996606555E+02 -0.38434982750E+02  0.25008584690E+01  0.99702925748E+02  0.91177040102E+02 0.  0.
          5    1    3    3  502    0  0.31371154683E+01  0.55626059639E+02  0.21033688594E+03  0.21763082960E+03  0.41800000000E+01 0.  1.
         -5    1    3    3    0  502  0.88594910867E+01 -0.17191076889E+02 -0.98354876098E+01  0.22095993380E+02  0.41800000000E+01 0.  1.
        -11    1    4    4    0    0 -0.41826603654E+02 -0.50055076479E+02 -0.86541651880E+01  0.65801747922E+02  0.00000000000E+00 0.  1.
         11    1    4    4    0    0  0.29829997099E+02  0.11620093729E+02  0.11155023657E+02  0.33901177826E+02  0.00000000000E+00 0. -1.
</event>
<event>
 8    1  0.3719512E-009  0.9724847E+02  0.7561462E-02  0.1286191E+00
         -1   -1    0    0    0  501 -0.00000000000E+00  0.00000000000E+00  0.72864995373E+02  0.72864995373E+02  0.00000000000E+00 0.  1.
          1   -1    0    0  501    0  0.00000000000E+00 -0.00000000000E+00 -0.19629889222E+03  0.19629889222E+03  0.00000000000E+00 0. -1.
         25    2    1    2    0    0  0.10235989447E+02 -0.28898500849E+02 -0.22671303838E+02  0.13076892803E+03  0.12508647285E+03 0.  0.
         23    2    1    2    0    0 -0.10235989447E+02  0.28898500849E+02 -0.10076259301E+03  0.13839495956E+03  0.89778426420E+02 0.  0.
          5    1    3    3  502    0 -0.42632100137E+02 -0.30907242018E+02  0.25896345011E+02  0.58828961032E+02  0.41800000000E+01 0.  1.
         -5    1    3    3    0  502  0.52868089584E+02  0.20087411687E+01 -0.48567648849E+02  0.71939967000E+02  0.41800000000E+01 0.  1.
        -11    1    4    4    0    0 -0.26249221931E+02  0.53302078724E+02 -0.88814758215E+02  0.10685595222E+03  0.00000000000E+00 0. -1.
         11    1    4    4    0    0  0.16013232484E+02 -0.24403577875E+02 -0.11947834794E+02  0.31539007339E+02  0.00000000000E+00 0.  1.
</event>
<event>
 8    1  0.3719512E-009  0.1899790E+03  0.7561462E-02  0.1158480E+00
          1   -1    0    0  501    0  0.00000000000E+00  0.00000000000E+00  0.16543778361E+04  0.16543778361E+04  0.00000000000E+00 0. -1.
         -1   -1    0    0    0  501 -0.00000000000E+00 -0.00000000000E+00 -0.23945694679E+02  0.23945694679E+02  0.00000000000E+00 0.  1.
         25    2    1    2    0    0 -0.78286527369E+01 -0.16609104574E+03  0.89474181882E+03  0.91861876810E+03  0.12509994199E+03 0.  0.
         23    2    1    2    0    0  0.78286527369E+01  0.16609104574E+03  0.73569032256E+03  0.75970476264E+03  0.90904083427E+02 0.  0.
          5    1    3    3  502    0 -0.59165766189E+02 -0.66421851242E+02  0.51531729285E+03  0.52295490716E+03  0.41800000000E+01 0. -1.
         -5    1    3    3    0  502  0.51337113452E+02 -0.99669194499E+02  0.37942452596E+03  0.39566386094E+03  0.41800000000E+01 0. -1.
        -11    1    4    4    0    0 -0.24808270567E+02  0.30821674604E+02  0.78067556545E+02  0.87521250555E+02  0.00000000000E+00 0. -1.
         11    1    4    4    0    0  0.32636923304E+02  0.13526937114E+03  0.65762276602E+03  0.67218351208E+03  0.00000000000E+00 0.  1.
</event>
<event>
 8    1  0.3719512E-009  0.1451423E+03  0.7561462E-02  0.1206572E+00
          2   -1    0    0  501    0  0.00000000000E+00  0.00000000000E+00  0.11934573428E+03  0.11934573428E+03  0.00000000000E+00 0.  1.
         -2   -1    0    0    0  501 -0.00000000000E+00 -0.00000000000E+00 -0.22607480472E+03  0.22607480472E+03  0.00000000000E+00 0. -1.
         25    2    1    2    0    0  0.69988562826E+02 -0.96309223888E+02 -0.22969979968E+02  0.17421045139E+03  0.12509115021E+03 0.  0.
         23    2    1    2    0    0 -0.69988562826E+02  0.96309223888E+02 -0.83759090476E+02  0.17121008761E+03  0.90130146622E+02 0.  0.
          5    1    3    3  502    0  0.10023748136E+03 -0.63881424934E+02 -0.41498170189E+02  0.12596808981E+03  0.41800000000E+01 0.  1.
         -5    1    3    3    0  502 -0.30248918538E+02 -0.32427798954E+02  0.18528190221E+02  0.48242361578E+02  0.41800000000E+01 0.  1.
        -11    1    4    4    0    0  0.13892889213E+01  0.27914660067E+02 -0.64774547872E+02  0.70547150349E+02  0.00000000000E+00 0. -1.
         11    1    4    4    0    0 -0.71377851747E+02  0.68394563821E+02 -0.18984542604E+02  0.10066293726E+03  0.00000000000E+00 0.  1.
</event>
<event>
 8    1  0.3719512E-009  0.2077755E+03  0.7561462E-02  0.1143340E+00
          2   -1    0    0  501    0  0.00000000000E+00  0.00000000000E+00  0.44668093669E+03  0.44668093669E+03  0.00000000000E+00 0. -1.
         -2   -1    0    0    0  501 -0.00000000000E+00 -0.00000000000E+00 -0.14626457233E+03  0.14626457233E+03  0.00000000000E+00 0.  1.
         25    2    1    2    0    0 -0.16079804175E+03 -0.89661176590E+02  0.31941372348E+03  0.38931773691E+03  0.12509211290E+03 0.  0.
         23    2    1    2    0    0  0.16079804175E+03  0.89661176590E+02 -0.18997359112E+02  0.20362777211E+03  0.84901313901E+02 0.  0.
          5    1    3    3  502    0  0.11811578850E+02  0.88212363686E+01  0.29461237695E+01  0.15603834505E+02  0.41800000000E+01 0. -1.
         -5    1    3    3    0  502 -0.17260962060E+03 -0.98482412959E+02  0.31646759971E+03  0.37371390241E+03  0.41800000000E+01 0. -1.
        -11    1    4    4    0    0  0.21092168158E+02  0.52965838908E+02 -0.15749720257E+02  0.59146541209E+02  0.00000000000E+00 0.  1.
         11    1    4    4    0    0  0.13970587359E+03  0.36695337682E+02 -0.32476388555E+01  0.14448123090E+03  0.00000000000E+00 0. -1.
</event>
<event>
 8    1  0.3719512E-009  0.1203134E+03  0.7561462E-02  0.1242581E+00
          2   -1    0    0  501    0  0.00000000000E+00  0.00000000000E+00  0.32865431778E+04  0.32865431778E+04  0.00000000000E+00 0. -1.
         -2   -1    0    0    0  501 -0.00000000000E+00 -0.00000000000E+00 -0.11769959328E+02  0.11769959328E+02  0.00000000000E+00 0.  1.
         25    2    1    2    0    0 -0.73457020123E+02  0.50592770622E+02  0.28565246375E+04  0.28606527758E+04  0.12508291926E+03 0.  0.
         23    2    1    2    0    0  0.73457020123E+02 -0.50592770622E+02  0.41824858099E+03  0.43766036137E+03  0.93054576278E+02 0.  0.
          5    1    3    3  502    0  0.11543085503E+02  0.18663787995E+02  0.18235270350E+04  0.18236638669E+04  0.41800000000E+01 0.  1.
         -5    1    3    3    0  502 -0.85000105626E+02  0.31928982628E+02  0.10329976026E+04  0.10369889089E+04  0.41800000000E+01 0.  1.
        -11    1    4    4    0    0  0.18391708974E+02  0.26742057439E+02  0.79768129484E+02  0.86118215707E+02  0.00000000000E+00 0.  1.
         11    1    4    4    0    0  0.55065311149E+02 -0.77334828062E+02  0.33848045151E+03  0.35154214566E+03  0.00000000000E+00 0. -1.
</event>
<event>
 8    1  0.3719512E-009  0.1146950E+03  0.7561462E-02  0.1252114E+00
          1   -1    0    0  501    0  0.00000000000E+00  0.00000000000E+00  0.40772232947E+03  0.40772232947E+03  0.00000000000E+00 0. -1.
         -1   -1    0    0    0  501 -0.00000000000E+00 -0.00000000000E+00 -0.42197672483E+02  0.42197672483E+02  0.00000000000E+00 0.  1.
         25    2    1    2    0    0  0.57258645704E+02  0.40999466147E+02  0.19356157661E+03  0.24098584847E+03  0.12509431038E+03 0.  0.
         23    2    1    2    0    0 -0.57258645704E+02 -0.40999466147E+02  0.17196308038E+03  0.20893415348E+03  0.95512673231E+02 0.  0.
          5    1    3    3  502    0  0.79105053865E+02  0.67251396521E+02  0.17014089229E+03  0.19936337555E+03  0.41800000000E+01 0. -1.
         -5    1    3    3    0  502 -0.21846408161E+02 -0.26251930374E+02  0.23420684323E+02  0.41622472921E+02  0.41800000000E+01 0. -1.
        -11    1    4    4    0    0 -0.62467844060E+02 -0.50438396320E+02  0.17891635228E+03  0.19610539125E+03  0.00000000000E+00 0. -1.
         11    1    4    4    0    0  0.52091983560E+01  0.94389301725E+01 -0.69532719025E+01  0.12828762234E+02  0.00000000000E+00 0.  1.
</event>
<event>
 8    1  0.3719512E-009  0.1040490E+03  0.7561462E-02  0.1272005E+00
         -2   -1    0    0    0  501 -0.00000000000E+00  0.00000000000E+00  0.35711645477E+03  0.35711645477E+03  0.00000000000E+00 0.  1.
          2   -1    0    0  501    0  0.00000000000E+00 -0.00000000000E+00 -0.69821418597E+02  0.69821418597E+02  0.00000000000E+00 0. -1.
         25    2    1    2    0    0 -0.15309147495E+02  0.63093226100E+02  0.26787316430E+02  0.14345486146E+03  0.12508641724E+03 0.  0.
         23    2    1    2    0    0  0.15309147495E+02 -0.63093226100E+02  0.26050771974E+03  0.28348301191E+03  0.91012201486E+02 0.  0.
          5    1    3    3  502    0 -0.45373864090E+02  0.58277419634E+02 -0.29244953259E+02  0.79547375021E+02  0.41800000000E+01 0.  1.
         -5    1    3    3    0  502  0.30064716595E+02  0.48158064659E+01  0.56032269689E+02  0.63907486434E+02  0.41800000000E+01 0.  1.
        -11    1    4    4    0    0  0.39099060442E+02 -0.68608151254E+02  0.14195195283E+03  0.16243820935E+03  0.00000000000E+00 0. -1.
         11    1    4    4    0    0 -0.23789912947E+02  0.55149251544E+01  0.11855576691E+03  0.12104480256E+03  0.00000000000E+00 0.  1.
</event>
<event>
 8    1  0.3719512E-009  0.1382095E+03  0.7561462E-02  0.1215759E+00
         -1   -1    0    0    0  501 -0.00000000000E+00  0.00000000000E+00  0.75575569652E+02  0.75575569652E+02  0.00000000000E+00 0. -1.
          1   -1    0    0  501    0  0.00000000000E+00 -0.00000000000E+00 -0.47679923850E+03  0.47679923850E+03  0.00000000000E+00 0.  1.
         25    2    1    2    0    0  0.70650261248E+02  0.83814832178E+02 -0.51129496224E+02  0.17401119496E+03  0.12509710260E+03 0.  0.
         23    2    1    2    0    0 -0.70650261248E+02 -0.83814832178E+02 -0.35009417263E+03  0.37836361320E+03  0.92610520873E+02 0.  0.
          5    1    3    3  502    0  0.93406569899E+01 -0.22784586935E+02 -0.44204131021E+02  0.50772658727E+02  0.41800000000E+01 0.  1.
         -5    1    3    3    0  502  0.61309604258E+02  0.10659941911E+03 -0.69253652028E+01  0.12323853623E+03  0.41800000000E+01 0.  1.
        -11    1    4    4    0    0 -0.25639832229E+02  0.73965602604E+01 -0.21142031999E+02  0.34045493350E+02  0.00000000000E+00 0. -1.
         11    1    4    4    0    0 -0.45010429019E+02 -0.91211392438E+02 -0.32895214063E+03  0.34431811985E+03  0.00000000000E+00 0.  1.
</event>
<event>
 8    1  0.3719512E-009  0.1743806E+03  0.7561462E-02  0.1173355E+00
         -2   -1    0    0    0  501 -0.00000000000E+00  0.00000000000E+00  0.79217034431E+02  0.79217034431E+02  0.00000000000E+00 0.  1.
          2   -1    0    0  501    0  0.00000000000E+00 -0.00000000000E+00 -0.45335423477E+03  0.45335423477E+03  0.00000000000E+00 0. -1.
         25    2    1    2    0    0  0.15398205453E+03  0.23022758329E+02 -0.20695414874E+03  0.28760870807E+03  0.12509288052E+03 0.  0.
         23    2    1    2    0    0 -0.15398205453E+03 -0.23022758329E+02 -0.16718305160E+03  0.24496256114E+03  0.88407935723E+02 0.  0.
          5    1    3    3  502    0  0.14956804334E+03 -0.15419705702E+02 -0.12027491981E+03  0.19259256384E+03  0.41800000000E+01 0.  1.
         -5    1    3    3    0  502  0.44140111897E+01  0.38442464030E+02 -0.86679228934E+02  0.95016144229E+02  0.41800000000E+01 0.  1.
        -11    1    4    4    0    0 -0.89509275424E+02  0.38057180566E+01 -0.14721296870E+03  0.17233122767E+03  0.00000000000E+00 0. -1.
         11    1    4    4    0    0 -0.64472779102E+02 -0.26828476386E+02 -0.19970082904E+02  0.72631333469E+02  0.00000000000E+00 0.  1.
</event>
<event>
 8    1  0.3719512E-009  0.1982967E+03  0.7561462E-02  0.1151184E+00
          2   -1    0    0  501    0  0.00000000000E+00  0.00000000000E+00  0.24164405717E+03  0.24164405717E+03  0.00000000000E+00 0. -1.
         -2   -1    0    0    0  501 -0.00000000000E+00 -0.00000000000E+00 -0.22674157369E+03  0.22674157369E+03  0.00000000000E+00 0.  1.
         25    2    1    2    0    0  0.15292739303E+03 -0.10533227924E+03  0.10142287192E+03  0.24579831806E+03  0.12509411506E+03 0.  0.
         23    2    1    2    0    0 -0.15292739303E+03  0.10533227924E+03 -0.86520388438E+02  0.22258731281E+03  0.87049742222E+02 0.  0.
          5    1    3    3  502    0  0.78371275431E+02 -0.10516268595E+03  0.10920909976E+03  0.17072008435E+03  0.41800000000E+01 0.  1.
         -5    1    3    3    0  502  0.74556117594E+02 -0.16959329292E+00 -0.77862278452E+01  0.75078233708E+02  0.41800000000E+01 0.  1.
        -11    1    4    4    0    0 -0.11269326774E+03  0.52581490958E+02 -0.15366250541E+02  0.12530246383E+03  0.00000000000E+00 0. -1.
         11    1    4    4    0    0 -0.40234125286E+02  0.52750788283E+02 -0.71154137897E+02  0.97284848984E+02  0.00000000000E+00 0.  1.
</event>
<event>
 8    1  0.3719512E-009  0.1935624E+03  0.7561462E-02  0.1155287E+00
         -2   -1    0    0    0  501 -0.00000000000E+00  0.00000000000E+00  0.30748376276E+02  0.30748376276E+02  0.00000000000E+00 0.  1.
          2   -1    0    0  501    0  0.00000000000E+00 -0.00000000000E+00 -0.16073957675E+04  0.16073957675E+04  0.00000000000E+00 0. -1.
         25    2    1    2    0    0 -0.16108170848E+03  0.75084595871E+02 -0.53148760874E+03  0.57420465696E+03  0.12508755528E+03 0.  0.
         23    2    1    2    0    0  0.16108170848E+03 -0.75084595871E+02 -0.10451597825E+04  0.10639394868E+04  0.89572581385E+02 0.  0.
          5    1    3    3  502    0 -0.84823018945E+01 -0.12928245564E+02 -0.19711553393E+01  0.16138365226E+02  0.41800000000E+01 0.  1.
         -5    1    3    3    0  502 -0.15259940659E+03  0.88012841436E+02 -0.52951645340E+03  0.55806629173E+03  0.41800000000E+01 0.  1.
        -11    1    4    4    0    0  0.76111627862E+01  0.15085463746E+02 -0.45080521053E+02  0.48143061741E+02  0.00000000000E+00 0.  1.
         11    1    4    4    0    0  0.15347054570E+03 -0.90170059617E+02 -0.10000792614E+04  0.10157964251E+04  0.00000000000E+00 0. -1.
</event>
<event>
 8    1  0.3719512E-009  0.7537595E+02  0.7561462E-02  0.1342711E+00
          1   -1    0    0  501    0  0.00000000000E+00  0.00000000000E+00  0.50885014707E+02  0.50885014707E+02  0.00000000000E+00 0. -1.
         -1   -1    0    0    0  501 -0.00000000000E+00 -0.00000000000E+00 -0.24898975791E+03  0.24898975791E+03  0.00000000000E+00 0.  1.
         25    2    1    2    0    0  0.22601073134E+02  0.13152182750E+02 -0.13341090222E+03  0.18474181210E+03  0.12508908782E+03 0.  0.
         23    2    1    2    0    0 -0.22601073134E+02 -0.13152182750E+02 -0.64693840987E+02  0.11513296051E+03  0.91577929201E+02 0.  0.
          5    1    3    3  502    0 -0.30163418748E+02  0.19846244354E+02  0.47318315757E+01  0.36654711506E+02  0.41800000000E+01 0. -1.
         -5    1    3    3    0  502  0.52764491881E+02 -0.66940616043E+01 -0.13814273379E+03  0.14808710060E+03  0.41800000000E+01 0. -1.
        -11    1    4    4    0    0  0.75440903901E+01 -0.26887343527E+02 -0.75330745290E+02  0.80340299525E+02  0.00000000000E+00 0.  1.
         11    1    4    4    0    0 -0.30145163524E+02  0.13735160777E+02  0.10636904303E+02  0.34792660988E+02  0.00000000000E+00 0. -1.
</event>
<event>
 8    1  0.3719512E-009  0.2699640E+03  0.7561462E-02  0.1101300E+00
         -2   -1    0    0    0  501 -0.00000000000E+00  0.00000000000E+00  0.86367942579E+02  0.86367942579E+02  0.00000000000E+00 0.  1.
          2   -1    0    0  501    0  0.00000000000E+00 -0.00000000000E+00 -0.10505334987E+04  0.10505334987E+04  0.00000000000E+00 0. -1.
         25    2    1    2    0    0 -0.25817566988E+03  0.56709663716E+02 -0.31327995621E+03  0.42855807761E+03  0.12508809873E+03 0.  0.
         23    2    1    2    0    0  0.25817566988E+03 -0.56709663716E+02 -0.65088559995E+03  0.70834336371E+03  0.90706086944E+02 0.  0.
          5    1    3    3  502    0 -0.88975926078E+02  0.51493654055E+02 -0.19974765350E+03  0.22468847169E+03  0.41800000000E+01 0. -1.
         -5    1    3    3    0  502 -0.16919974381E+03  0.52160096618E+01 -0.11353230271E+03  0.20386960592E+03  0.41800000000E+01 0. -1.
        -11    1    4    4    0    0  0.17669240088E+03 -0.58740063887E+02 -0.53645892993E+03  0.56785454399E+03  0.00000000000E+00 0. -1.
         11    1    4    4    0    0  0.81483269008E+02  0.20304001711E+01 -0.11442667003E+03  0.14048881972E+03  0.00000000000E+00 0.  1.
</event>
<event>
 8    1  0.3719512E-009  0.1168846E+03  0.7561462E-02  0.1248327E+00
         -2   -1    0    0    0  501 -0.00000000000E+00  0.00000000000E+00  0.43627710631E+02  0.43627710631E+02  0.00000000000E+00 0.  1.
          2   -1    0    0  501    0  0.00000000000E+00 -0.00000000000E+00 -0.36776067377E+03  0.36776067377E+03  0.00000000000E+00 0. -1.
         25    2    1    2    0    0  0.39345818387E+02  0.52341626948E+02 -0.17816769398E+03  0.22732579096E+03  0.12508216788E+03 0.  0.
         23    2    1    2    0    0 -0.39345818387E+02 -0.52341626948E+02 -0.14596526916E+03  0.18406259344E+03  0.91024387762E+02 0.  0.
          5    1    3    3  502    0 -0.25324543309E+02  0.56300244254E+02 -0.13732679525E+03  0.15062261148E+03  0.41800000000E+01 0.  1.
         -5    1    3    3    0  502  0.64670361696E+02 -0.39586173068E+01 -0.40840898735E+02  0.76703179480E+02  0.41800000000E+01 0.  1.
        -11    1    4    4    0    0  0.25266718177E+02 -0.28524002150E+02 -0.27341536414E+02  0.46899737308E+02  0.00000000000E+00 0.  1.
         11    1    4    4    0    0 -0.64612536564E+02 -0.23817624798E+02 -0.11862373275E+03  0.13716285613E+03  0.00000000000E+00 0. -1.
</event>
<event>
 8    1  0.3719512E-009  0.1967472E+03  0.7561462E-02  0.1152513E+00
         -1   -1    0    0    0  501 -0.00000000000E+00  0.00000000000E+00  0.35492844960E+03  0.35492844960E+03  0.00000000000E+00 0.  1.
          1   -1    0    0  501    0  0.00000000000E+00 -0.00000000000E+00 -0.13308892352E+03  0.13308892352E+03  0.00000000000E+00 0. -1.
         25    2    1    2    0    0  0.14872019052E+03 -0.82806837631E+02  0.19711751229E+03  0.28892769303E+03  0.12509688533E+03 0.  0.
         23    2    1    2    0    0 -0.14872019052E+03  0.82806837631E+02  0.24722013785E+02  0.19908968010E+03  0.10025395418E+03 0.  0.
          5    1    3    3  502    0  0.62340634542E+02 -0.90134660749E+02  0.16126313639E+03  0.19502277647E+03  0.41800000000E+01 0.  1.
         -5    1    3    3    0  502  0.86379555976E+02  0.73278231179E+01  0.35854375905E+02  0.93904916558E+02  0.41800000000E+01 0.  1.
        -11    1    4    4    0    0 -0.10054122428E+03  0.10377115211E+03  0.24472639243E+02  0.14654657915E+03  0.00000000000E+00 0.  1.
         11    1    4    4    0    0 -0.48178966239E+02 -0.20964314477E+02  0.24937454141E+00  0.52543100946E+02  0.00000000000E+00 0. -1.
</event>
<event>
 8    1  0.3719512E-009  0.2028811E+03  0.7561462E-02  0.1147331E+00
         -2   -1    0    0    0  501 -0.00000000000E+00  0.00000000000E+00  0.50589408492E+03  0.50589408492E+03  0.00000000000E+00 0.  1.
          2   -1    0    0  501    0  0.00000000000E+00 -0.00000000000E+00 -0.12963990474E+03  0.12963990474E+03  0.00000000000E+00 0. -1.
         25    2    1    2    0    0  0.19333637451E+03  0.35585503029E+02  0.40389217517E+02  0.23648199159E+03  0.12508861548E+03 0.  0.
         23    2    1    2    0    0 -0.19333637451E+03 -0.35585503029E+02  0.33586496266E+03  0.39905199807E+03  0.88271979066E+02 0.  0.
          5    1    3    3  502    0  0.87384033644E+02  0.50427977791E+02 -0.33503633911E+02  0.10639039508E+03  0.41800000000E+01 0.  1.
         -5    1    3    3    0  502  0.10595234086E+03 -0.14842474762E+02  0.73892851428E+02  0.13009159651E+03  0.41800000000E+01 0.  1.
        -11    1    4    4    0    0 -0.95510877399E+02 -0.28321434612E+02  0.24837755036E+03  0.26761135791E+03  0.00000000000E+00 0.  1.
         11    1    4    4    0    0 -0.97825497108E+02 -0.72640684178E+01  0.87487412296E+02  0.13144064016E+03  0.00000000000E+00 0. -1.
</event>
<event>
 8    1  0.3719512E-009  0.1398707E+03  0.7561462E-02  0.1213503E+00
          2   -1    0    0  501    0  0.00000000000E+00  0.00000000000E+00  0.22367989994E+04  0.22367989994E+04  0.00000000000E+00 0. -1.
         -2   -1    0    0    0  501 -0.00000000000E+00 -0.00000000000E+00 -0.14536434317E+02  0.14536434317E+02  0.00000000000E+00 0.  1.
         25    2    1    2    0    0 -0.46503640107E+02 -0.73665884885E+02  0.18778280979E+04  0.18840050981E+04  0.12509033936E+03 0.  0.
         23    2    1    2    0    0  0.46503640107E+02  0.73665884885E+02  0.34443446715E+03  0.36733033565E+03  0.93312497511E+02 0.  0.
          5    1    3    3  502    0  0.29551392841E+02 -0.69792479971E+02  0.88148715214E+03  0.88474931301E+03  0.41800000000E+01 0. -1.
         -5    1    3    3    0  502 -0.76055032948E+02 -0.38734049145E+01  0.99634094578E+03  0.99925578504E+03  0.41800000000E+01 0. -1.
        -11    1    4    4    0    0  0.54225577174E+02  0.73707499945E+00  0.13962117364E+03  0.14978327219E+03  0.00000000000E+00 0. -1.
         11    1    4    4    0    0 -0.77219370668E+01  0.72928809886E+02  0.20481329351E+03  0.21754706347E+03  0.00000000000E+00 0.  1.
</event>
<event>
 8    1  0.3719512E-009  0.1100290E+03  0.7561462E-02  0.1260516E+00
         -2   -1    0    0    0  501 -0.00000000000E+00  0.00000000000E+00  0.68680063936E+02  0.68680063936E+02  0.00000000000E+00 0.  1.
          2   -1    0    0  501    0  0.00000000000E+00 -0.00000000000E+00 -0.18890130566E+03  0.18890130566E+03  0.00000000000E+00 0. -1.
         25    2    1    2    0    0  0.26977087064E+01  0.25321083319E+02 -0.96506059864E+02  0.16002932186E+03  0.12509008502E+03 0.  0.
         23    2    1    2    0    0 -0.26977087064E+01 -0.25321083319E+02 -0.23715181857E+02  0.97552047736E+02  0.91134830193E+02 0.  0.
          5    1    3    3  502    0  0.48174673336E+02  0.53843651213E+02 -0.67041647082E+02  0.98650862999E+02  0.41800000000E+01 0.  1.
         -5    1    3    3    0  502 -0.45476964630E+02 -0.28522567894E+02 -0.29464412782E+02  0.61378458858E+02  0.41800000000E+01 0.  1.
        -11    1    4    4    0    0  0.20617429243E+02 -0.53461836595E+02 -0.83336600782E+01  0.57902471890E+02  0.00000000000E+00 0.  1.
         11    1    4    4    0    0 -0.23315137950E+02  0.28140753276E+02 -0.15381521779E+02  0.39649575846E+02  0.00000000000E+00 0. -1.
</event>
<event>
 8    1  0.3719512E-009  0.1097032E+03  0.7561462E-02  0.1261121E+00
         -2   -1    0    0    0  501 -0.00000000000E+00  0.00000000000E+00  0.76995156301E+03  0.76995156301E+03  0.00000000000E+00 0.  1.
          2   -1    0    0  501    0  0.00000000000E+00 -0.00000000000E+00 -0.16987078151E+02  0.16987078151E+02  0.00000000000E+00 0. -1.
         25    2    1    2    0    0  0.25730861709E+02 -0.41895290129E+01  0.40029615877E+03  0.42019838506E+03  0.12510011465E+03 0.  0.
         23    2    1    2    0    0 -0.25730861709E+02  0.41895290129E+01  0.35266832609E+03  0.36674025610E+03  0.97179410471E+02 0.  0.
          5    1    3    3  502    0 -0.11710269184E+02  0.51102879278E+02  0.25314178122E+03  0.25854761355E+03  0.41800000000E+01 0.  1.
         -5    1    3    3    0  502  0.37441130892E+02 -0.55292408291E+02  0.14715437755E+03  0.16165077151E+03  0.41800000000E+01 0.  1.
        -11    1    4    4    0    0  0.26222452104E+01 -0.43954628313E+02  0.13413639940E+03  0.14117881981E+03  0.00000000000E+00 0. -1.
         11    1    4    4    0    0 -0.28353106919E+02  0.48144157326E+02  0.21853192670E+03  0.22556143629E+03  0.00000000000E+00 0.  1.
</event>
<event>
 8    1  0.3719512E-009  0.1020810E+03  0.7561462E-02  0.1275980E+00
          3   -1    0    0  501    0  0.00000000000E+00  0.00000000000E+00  0.92643308179E+03  0.92643308179E+03  0.00000000000E+00 0. -1.
         -3   -1    0    0    0  501 -0.00000000000E+00 -0.00000000000E+00 -0.21194422838E+02  0.21194422838E+02  0.00000000000E+00 0.  1.
         25    2    1    2    0    0  0.24099522567E+02 -0.71484183648E+02  0.63935861487E+03  0.65583349664E+03  0.12508941365E+03 0.  0.
         23    2    1    2    0    0 -0.24099522567E+02  0.71484183648E+02  0.26588004408E+03  0.29179400799E+03  0.93598983736E+02 0.  0.
          5    1    3    3  502    0 -0.28093052406E+00  0.94536515991E+01 -0.54754064098E+00  0.10354837095E+02  0.41800000000E+01 0.  1.
         -5    1    3    3    0  502  0.24380453091E+02 -0.80937835247E+02  0.63990615551E+03  0.64547865955E+03  0.41800000000E+01 0.  1.
        -11    1    4    4    0    0 -0.15183746057E+02  0.88598804702E+02  0.25325139232E+03  0.26873139387E+03  0.00000000000E+00 0. -1.
         11    1    4    4    0    0 -0.89157765103E+01 -0.17114621054E+02  0.12628651761E+02  0.23062614117E+02  0.00000000000E+00 0.  1.
</event>
<event>
 8    1  0.3719512E-009  0.9787074E+02  0.7561462E-02  0.1284838E+00
          1   -1    0    0  501    0  0.00000000000E+00  0.00000000000E+00  0.16706430574E+03  0.16706430574E+03  0.00000000000E+00 0. -1.
         -1   -1    0    0    0  501 -0.00000000000E+00 -0.00000000000E+00 -0.69950100533E+02  0.69950100533E+02  0.00000000000E+00 0.  1.
         25    2    1    2    0    0 -0.90925019704E+01  0.95750260290E+01  0.55110319147E+02  0.13732673094E+03  0.12508848483E+03 0.  0.
         23    2    1    2    0    0  0.90925019704E+01 -0.95750260290E+01  0.42003886058E+02  0.99687675335E+02  0.89436857359E+02 0.  0.
          5    1    3    3  502    0 -0.18707690679E+01  0.60559229645E+02  0.60076766975E+02  0.85426052246E+02  0.41800000000E+01 0.  1.
         -5    1    3    3    0  502 -0.72217329025E+01 -0.50984203616E+02 -0.49664478275E+01  0.51900678690E+02  0.41800000000E+01 0.  1.
        -11    1    4    4    0    0  0.21267697633E+02 -0.42891825817E+02  0.45316176094E+01  0.48089076127E+02  0.00000000000E+00 0.  1.
         11    1    4    4    0    0 -0.12175195663E+02  0.33316799788E+02  0.37472268449E+02  0.51598599208E+02  0.00000000000E+00 0. -1.
</event>
<event>
 8    1  0.3719512E-009  0.9488687E+02  0.7561462E-02  0.1291431E+00
         -2   -1    0    0    0  501 -0.00000000000E+00  0.00000000000E+00  0.60366860761E+03  0.60366860761E+03  0.00000000000E+00 0.  1.
          2   -1    0    0  501    0  0.00000000000E+00 -0.00000000000E+00 -0.27896841732E+02  0.27896841732E+02  0.00000000000E+00 0. -1.
         25    2    1    2    0    0 -0.52882562203E+02  0.18996876310E+02  0.41634315066E+03  0.43834432811E+03  0.12508670668E+03 0.  0.
         23    2    1    2    0    0  0.52882562203E+02 -0.18996876310E+02  0.15942861521E+03  0.19322112123E+03  0.93592049050E+02 0.  0.
          5    1    3    3  502    0  0.30081117145E+02  0.30043110145E+02  0.23127836769E+03  0.23519059896E+03  0.41800000000E+01 0.  1.
         -5    1    3    3    0  502 -0.82963679348E+02 -0.11046233835E+02  0.18506478297E+03  0.20315372915E+03  0.41800000000E+01 0.  1.
        -11    1    4    4    0    0  0.24670986601E+02  0.61897126414E+01  0.15270558643E+03  0.15480945143E+03  0.00000000000E+00 0.  1.
         11    1    4    4    0    0  0.28211575602E+02 -0.25186588951E+02  0.67230287761E+01  0.38411669801E+02  0.00000000000E+00 0. -1.
</event>
<event>
 8    1  0.3719512E-009  0.1725788E+03  0.7561462E-02  0.1175185E+00
         -2   -1    0    0    0  501 -0.00000000000E+00  0.00000000000E+00  0.39518286200E+03  0.39518286200E+03  0.00000000000E+00 0.  1.
          2   -1    0    0  501    0  0.00000000000E+00 -0.00000000000E+00 -0.91191267363E+02  0.91191267363E+02  0.00000000000E+00 0. -1.
         25    2    1    2    0    0 -0.14395556399E+03 -0.37526266755E+02  0.21180476277E+03  0.28747177904E+03  0.12508933253E+03 0.  0.
         23    2    1    2    0    0  0.14395556399E+03  0.37526266755E+02  0.92186831872E+02  0.19890235032E+03  0.94510887696E+02 0.  0.
          5    1    3    3  502    0  0.19714825842E+02 -0.20811416623E+02  0.41795212030E+02  0.50853727184E+02  0.41800000000E+01 0.  1.
         -5    1    3    3    0  502 -0.16367038983E+03 -0.16714850132E+02  0.17000955074E+03  0.23661805186E+03  0.41800000000E+01 0.  1.
        -11    1    4    4    0    0  0.22430587914E+02  0.17498259756E+02  0.67552786835E+02  0.73298699700E+02  0.00000000000E+00 0.  1.
         11    1    4    4    0    0  0.12152497608E+03  0.20028006999E+02  0.24634045037E+02  0.12560365062E+03  0.00000000000E+00 0. -1.
</event>
<event>
 8    1  0.3719512E-009  0.1155897E+03  0.7561462E-02  0.1250555E+00
         -2   -1    0    0    0  501 -0.00000000000E+00  0.00000000000E+00  0.27155008496E+02  0.27155008496E+02  0.00000000000E+00 0.  1.
          2   -1    0    0  501    0  0.00000000000E+00 -0.00000000000E+00 -0.88209431165E+03  0.88209431165E+03  0.00000000000E+00 0. -1.
         25    2    1    2    0    0  0.76865664472E+02  0.53387634193E+02 -0.63183183086E+03  0.65085878385E+03  0.12508846540E+03 0.  0.
         23    2    1    2    0    0 -0.76865664472E+02 -0.53387634193E+02 -0.22310747230E+03  0.25839053629E+03  0.90720202772E+02 0.  0.
          5    1    3    3  502    0 -0.11855505602E+01  0.32882141824E+02 -0.45759204720E+03  0.45879254009E+03  0.41800000000E+01 0.  1.
         -5    1    3    3    0  502  0.78051215032E+02  0.20505492369E+02 -0.17423978366E+03  0.19206624377E+03  0.41800000000E+01 0.  1.
        -11    1    4    4    0    0 -0.30076457030E+02 -0.62659825914E+02 -0.18406425338E+03  0.19674983208E+03  0.00000000000E+00 0. -1.
         11    1    4    4    0    0 -0.46789207442E+02  0.92721917214E+01 -0.39043218917E+02  0.61640704212E+02  0.00000000000E+00 0.  1.
</event>
<event>
 8    1  0.3719512E-009  0.1042660E+03  0.7561462E-02  0.1271573E+00
          1   -1    0    0  501    0  0.00000000000E+00  0.00000000000E+00  0.91641289738E+02  0.91641289738E+02  0.00000000000E+00 0. -1.
         -1   -1    0    0    0  501 -0.00000000000E+00 -0.00000000000E+00 -0.16734783796E+03  0.16734783796E+03  0.00000000000E+00 0.  1.
         25    2    1    2    0    0  0.24550770009E+02  0.49655652305E+02 -0.20472842572E+02  0.13833173150E+03  0.12509239203E+03 0.  0.
         23    2    1    2    0    0 -0.24550770009E+02 -0.49655652305E+02 -0.55233705653E+02  0.12065739620E+03  0.91864143731E+02 0.  0.
          5    1    3    3  502    0  0.56309354430E+02  0.38243367204E+02 -0.56668484771E+02  0.88668416573E+02  0.41800000000E+01 0. -1.
         -5    1    3    3    0  502 -0.31758584421E+02  0.11412285101E+02  0.36195642199E+02  0.49663314930E+02  0.41800000000E+01 0. -1.
        -11    1    4    4    0    0 -0.45986425053E+02  0.62941335511E+01 -0.32086255648E+02  0.56426015346E+02  0.00000000000E+00 0.  1.
         11    1    4    4    0    0  0.21435655044E+02 -0.55949785856E+02 -0.23147450005E+02  0.64231380853E+02  0.00000000000E+00 0. -1.
</event>
<event>
 8    1  0.3719512E-009  0.1944258E+03  0.7561462E-02  0.1154529E+00
          2   -1    0    0  501    0  0.00000000000E+00  0.00000000000E+00  0.29005057896E+03  0.29005057896E+03  0.00000000000E+00 0.  1.
         -2   -1    0    0    0  501 -0.00000000000E+00 -0.00000000000E+00 -0.14946303826E+03  0.14946303826E+03  0.00000000000E+00 0. -1.
         25    2    1    2    0    0 -0.13325973942E+03 -0.11121946081E+03  0.55043918223E+02  0.22092041598E+03  0.12509224857E+03 0.  0.
         23    2    1    2    0    0  0.13325973942E+03  0.11121946081E+03  0.85543622482E+02  0.21859320124E+03  0.10167275775E+03 0.  0.
          5    1    3    3  502    0 -0.15676175370E+03 -0.85229787256E+02  0.49317019505E+02  0.18517020514E+03  0.41800000000E+01 0.  1.
         -5    1    3    3    0  502  0.23502014277E+02 -0.25989673551E+02  0.57268987173E+01  0.35750210842E+02  0.41800000000E+01 0.  1.
        -11    1    4    4    0    0  0.91783485083E+02  0.89774438172E+02  0.10707209284E+03  0.16717682539E+03  0.00000000000E+00 0.  1.
         11    1    4    4    0    0  0.41476254340E+02  0.21445022635E+02 -0.21528470354E+02  0.51416375851E+02  0.00000000000E+00 0. -1.
</event>
<event>
 8    1  0.3719512E-009  0.1647516E+03  0.7561462E-02  0.1183434E+00
         -3   -1    0    0    0  501 -0.00000000000E+00  0.00000000000E+00  0.34423392302E+02  0.34423392302E+02  0.00000000000E+00 0.  1.
          3   -1    0    0  501    0  0.00000000000E+00 -0.00000000000E+00 -0.86595425413E+03  0.86595425413E+03  0.00000000000E+00 0. -1.
         25    2    1    2    0    0  0.13369413989E+03  0.38487970064E+01 -0.44060700727E+03  0.47714845384E+03  0.12508867201E+03 0.  0.
         23    2    1    2    0    0 -0.13369413989E+03 -0.38487970064E+01 -0.39092385456E+03  0.42322919259E+03  0.91719971224E+02 0.  0.
          5    1    3    3  502    0  0.14925347289E+03  0.21833938061E+02 -0.41664958737E+03  0.44313392003E+03  0.41800000000E+01 0.  1.
         -5    1    3    3    0  502 -0.15559332999E+02 -0.17985141054E+02 -0.23957419895E+02  0.34014533808E+02  0.41800000000E+01 0.  1.
        -11    1    4    4    0    0 -0.36401139829E+02  0.34240058563E+02 -0.19365329977E+03  0.19999756274E+03  0.00000000000E+00 0. -1.
         11    1    4    4    0    0 -0.97293000062E+02 -0.38088855569E+02 -0.19727055479E+03  0.22323162985E+03  0.00000000000E+00 0.  1.
</event>
<event>
 8    1  0.3719512E-009  0.1102291E+03  0.7561462E-02  0.1260146E+00
         -2   -1    0    0    0  501 -0.00000000000E+00  0.00000000000E+00  0.19557688116E+03  0.19557688116E+03  0.00000000000E+00 0.  1.
          2   -1    0    0  501    0  0.00000000000E+00 -0.00000000000E+00 -0.12054214185E+03  0.12054214185E+03  0.00000000000E+00 0. -1.
         25    2    1    2    0    0 -0.93208148128E+02  0.55886489644E+02  0.36305486308E+02  0.16964026865E+03  0.12509465940E+03 0.  0.
         23    2    1    2    0    0  0.93208148128E+02 -0.55886489644E+02  0.38729253004E+02  0.14647875436E+03  0.90249719333E+02 0.  0.
          5    1    3    3  502    0 -0.73626624348E+02  0.53933663671E+02 -0.33256589467E+02  0.97227532278E+02  0.41800000000E+01 0. -1.
         -5    1    3    3    0  502 -0.19581523780E+02  0.19528259733E+01  0.69562075775E+02  0.72412736373E+02  0.41800000000E+01 0. -1.
        -11    1    4    4    0    0  0.65316167051E+02 -0.34774462694E+02  0.68280585006E+02  0.10068616202E+03  0.00000000000E+00 0.  1.
         11    1    4    4    0    0  0.27891981076E+02 -0.21112026951E+02 -0.29551332002E+02  0.45792592342E+02  0.00000000000E+00 0. -1.
</event>
<event>
 8    1  0.3719512E-009  0.1106141E+03  0.7561462E-02  0.1259437E+00
          2   -1    0    0  501    0  0.00000000000E+00  0.00000000000E+00  0.10465118333E+03  0.10465118333E+03  0.00000000000E+00 0. -1.
         -2   -1    0    0    0  501 -0.00000000000E+00 -0.00000000000E+00 -0.14809697445E+03  0.14809697445E+03  0.00000000000E+00 0.  1.
         25    2    1    2    0    0 -0.22183019375E+02  0.59774723890E+02 -0.29427713432E+02  0.14345397318E+03  0.12509175888E+03 0.  0.
         23    2    1    2    0    0  0.22183019375E+02 -0.59774723890E+02 -0.14018077693E+02  0.10929418459E+03  0.87656193843E+02 0.  0.
          5    1    3    3  502    0 -0.33762488250E+02  0.81278236309E+02 -0.58112622280E+02  0.10554907190E+03  0.41800000000E+01 0. -1.
         -5    1    3    3    0  502  0.11579468875E+02 -0.21503512419E+02  0.28684908848E+02  0.37904901284E+02  0.41800000000E+01 0. -1.
        -11    1    4    4    0    0  0.51031693072E+02 -0.11831045676E+02 -0.84759055426E+01  0.53066451873E+02  0.00000000000E+00 0.  1.
         11    1    4    4    0    0 -0.28848673697E+02 -0.47943678214E+02 -0.55421721502E+01  0.56227732721E+02  0.00000000000E+00 0. -1.
</event>
<event>
 8    1  0.3719512E-009  0.9963090E+02  0.7561462E-02  0.1281074E+00
          2   -1    0    0  501    0  0.00000000000E+00  0.00000000000E+00  0.97203416750E+02  0.97203416750E+02  0.00000000000E+00 0.  1.
         -2   -1    0    0    0  501 -0.00000000000E+00 -0.00000000000E+00 -0.20361368510E+03  0.20361368510E+03  0.00000000000E+00 0. -1.
         25    2    1    2    0    0  0.25587174757E+02 -0.29711978695E+02  0.27373328053E+02  0.13392283262E+03  0.12509404789E+03 0.  0.
         23    2    1    2    0    0 -0.25587174757E+02  0.29711978695E+02 -0.13378359640E+03  0.16689426923E+03  0.91750429136E+02 0.  0.
          5    1    3    3  502    0  0.59493177193E+02 -0.27150488569E+02  0.58345132233E+02  0.87739466703E+02  0.41800000000E+01 0.  1.
         -5    1    3    3    0  502 -0.33906002436E+02 -0.25614901258E+01 -0.30971804180E+02  0.46183365912E+02  0.41800000000E+01 0.  1.
        -11    1    4    4    0    0  0.24511887270E+02 -0.17905985460E+02 -0.46979996236E+02  0.55933683762E+02  0.00000000000E+00 0.  1.
         11    1    4    4    0    0 -0.50099062028E+02  0.47617964155E+02 -0.86803600164E+02  0.11096058547E+03  0.00000000000E+00 0. -1.
</event>
<event>
 8    1  0.3719512E-009  0.1189666E+03  0.7561462E-02  0.1244812E+00
         -2   -1    0    0    0  501 -0.00000000000E+00  0.00000000000E+00  0.50830140608E+02  0.50830140608E+02  0.00000000000E+00 0.  1.
          2   -1    0    0  501    0  0.00000000000E+00 -0.00000000000E+00 -0.45817437542E+03  0.45817437542E+03  0.00000000000E+00 0. -1.
         25    2    1    2    0    0 -0.44108054075E+02 -0.38275976472E+02 -0.70612103339E+02  0.15506080284E+03  0.12508881897E+03 0.  0.
         23    2    1    2    0    0  0.44108054075E+02  0.38275976472E+02 -0.33673213148E+03  0.35394371319E+03  0.92070912494E+02 0.  0.
          5    1    3    3  502    0  0.38579984127E+02  0.30148990141E+01 -0.41362641868E+00  0.38924905627E+02  0.41800000000E+01 0. -1.
         -5    1    3    3    0  502 -0.82688038202E+02 -0.41290875487E+02 -0.70198476920E+02  0.11613589722E+03  0.41800000000E+01 0. -1.
        -11    1    4    4    0    0  0.51556305189E+02  0.62574184853E+02 -0.28496669421E+03  0.29627621914E+03  0.00000000000E+00 0. -1.
         11    1    4    4    0    0 -0.74482511137E+01 -0.24298208381E+02 -0.51765437263E+02  0.57667494052E+02  0.00000000000E+00 0.  1.
</event>
<event>
 8    1  0.3719512E-009  0.1482223E+03  0.7561462E-02  0.1202675E+00
         -2   -1    0    0    0  501 -0.00000000000E+00  0.00000000000E+00  0.32743042074E+02  0.32743042074E+02  0.00000000000E+00 0.  1.
          2   -1    0    0  501    0  0.00000000000E+00 -0.00000000000E+00 -0.10351902487E+04  0.10351902487E+04  0.00000000000E+00 0. -1.
         25    2    1    2    0    0  0.13490229143E+03  0.22756857928E+02 -0.36367899558E+03  0.40820010635E+03  0.12509361369E+03 0.  0.
         23    2    1    2    0    0 -0.13490229143E+03 -0.22756857928E+02 -0.63876821102E+03  0.65973318440E+03  0.92230929557E+02 0.  0.
          5    1    3    3  502    0  0.39206881731E+02  0.43779510255E+02 -0.43215923758E+02  0.73067869543E+02  0.41800000000E+01 0. -1.
         -5    1    3    3    0  502  0.95695409697E+02 -0.21022652327E+02 -0.32046307182E+03  0.33513223681E+03  0.41800000000E+01 0. -1.
        -11    1    4    4    0    0 -0.12580668291E+03 -0.13576281424E+02 -0.63309970594E+03  0.64562130893E+03  0.00000000000E+00 0. -1.
         11    1    4    4    0    0 -0.90956085215E+01 -0.91805765043E+01 -0.56685050793E+01  0.14111875466E+02  0.00000000000E+00 0.  1.
</event>
<event>
 8    1  0.3719512E-009  0.1789323E+03  0.7561462E-02  0.1168840E+00
         -1   -1    0    0    0  501 -0.00000000000E+00  0.00000000000E+00  0.10204487053E+03  0.10204487053E+03  0.00000000000E+00 0.  1.
          1   -1    0    0  501    0  0.00000000000E+00 -0.00000000000E+00 -0.37361152018E+03  0.37361152018E+03  0.00000000000E+00 0. -1.
         25    2    1    2    0    0  0.16027434971E+03  0.15363038760E+02 -0.16342762263E+03  0.26130224888E+03  0.12508551993E+03 0.  0.
         23    2    1    2    0    0 -0.16027434971E+03 -0.15363038760E+02 -0.10813902702E+03  0.21435414183E+03  0.91267512410E+02 0.  0.
          5    1    3    3  502    0 -0.16925588413E+02 -0.40104243426E+01 -0.41792471226E+02  0.45460335433E+02  0.41800000000E+01 0. -1.
         -5    1    3    3    0  502  0.17719993812E+03  0.19373463102E+02 -0.12163515140E+03  0.21584191345E+03  0.41800000000E+01 0. -1.
        -11    1    4    4    0    0 -0.77176029781E+02 -0.14732213399E+02 -0.75779859524E+00  0.78573226630E+02  0.00000000000E+00 0.  1.
         11    1    4    4    0    0 -0.83098319930E+02 -0.63082536074E+00 -0.10738122842E+03  0.13578091520E+03  0.00000000000E+00 0. -1.
</event>
<event>
 8    1  0.3719512E-009  0.9528552E+02  0.7561462E-02  0.1290534E+00
         -1   -1    0    0    0  501 -0.00000000000E+00  0.00000000000E+00  0.37403148614E+03  0.37403148614E+03  0.00000000000E+00 0.  1.
          1   -1    0    0  501    0  0.00000000000E+00 -0.00000000000E+00 -0.49037295350E+02  0.49037295350E+02  0.00000000000E+00 0. -1.
         25    2    1    2    0    0 -0.25812125590E+02  0.67654965719E+02  0.22928370821E+03  0.27103873148E+03  0.12509002717E+03 0.  0.
         23    2    1    2    0    0  0.25812125590E+02 -0.67654965719E+02  0.95710482586E+02  0.15203005002E+03  0.93322984401E+02 0.  0.
          5    1    3    3  502    0 -0.43756391161E+02  0.54413438179E+02  0.40361053768E+02  0.80758473754E+02  0.41800000000E+01 0.  1.
         -5    1    3    3    0  502  0.17944265570E+02  0.13241527541E+02  0.18892265444E+03  0.19028025772E+03  0.41800000000E+01 0.  1.
        -11    1    4    4    0    0 -0.20607237650E+02 -0.36852473925E+02  0.85549207616E+02  0.95401415093E+02  0.00000000000E+00 0.  1.
         11    1    4    4    0    0  0.46419363241E+02 -0.30802491794E+02  0.10161274970E+02  0.56628634924E+02  0.00000000000E+00 0. -1.
</event>
<event>
 8    1  0.3719512E-009  0.1250384E+03  0.7561462E-02  0.1235009E+00
          4   -1    0    0  501    0  0.00000000000E+00  0.00000000000E+00  0.54019298987E+03  0.54019298987E+03  0.00000000000E+00 0. -1.
         -4   -1    0    0    0  501 -0.00000000000E+00 -0.00000000000E+00 -0.40924999178E+02  0.40924999178E+02  0.00000000000E+00 0.  1.
         25    2    1    2    0    0  0.92047531418E+02  0.37714042739E+02  0.30698525169E+03  0.34609811817E+03  0.12509542592E+03 0.  0.
         23    2    1    2    0    0 -0.92047531418E+02 -0.37714042739E+02  0.19228273900E+03  0.23501987088E+03  0.91469070885E+02 0.  0.
          5    1    3    3  502    0 -0.26036580198E+02  0.14621464811E+02  0.11981524094E+03  0.12355102227E+03  0.41800000000E+01 0. -1.
         -5    1    3    3    0  502  0.11808411162E+03  0.23092577928E+02  0.18717001075E+03  0.22254709590E+03  0.41800000000E+01 0. -1.
        -11    1    4    4    0    0 -0.40022527870E+02 -0.18204108625E+02  0.10874004426E+02  0.45292783975E+02  0.00000000000E+00 0.  1.
         11    1    4    4    0    0 -0.52025003548E+02 -0.19509934114E+02  0.18140873458E+03  0.18972708690E+03  0.00000000000E+00 0. -1.
</event>
<event>
 8    1  0.3719512E-009  0.1261490E+03  0.7561462E-02  0.1233284E+00
         -1   -1    0    0    0  501 -0.00000000000E+00  0.00000000000E+00  0.68036330030E+02  0.68036330030E+02  0.00000000000E+00 0.  1.
          1   -1    0    0  501    0  0.00000000000E+00 -0.00000000000E+00 -0.49433401066E+03  0.49433401066E+03  0.00000000000E+00 0. -1.
         25    2    1    2    0    0  0.84476607633E+01  0.91553870132E+02 -0.50197323063E+02  0.16315898932E+03  0.12509040908E+03 0.  0.
         23    2    1    2    0    0 -0.84476607633E+01 -0.91553870132E+02 -0.37610035757E+03  0.39921135137E+03  0.97286946679E+02 0.  0.
          5    1    3    3  502    0  0.17897523569E+02 -0.20550443052E+02  0.16670515754E+02  0.32218326385E+02  0.41800000000E+01 0. -1.
         -5    1    3    3    0  502 -0.94498628059E+01  0.11210431318E+03 -0.66867838816E+02  0.13094066293E+03  0.41800000000E+01 0. -1.
        -11    1    4    4    0    0 -0.31191253759E+02 -0.19965472106E+02 -0.38755606446E+02  0.53605143582E+02  0.00000000000E+00 0.  1.
         11    1    4    4    0    0  0.22743592996E+02 -0.71588398027E+02 -0.33734475112E+03  0.34560620779E+03  0.00000000000E+00 0. -1.
</event>
<event>
 8    1  0.3719512E-009  0.1273342E+03  0.7561462E-02  0.1231466E+00
         -2   -1    0    0    0  501 -0.00000000000E+00  0.00000000000E+00  0.32515030648E+02  0.32515030648E+02  0.00000000000E+00 0.  1.
          2   -1    0    0  501    0  0.00000000000E+00 -0.00000000000E+00 -0.64768198016E+03  0.64768198016E+03  0.00000000000E+00 0. -1.
         25    2    1    2    0    0  0.16451256030E+02 -0.84689850853E+02 -0.39137086256E+03  0.41983422917E+03  0.12508642317E+03 0.  0.
         23    2    1    2    0    0 -0.16451256030E+02  0.84689850853E+02 -0.22379608695E+03  0.26036278164E+03  0.10129696374E+03 0.  0.
          5    1    3    3  502    0  0.20177279166E+02 -0.11691470041E+03 -0.29164472080E+03  0.31488138296E+03  0.41800000000E+01 0.  1.
         -5    1    3    3    0  502 -0.37260231363E+01  0.32224849554E+02 -0.99726141761E+02  0.10495284621E+03  0.41800000000E+01 0.  1.
        -11    1    4    4    0    0 -0.33491320329E+02  0.26787193099E+02 -0.19088658429E+02  0.46942508797E+02  0.00000000000E+00 0. -1.
         11    1    4    4    0    0  0.17040064299E+02  0.57902657754E+02 -0.20470742852E+03  0.21342027284E+03  0.00000000000E+00 0.  1.
</event>
<event>
 8    1  0.3719512E-009  0.9794178E+02  0.7561462E-02  0.1284685E+00
          2   -1    0    0  501    0  0.00000000000E+00  0.00000000000E+00  0.97289008342E+03  0.97289008342E+03  0.00000000000E+00 0. -1.
         -2   -1    0    0    0  501 -0.00000000000E+00 -0.00000000000E+00 -0.22419377731E+02  0.22419377731E+02  0.00000000000E+00 0.  1.
         25    2    1    2    0    0  0.70472636915E+02  0.49554449383E+02  0.67808207533E+03  0.69488477893E+03  0.12509004396E+03 0.  0.
         23    2    1    2    0    0 -0.70472636915E+02 -0.49554449383E+02  0.27238863035E+03  0.30042468221E+03  0.92937547477E+02 0.  0.
          5    1    3    3  502    0  0.18256225447E+02  0.77532524502E+01  0.85376953245E+01  0.21994711469E+02  0.41800000000E+01 0.  1.
         -5    1    3    3    0  502  0.52216411468E+02  0.41801196933E+02  0.66954438001E+03  0.67289006746E+03  0.41800000000E+01 0.  1.
        -11    1    4    4    0    0 -0.31808865465E+02 -0.60551976167E+02  0.86684899509E+02  0.11042018630E+03  0.00000000000E+00 0.  1.
         11    1    4    4    0    0 -0.38663771451E+02  0.10997526784E+02  0.18570373084E+03  0.19000449591E+03  0.00000000000E+00 0. -1.
</event>
<event>
 8    1  0.3719512E-009  0.1506006E+03  0.7561462E-02  0.1199737E+00
         -1   -1    0    0    0  501 -0.00000000000E+00  0.00000000000E+00  0.14709032120E+02  0.14709032120E+02  0.00000000000E+00 0.  1.
          1   -1    0    0  501    0  0.00000000000E+00 -0.00000000000E+00 -0.15433122245E+04  0.15433122245E+04  0.00000000000E+00 0. -1.
         25    2    1    2    0    0 -0.72003964127E+02 -0.75499002361E+02 -0.82554597791E+03  0.84146206675E+03  0.12509027907E+03 0.  0.
         23    2    1    2    0    0  0.72003964127E+02  0.75499002361E+02 -0.70305721442E+03  0.71655918983E+03  0.91010744262E+02 0.  0.
          5    1    3    3  502    0 -0.84621562772E+02  0.14900718247E+01 -0.42271849485E+03  0.43112808710E+03  0.41800000000E+01 0.  1.
         -5    1    3    3    0  502  0.12617598645E+02 -0.76989074186E+02 -0.40282748306E+03  0.41033397965E+03  0.41800000000E+01 0.  1.
        -11    1    4    4    0    0 -0.21726599163E+02  0.95744937693E+01 -0.13190786658E+03  0.13402761397E+03  0.00000000000E+00 0. -1.
         11    1    4    4    0    0  0.93730563289E+02  0.65924508592E+02 -0.57114934784E+03  0.58253157585E+03  0.00000000000E+00 0.  1.
</event>
<event>
 8    1  0.3719512E-009  0.1199682E+03  0.7561462E-02  0.1243150E+00
          2   -1    0    0  501    0  0.00000000000E+00  0.00000000000E+00  0.69785359785E+03  0.69785359785E+03  0.00000000000E+00 0. -1.
         -2   -1    0    0    0  501 -0.00000000000E+00 -0.00000000000E+00 -0.37771742194E+02  0.37771742194E+02  0.00000000000E+00 0.  1.
         25    2    1    2    0    0  0.20816758877E+02  0.11731490847E+03  0.34566846585E+03  0.38643276509E+03  0.12508984150E+03 0.  0.
         23    2    1    2    0    0 -0.20816758877E+02 -0.11731490847E+03  0.31441338981E+03  0.34919257496E+03  0.94252583616E+02 0.  0.
          5    1    3    3  502    0  0.17573774731E+01  0.24197034394E+02  0.25104452566E+03  0.25224870884E+03  0.41800000000E+01 0. -1.
         -5    1    3    3    0  502  0.19059381404E+02  0.93117874078E+02  0.94623940191E+02  0.13418405624E+03  0.41800000000E+01 0. -1.
        -11    1    4    4    0    0 -0.21277962783E+02 -0.77713344234E+02  0.29359380243E+03  0.30444939875E+03  0.00000000000E+00 0. -1.
         11    1    4    4    0    0  0.46120390505E+00 -0.39601564238E+02  0.20819587376E+02  0.44743176213E+02  0.00000000000E+00 0.  1.
</event>
<event>
 8    1  0.3719512E-009  0.2257659E+03  0.7561462E-02  0.1129656E+00
          1   -1    0    0  501    0  0.00000000000E+00  0.00000000000E+00  0.16192785560E+04  0.16192785560E+04  0.00000000000E+00 0. -1.
         -1   -1    0    0    0  501 -0.00000000000E+00 -0.00000000000E+00 -0.32412129116E+02  0.32412129116E+02  0.00000000000E+00 0.  1.
         25    2    1    2    0    0  0.28207328103E+02 -0.19854641475E+03  0.72912389207E+03  0.76647621144E+03  0.12509116900E+03 0.  0.
         23    2    1    2    0    0 -0.28207328103E+02  0.19854641475E+03  0.85774253479E+03  0.88521447365E+03  0.87556131678E+02 0.  0.
          5    1    3    3  502    0 -0.25671635862E+02 -0.17348839403E+03  0.50644373545E+03  0.53596640317E+03  0.41800000000E+01 0.  1.
         -5    1    3    3    0  502  0.53878963965E+02 -0.25058020717E+02  0.22268015661E+03  0.23050980827E+03  0.41800000000E+01 0.  1.
        -11    1    4    4    0    0 -0.55719399169E+02  0.10296332753E+03  0.52659510699E+03  0.53945204139E+03  0.00000000000E+00 0.  1.
         11    1    4    4    0    0  0.27512071066E+02  0.95583087219E+02  0.33114742780E+03  0.34576243225E+03  0.00000000000E+00 0. -1.
</event>
<event>
 8    1  0.3719512E-009  0.9702932E+02  0.7561462E-02  0.1286670E+00
         -2   -1    0    0    0  501 -0.00000000000E+00  0.00000000000E+00  0.13619053916E+03  0.13619053916E+03  0.00000000000E+00 0.  1.
          2   -1    0    0  501    0  0.00000000000E+00 -0.00000000000E+00 -0.11984375329E+03  0.11984375329E+03  0.00000000000E+00 0. -1.
         25    2    1    2    0    0 -0.39227809610E+02  0.32642548863E+02  0.55085715119E+02  0.14590675109E+03  0.12509990791E+03 0.  0.
         23    2    1    2    0    0  0.39227809610E+02 -0.32642548863E+02 -0.38738929246E+02  0.11012754136E+03  0.89571277119E+02 0.  0.
          5    1    3    3  502    0  0.42054366704E+02  0.33045028978E+02  0.19577158420E+02  0.57107628482E+02  0.41800000000E+01 0. -1.
         -5    1    3    3    0  502 -0.81282176315E+02 -0.40248011469E+00  0.35508556700E+02  0.88799122606E+02  0.41800000000E+01 0. -1.
        -11    1    4    4    0    0  0.22346894200E+02 -0.84815132926E-01  0.26879749831E+02  0.34955855375E+02  0.00000000000E+00 0.  1.
         11    1    4    4    0    0  0.16880915410E+02 -0.32557733730E+02 -0.65618679077E+02  0.75171685990E+02  0.00000000000E+00 0. -1.
</event>
<event>
 8    1  0.3719512E-009  0.8599725E+02  0.7561462E-02  0.1312845E+00
         -1   -1    0    0    0  501 -0.00000000000E+00  0.00000000000E+00  0.22222775760E+02  0.22222775760E+02  0.00000000000E+00 0.  1.
          1   -1    0    0  501    0  0.00000000000E+00 -0.00000000000E+00 -0.70951155960E+03  0.70951155960E+03  0.00000000000E+00 0. -1.
         25    2    1    2    0    0  0.48752424033E+02 -0.19782631655E+02 -0.50984621129E+03  0.52759738066E+03  0.12509070931E+03 0.  0.
         23    2    1    2    0    0 -0.48752424033E+02  0.19782631655E+02 -0.17744257255E+03  0.20413695469E+03  0.86127105802E+02 0.  0.
          5    1    3    3  502    0  0.23185306450E+01 -0.27115538759E+02 -0.45246065326E+03  0.45329763200E+03  0.41800000000E+01 0. -1.
         -5    1    3    3    0  502  0.46433893388E+02  0.73329071038E+01 -0.57385558025E+02  0.74299748664E+02  0.41800000000E+01 0. -1.
        -11    1    4    4    0    0  0.14868560971E+02 -0.17941392654E+02 -0.22243186115E+02  0.32213770414E+02  0.00000000000E+00 0. -1.
         11    1    4    4    0    0 -0.63620985003E+02  0.37724024309E+02 -0.15519938643E+03  0.17192318428E+03  0.00000000000E+00 0.  1.
</event>
<event>
 8    1  0.3719512E-009  0.1110450E+03  0.7561462E-02  0.1258647E+00
         -1   -1    0    0    0  501 -0.00000000000E+00  0.00000000000E+00  0.48443197807E+03  0.48443197807E+03  0.00000000000E+00 0.  1.
          1   -1    0    0  501    0  0.00000000000E+00 -0.00000000000E+00 -0.27671200214E+02  0.27671200214E+02  0.00000000000E+00 0. -1.
         25    2    1    2    0    0  0.94915116546E+00 -0.39975994181E+02  0.27811149334E+03  0.30755873956E+03  0.12508954615E+03 0.  0.
         23    2    1    2    0    0 -0.94915116546E+00  0.39975994181E+02  0.17864928452E+03  0.20454443872E+03  0.91235297749E+02 0.  0.
          5    1    3    3  502    0 -0.54578652561E+02  0.23773106756E+01  0.17151840555E+03  0.18005698200E+03  0.41800000000E+01 0.  1.
         -5    1    3    3    0  502  0.55527803727E+02 -0.42353304856E+02  0.10659308778E+03  0.12750175756E+03  0.41800000000E+01 0.  1.
        -11    1    4    4    0    0 -0.43226126814E+02  0.33238411729E+02  0.12117431681E+03  0.13287778260E+03  0.00000000000E+00 0. -1.
         11    1    4    4    0    0  0.42276975649E+02  0.67375824512E+01  0.57474967709E+02  0.71666656128E+02  0.00000000000E+00 0.  1.
</event>
<event>
 8    1  0.3719512E-009  0.1083763E+03  0.7561462E-02  0.1263607E+00
          2   -1    0    0  501    0  0.00000000000E+00  0.00000000000E+00  0.25668291879E+03  0.25668291879E+03  0.00000000000E+00 0. -1.
         -2   -1    0    0    0  501 -0.00000000000E+00 -0.00000000000E+00 -0.61109017382E+02  0.61109017382E+02  0.00000000000E+00 0.  1.
         25    2    1    2    0    0 -0.40073463103E+02  0.29124712273E+02  0.59270212368E+02  0.14701807002E+03  0.12508886252E+03 0.  0.
         23    2    1    2    0    0  0.40073463103E+02 -0.29124712273E+02  0.13630368904E+03  0.17077386615E+03  0.90171427877E+02 0.  0.
          5    1    3    3  502    0 -0.60048542481E+02 -0.29078083275E+02  0.90056756634E+01  0.67453220644E+02  0.41800000000E+01 0. -1.
         -5    1    3    3    0  502  0.19975079378E+02  0.58202795547E+02  0.50264536704E+02  0.79564849373E+02  0.41800000000E+01 0. -1.
        -11    1    4    4    0    0  0.40492692439E+01 -0.47578594024E+02  0.28469215733E+02  0.55593303870E+02  0.00000000000E+00 0.  1.
         11    1    4    4    0    0  0.36024193860E+02  0.18453881751E+02  0.10783447330E+03  0.11518056228E+03  0.00000000000E+00 0. -1.
</event>
<event>
 8    1  0.3719512E-009  0.1277178E+03  0.7561462E-02  0.1230882E+00
          2   -1    0    0  501    0  0.00000000000E+00  0.00000000000E+00  0.76383736270E+03  0.76383736270E+03  0.00000000000E+00 0. -1.
         -2   -1    0    0    0  501 -0.00000000000E+00 -0.00000000000E+00 -0.37072548474E+02  0.37072548474E+02  0.00000000000E+00 0.  1.
         25    2    1    2    0    0 -0.86723244117E+02 -0.44446693162E+02  0.58749086023E+03  0.60851239172E+03  0.12508153508E+03 0.  0.
         23    2    1    2    0    0  0.86723244117E+02  0.44446693162E+02  0.13927395399E+03  0.19239751945E+03  0.90128472899E+02 0.  0.
          5    1    3    3  502    0  0.22264640027E+02  0.31115614750E+01  0.26318922523E+02  0.34864797333E+02  0.41800000000E+01 0. -1.
         -5    1    3    3    0  502 -0.10898788414E+03 -0.47558254637E+02  0.56117193771E+03  0.57364759439E+03  0.41800000000E+01 0. -1.
        -11    1    4    4    0    0  0.74312627015E+02  0.58688721736E+02  0.14453122158E+03  0.17278890764E+03  0.00000000000E+00 0. -1.
         11    1    4    4    0    0  0.12410617102E+02 -0.14242028574E+02 -0.52572675831E+01  0.19608611812E+02  0.00000000000E+00 0.  1.
</event>
<event>
 8    1  0.3719512E-009  0.1305321E+03  0.7561462E-02  0.1226668E+00
          2   -1    0    0  501    0  0.00000000000E+00  0.00000000000E+00  0.40472074336E+03  0.40472074336E+03  0.00000000000E+00 0. -1.
         -2   -1    0    0    0  501 -0.00000000000E+00 -0.00000000000E+00 -0.53436217252E+02  0.53436217252E+02  0.00000000000E+00 0.  1.
         25    2    1    2    0    0  0.88540171137E+02 -0.43079339873E+02  0.19509214058E+03  0.25180545774E+03  0.12509937569E+03 0.  0.
         23    2    1    2    0    0 -0.88540171137E+02  0.43079339873E+02  0.15619238553E+03  0.20635150288E+03  0.92139513863E+02 0.  0.
          5    1    3    3  502    0 -0.92666816196E+01 -0.53513190240E+02  0.38009656344E+02  0.66420925116E+02  0.41800000000E+01 0.  1.
         -5    1    3    3    0  502  0.97806852757E+02  0.10433850367E+02  0.15708248424E+03  0.18538453262E+03  0.41800000000E+01 0.  1.
        -11    1    4    4    0    0 -0.62630185188E+02  0.51302440516E+02  0.46547416852E+02  0.93387057535E+02  0.00000000000E+00 0.  1.
         11    1    4    4    0    0 -0.25909985949E+02 -0.82231006426E+01  0.10964496867E+03  0.11296444534E+03  0.00000000000E+00 0. -1.
</event>
<event>
 8    1  0.3719512E-009  0.8368080E+02  0.7561462E-02  0.1318919E+00
         -2   -1    0    0    0  501 -0.00000000000E+00  0.00000000000E+00  0.54577056068E+02  0.54577056068E+02  0.00000000000E+00 0.  1.
          2   -1    0    0  501    0  0.00000000000E+00 -0.00000000000E+00 -0.29783677390E+03  0.29783677390E+03  0.00000000000E+00 0. -1.
         25    2    1    2    0    0 -0.26731941677E+02 -0.63101774816E+00 -0.47532088879E+02  0.13646361245E+03  0.12509205874E+03 0.  0.
         23    2    1    2    0    0  0.26731941677E+02  0.63101774816E+00 -0.19572762896E+03  0.21595021752E+03  0.87236442057E+02 0.  0.
          5    1    3    3  502    0 -0.50223988278E+02  0.16969685321E+02  0.24513013853E+02  0.58555780813E+02  0.41800000000E+01 0.  1.
         -5    1    3    3    0  502  0.23492046601E+02 -0.17600703069E+02 -0.72045102733E+02  0.77907831633E+02  0.41800000000E+01 0.  1.
        -11    1    4    4    0    0  0.14105600794E+02 -0.39774216768E+02 -0.57095676064E+02  0.70999102237E+02  0.00000000000E+00 0.  1.
         11    1    4    4    0    0  0.12626340883E+02  0.40405234516E+02 -0.13863195289E+03  0.14495111529E+03  0.00000000000E+00 0. -1.
</event>
<event>
 8    1  0.3719512E-009  0.9962169E+02  0.7561462E-02  0.1281093E+00
          2   -1    0    0  501    0  0.00000000000E+00  0.00000000000E+00  0.18135063122E+03  0.18135063122E+03  0.00000000000E+00 0. -1.
         -2   -1    0    0    0  501 -0.00000000000E+00 -0.00000000000E+00 -0.10646436416E+03  0.10646436416E+03  0.00000000000E+00 0.  1.
         25    2    1    2    0    0 -0.47419673202E+02 -0.38727844527E+02 -0.20103311882E+02  0.14071172510E+03  0.12508866889E+03 0.  0.
         23    2    1    2    0    0  0.47419673202E+02  0.38727844527E+02  0.94989578941E+02  0.14710327028E+03  0.94169425360E+02 0.  0.
          5    1    3    3  502    0  0.13664805944E+02  0.12972312461E+02 -0.51228876517E+02  0.54743748513E+02  0.41800000000E+01 0.  1.
         -5    1    3    3    0  502 -0.61084479146E+02 -0.51700156988E+02  0.31125564634E+02  0.85967976590E+02  0.41800000000E+01 0.  1.
        -11    1    4    4    0    0  0.60640220767E+02  0.18898180417E+01  0.22471455452E+02  0.64697558664E+02  0.00000000000E+00 0.  1.
         11    1    4    4    0    0 -0.13220547565E+02  0.36838026485E+02  0.72518123490E+02  0.82405711621E+02  0.00000000000E+00 0. -1.
</event>
<event>
 8    1  0.3719512E-009  0.9472355E+02  0.7561462E-02  0.1291800E+00
         -2   -1    0    0    0  501 -0.00000000000E+00  0.00000000000E+00  0.10561131329E+03  0.10561131329E+03  0.00000000000E+00 0.  1.
          2   -1    0    0  501    0  0.00000000000E+00 -0.00000000000E+00 -0.12212552702E+03  0.12212552702E+03  0.00000000000E+00 0. -1.
         25    2    1    2    0    0  0.30190468854E+02 -0.14470348662E+02 -0.85533425948E+00  0.12949515656E+03  0.12508960219E+03 0.  0.
         23    2    1    2    0    0 -0.30190468854E+02  0.14470348662E+02 -0.15658879467E+02  0.98241683755E+02  0.91024021669E+02 0.  0.
          5    1    3    3  502    0 -0.43667091445E+02  0.10732725332E+02  0.18788393472E+02  0.48913008470E+02  0.41800000000E+01 0.  1.
         -5    1    3    3    0  502  0.73857560299E+02 -0.25203073993E+02 -0.19643727731E+02  0.80582148092E+02  0.41800000000E+01 0.  1.
        -11    1    4    4    0    0  0.11699145297E+01 -0.19711998553E+02  0.28183837152E+02  0.34413082739E+02  0.00000000000E+00 0.  1.
         11    1    4    4    0    0 -0.31360383384E+02  0.34182347215E+02 -0.43842716619E+02  0.63828601016E+02  0.00000000000E+00 0. -1.
</event>
<event>
 8    1  0.3719512E-009  0.1176308E+03  0.7561462E-02  0.1247057E+00
         -2   -1    0    0    0  501 -0.00000000000E+00  0.00000000000E+00  0.16262324381E+02  0.16262324381E+02  0.00000000000E+00 0.  1.
          2   -1    0    0  501    0  0.00000000000E+00 -0.00000000000E+00 -0.11125449072E+04  0.11125449072E+04  0.00000000000E+00 0. -1.
         25    2    1    2    0    0 -0.75171100398E+02  0.65651007157E+01 -0.49662256740E+03  0.51766482365E+03  0.12509636411E+03 0.  0.
         23    2    1    2    0    0  0.75171100398E+02 -0.65651007157E+01 -0.59966001539E+03  0.61114240790E+03  0.90604159908E+02 0.  0.
          5    1    3    3  502    0 -0.14872041431E+02 -0.40026712958E+02 -0.34759480025E+03  0.35023268398E+03  0.41800000000E+01 0.  1.
         -5    1    3    3    0  502 -0.60299058967E+02  0.46591813674E+02 -0.14902776714E+03  0.16743213967E+03  0.41800000000E+01 0.  1.
        -11    1    4    4    0    0  0.17080712425E+02  0.38761953617E+02 -0.16918230828E+03  0.17440439564E+03  0.00000000000E+00 0.  1.
         11    1    4    4    0    0  0.58090387973E+02 -0.45327054333E+02 -0.43047770711E+03  0.43673801226E+03  0.00000000000E+00 0. -1.
</event>
<event>
 8    1  0.3719512E-009  0.2110102E+03  0.7561462E-02  0.1140769E+00
         -1   -1    0    0    0  501 -0.00000000000E+00  0.00000000000E+00  0.11898330514E+03  0.11898330514E+03  0.00000000000E+00 0.  1.
          1   -1    0    0  501    0  0.00000000000E+00 -0.00000000000E+00 -0.39674532401E+03  0.39674532401E+03  0.00000000000E+00 0. -1.
         25    2    1    2    0    0  0.48350217512E+02  0.17849387446E+03 -0.18288793927E+03  0.28860587172E+03  0.12509014394E+03 0.  0.
         23    2    1    2    0    0 -0.48350217512E+02 -0.17849387446E+03 -0.94874079611E+02  0.22712275743E+03  0.91574282448E+02 0.  0.
          5    1    3    3  502    0  0.35446174451E+02 -0.28181937791E+01 -0.87691383670E+01  0.36861140610E+02  0.41800000000E+01 0.  1.
         -5    1    3    3    0  502  0.12904043061E+02  0.18131206824E+03 -0.17411880090E+03  0.25174473111E+03  0.41800000000E+01 0.  1.
        -11    1    4    4    0    0 -0.68407451669E+02 -0.86691887207E+02 -0.66747683867E+02  0.12903610368E+03  0.00000000000E+00 0.  1.
         11    1    4    4    0    0  0.20057234156E+02 -0.91801987256E+02 -0.28126395744E+02  0.98086653749E+02  0.00000000000E+00 0. -1.
</event>
<event>
 8    1  0.3719512E-009  0.1284983E+03  0.7561462E-02  0.1229701E+00
         -3   -1    0    0    0  501 -0.00000000000E+00  0.00000000000E+00  0.14979501043E+03  0.14979501043E+03  0.00000000000E+00 0.  1.
          3   -1    0    0  501    0  0.00000000000E+00 -0.00000000000E+00 -0.14924810156E+03  0.14924810156E+03  0.00000000000E+00 0. -1.
         25    2    1    2    0    0  0.84731596948E+02 -0.52843424367E+02 -0.33738487264E+02  0.16357984857E+03  0.12509280680E+03 0.  0.
         23    2    1    2    0    0 -0.84731596948E+02  0.52843424367E+02  0.34285396131E+02  0.13546326342E+03  0.84870114460E+02 0.  0.
          5    1    3    3  502    0  0.35033121738E+02 -0.88791732164E+02 -0.48925119271E+01  0.95669746484E+02  0.41800000000E+01 0.  1.
         -5    1    3    3    0  502  0.49698475211E+02  0.35948307798E+02 -0.28845975337E+02  0.67910102083E+02  0.41800000000E+01 0.  1.
        -11    1    4    4    0    0 -0.17032388190E+02  0.84209615347E+01 -0.27629371170E+02  0.33532029343E+02  0.00000000000E+00 0. -1.
         11    1    4    4    0    0 -0.67699208758E+02  0.44422462832E+02  0.61914767301E+02  0.10193123408E+03  0.00000000000E+00 0.  1.
</event>
<event>
 8    1  0.3719512E-009  0.1265662E+03  0.7561462E-02  0.1232642E+00
         -2   -1    0    0    0  501 -0.00000000000E+00  0.00000000000E+00  0.12032310352E+03  0.12032310352E+03  0.00000000000E+00 0. -1.
          2   -1    0    0  501    0  0.00000000000E+00 -0.00000000000E+00 -0.20915697454E+03  0.20915697454E+03  0.00000000000E+00 0.  1.
         25    2    1    2    0    0 -0.35486346928E+02  0.92879783699E+02  0.17511869068E+02  0.16074755801E+03  0.12508867578E+03 0.  0.
         23    2    1    2    0    0  0.35486346928E+02 -0.92879783699E+02 -0.10634574009E+03  0.16873252005E+03  0.85295438621E+02 0.  0.
          5    1    3    3  502    0 -0.14692423677E+02  0.11904548702E+03  0.31795522315E+02  0.12416168061E+03  0.41800000000E+01 0.  1.
         -5    1    3    3    0  502 -0.20793923251E+02 -0.26165703323E+02 -0.14283653247E+02  0.36585877393E+02  0.41800000000E+01 0.  1.
        -11    1    4    4    0    0  0.13249519036E+02 -0.35062110109E+02 -0.99600737350E+02  0.10641996148E+03  0.00000000000E+00 0.  1.
         11    1    4    4    0    0  0.22236827891E+02 -0.57817673589E+02 -0.67450027362E+01  0.62312558573E+02  0.00000000000E+00 0. -1.
</event>
<event>
 8    1  0.3719512E-009  0.1996623E+03  0.7561462E-02  0.1150024E+00
          2   -1    0    0  501    0  0.00000000000E+00  0.00000000000E+00  0.33022161021E+03  0.33022161021E+03  0.00000000000E+00 0. -1.
         -2   -1    0    0    0  501 -0.00000000000E+00 -0.00000000000E+00 -0.23648783203E+03  0.23648783203E+03  0.00000000000E+00 0.  1.
         25    2    1    2    0    0 -0.18935051350E+03  0.62806322063E+02 -0.11684806064E+03  0.26286540263E+03  0.12508596871E+03 0.  0.
         23    2    1    2    0    0  0.18935051350E+03 -0.62806322063E+02  0.21058183882E+03  0.30384403961E+03  0.90433613836E+02 0.  0.
          5    1    3    3  502    0 -0.15292265820E+03  0.51821548458E+02 -0.14363493039E+03  0.21614642700E+03  0.41800000000E+01 0. -1.
         -5    1    3    3    0  502 -0.36427855296E+02  0.10984773604E+02  0.26786869748E+02  0.46718975625E+02  0.41800000000E+01 0. -1.
        -11    1    4    4    0    0  0.80489850030E+02 -0.24784012196E+02  0.29638642711E+02  0.89282206291E+02  0.00000000000E+00 0. -1.
         11    1    4    4    0    0  0.10886066347E+03 -0.38022309866E+02  0.18094319611E+03  0.21456183332E+03  0.00000000000E+00 0.  1.
</event>
<event>
 8    1  0.3719512E-009  0.2038426E+03  0.7561462E-02  0.1146537E+00
          1   -1    0    0  501    0  0.00000000000E+00  0.00000000000E+00  0.67981378053E+03  0.67981378053E+03  0.00000000000E+00 0. -1.
         -1   -1    0    0    0  501 -0.00000000000E+00 -0.00000000000E+00 -0.94202333904E+02  0.94202333904E+02  0.00000000000E+00 0.  1.
         25    2    1    2    0    0 -0.15945981728E+03  0.96613637043E+02  0.50181727299E+03  0.54975372588E+03  0.12508779100E+03 0.  0.
         23    2    1    2    0    0  0.15945981728E+03 -0.96613637043E+02  0.83794173641E+02  0.22426238856E+03  0.92252518655E+02 0.  0.
          5    1    3    3  502    0 -0.17152738157E+03  0.61709030541E+02  0.45358307387E+03  0.48886063901E+03  0.41800000000E+01 0.  1.
         -5    1    3    3    0  502  0.12067564288E+02  0.34904606501E+02  0.48234199120E+02  0.60893086862E+02  0.41800000000E+01 0.  1.
        -11    1    4    4    0    0  0.29114215238E+02 -0.68310048195E+01  0.56114267554E+02  0.63585463582E+02  0.00000000000E+00 0. -1.
         11    1    4    4    0    0  0.13034560204E+03 -0.89782632223E+02  0.27679906087E+02  0.16067692498E+03  0.00000000000E+00 0.  1.
</event>
<event>
 8    1  0.3719512E-009  0.7224420E+02  0.7561462E-02  0.1352624E+00
         -2   -1    0    0    0  501 -0.00000000000E+00  0.00000000000E+00  0.12309077998E+03  0.12309077998E+03  0.00000000000E+00 0.  1.
          2   -1    0    0  501    0  0.00000000000E+00 -0.00000000000E+00 -0.10786851479E+03  0.10786851479E+03  0.00000000000E+00 0. -1.
         25    2    1    2    0    0  0.30824555960E+02 -0.21331578660E+02 -0.47588045856E+01  0.13067159401E+03  0.12508888745E+03 0.  0.
         23    2    1    2    0    0 -0.30824555960E+02  0.21331578660E+02  0.19981069773E+02  0.10028770076E+03  0.90847070819E+02 0.  0.
          5    1    3    3  502    0  0.46112832045E+02 -0.36792078517E+02 -0.51839884264E+02  0.78644111803E+02  0.41800000000E+01 0.  1.
         -5    1    3    3    0  502 -0.15288276085E+02  0.15460499857E+02  0.47081079678E+02  0.52027482210E+02  0.41800000000E+01 0.  1.
        -11    1    4    4    0    0  0.13819007594E+02  0.21280132481E+00  0.43459524057E+02  0.45604171811E+02  0.00000000000E+00 0.  1.
         11    1    4    4    0    0 -0.44643563554E+02  0.21118777335E+02 -0.23478454284E+02  0.54683528951E+02  0.00000000000E+00 0. -1.
</event>
<event>
 8    1  0.3719512E-009  0.1031240E+03  0.7561462E-02  0.1273861E+00
         -1   -1    0    0    0  501 -0.00000000000E+00  0.00000000000E+00  0.14896853715E+03  0.14896853715E+03  0.00000000000E+00 0.  1.
          1   -1    0    0  501    0  0.00000000000E+00 -0.00000000000E+00 -0.87576636143E+02  0.87576636143E+02  0.00000000000E+00 0. -1.
         25    2    1    2    0    0 -0.23494816663E+02 -0.18301401781E+02  0.61675165892E+02  0.14260662894E+03  0.12508347937E+03 0.  0.
         23    2    1    2    0    0  0.23494816663E+02  0.18301401781E+02 -0.28326488962E+00  0.93938544351E+02  0.89092211548E+02 0.  0.
          5    1    3    3  502    0  0.18910944600E+02  0.44949082273E+02  0.40306727627E+02  0.63404641114E+02  0.41800000000E+01 0. -1.
         -5    1    3    3    0  502 -0.42405761263E+02 -0.63250484054E+02  0.21368438266E+02  0.79201987824E+02  0.41800000000E+01 0. -1.
        -11    1    4    4    0    0 -0.44843624906E+01 -0.27230629510E+02  0.22729657894E+02  0.35752678759E+02  0.00000000000E+00 0.  1.
         11    1    4    4    0    0  0.27979179154E+02  0.45532031291E+02 -0.23012922784E+02  0.58185865592E+02  0.00000000000E+00 0. -1.
</event>
<event>
 8    1  0.3719512E-009  0.1079858E+03  0.7561462E-02  0.1264346E+00
         -3   -1    0    0    0  501 -0.00000000000E+00  0.00000000000E+00  0.68031056653E+03  0.68031056653E+03  0.00000000000E+00 0.  1.
          3   -1    0    0  501    0  0.00000000000E+00 -0.00000000000E+00 -0.40513802695E+02  0.40513802695E+02  0.00000000000E+00 0. -1.
         25    2    1    2    0    0 -0.59176036685E+01  0.64053893952E+02  0.57314875148E+03  0.59015681419E+03  0.12509058576E+03 0.  0.
         23    2    1    2    0    0  0.59176036685E+01 -0.64053893952E+02  0.66648012352E+02  0.13066755504E+03  0.92163620941E+02 0.  0.
          5    1    3    3  502    0  0.20307249553E+02 -0.33561642535E+02  0.15390776600E+03  0.15888310505E+03  0.41800000000E+01 0. -1.
         -5    1    3    3    0  502 -0.26224853221E+02  0.97615536487E+02  0.41924098548E+03  0.43127370914E+03  0.41800000000E+01 0. -1.
        -11    1    4    4    0    0  0.21107651323E+02 -0.51482853329E+02  0.86394825506E+02  0.10276226450E+03  0.00000000000E+00 0.  1.
         11    1    4    4    0    0 -0.15190047654E+02 -0.12571040623E+02 -0.19746813154E+02  0.27905290534E+02  0.00000000000E+00 0. -1.
</event>
<event>
 8    1  0.3719512E-009  0.1092434E+03  0.7561462E-02  0.1261977E+00
          2   -1    0    0  501    0  0.00000000000E+00  0.00000000000E+00  0.43139253730E+03  0.43139253730E+03  0.00000000000E+00 0. -1.
         -2   -1    0    0    0  501 -0.00000000000E+00 -0.00000000000E+00 -0.54076087860E+02  0.54076087860E+02  0.00000000000E+00 0.  1.
         25    2    1    2    0    0 -0.80882787365E+02  0.33913019323E+02  0.10709633234E+03  0.18657303158E+03  0.12509098106E+03 0.  0.
         23    2    1    2    0    0  0.80882787365E+02 -0.33913019323E+02  0.27022011710E+03  0.29889559358E+03  0.92884584295E+02 0.  0.
          5    1    3    3  502    0 -0.31653955132E+01 -0.23626456010E+02 -0.16719557597E+02  0.29415049866E+02  0.41800000000E+01 0. -1.
         -5    1    3    3    0  502 -0.77717391852E+02  0.57539475334E+02  0.12381588993E+03  0.15715798172E+03  0.41800000000E+01 0. -1.
        -11    1    4    4    0    0  0.99960577391E+01 -0.23898866798E+02  0.80507365363E+01  0.27127317658E+02  0.00000000000E+00 0.  1.
         11    1    4    4    0    0  0.70886729626E+02 -0.10014152525E+02  0.26216938057E+03  0.27176827592E+03  0.00000000000E+00 0. -1.
</event>
<event>
 8    1  0.3719512E-009  0.1179286E+03  0.7561462E-02  0.1246554E+00
          2   -1    0    0  501    0  0.00000000000E+00  0.00000000000E+00  0.17405491444E+03  0.17405491444E+03  0.00000000000E+00 0. -1.
         -2   -1    0    0    0  501 -0.00000000000E+00 -0.00000000000E+00 -0.27264016174E+03  0.27264016174E+03  0.00000000000E+00 0.  1.
         25    2    1    2    0    0 -0.24073403403E+02 -0.63472922774E+02  0.13054414917E+03  0.19312665888E+03  0.12509113003E+03 0.  0.
         23    2    1    2    0    0  0.24073403403E+02  0.63472922774E+02 -0.22912939646E+03  0.25356841730E+03  0.84783968126E+02 0.  0.
          5    1    3    3  502    0 -0.33140259545E+02 -0.91552381221E+02  0.54971863679E+02  0.11189054252E+03  0.41800000000E+01 0.  1.
         -5    1    3    3    0  502  0.90668561418E+01  0.28079458448E+02  0.75572285487E+02  0.81236116357E+02  0.41800000000E+01 0.  1.
        -11    1    4    4    0    0  0.54341422134E+02  0.54657956508E+02 -0.16086367365E+03  0.17837489697E+03  0.00000000000E+00 0.  1.
         11    1    4    4    0    0 -0.30268018731E+02  0.88149662659E+01 -0.68265722806E+02  0.75193520322E+02  0.00000000000E+00 0. -1.
</event>
<event>
 8    1  0.3719512E-009  0.1125572E+03  0.7561462E-02  0.1255906E+00
         -2   -1    0    0    0  501 -0.00000000000E+00  0.00000000000E+00  0.27730695699E+02  0.27730695699E+02  0.00000000000E+00 0. -1.
          2   -1    0    0  501    0  0.00000000000E+00 -0.00000000000E+00 -0.89608922224E+03  0.89608922224E+03  0.00000000000E+00 0.  1.
         25    2    1    2    0    0  0.69113698450E+02  0.71948220287E+02 -0.63253009862E+03  0.65245295213E+03  0.12508908573E+03 0.  0.
         23    2    1    2    0    0 -0.69113698450E+02 -0.71948220287E+02 -0.23582842792E+03  0.27136696581E+03  0.89842823868E+02 0.  0.
          5    1    3    3  502    0  0.35962978806E+02  0.10976545046E+01 -0.36947574737E+02  0.51741051100E+02  0.41800000000E+01 0. -1.
         -5    1    3    3    0  502  0.33150719644E+02  0.70850565782E+02 -0.59558252388E+03  0.60071190103E+03  0.41800000000E+01 0. -1.
        -11    1    4    4    0    0  0.61843999993E+01 -0.14766561983E+02  0.13216758481E+01  0.16063778609E+02  0.00000000000E+00 0. -1.
         11    1    4    4    0    0 -0.75298098449E+02 -0.57181658304E+02 -0.23715010377E+03  0.25530318720E+03  0.00000000000E+00 0.  1.
</event>
<event>
 8    1  0.3719512E-009  0.1053786E+03  0.7561462E-02  0.1269375E+00
         -1   -1    0    0    0  501 -0.00000000000E+00  0.00000000000E+00  0.25733405164E+03  0.25733405164E+03  0.00000000000E+00 0.  1.
          1   -1    0    0  501    0  0.00000000000E+00 -0.00000000000E+00 -0.54479777269E+02  0.54479777269E+02  0.00000000000E+00 0. -1.
         25    2    1    2    0    0 -0.60886980776E+01  0.42744173625E+02  0.87371742135E+02  0.15857297585E+03  0.12508969071E+03 0.  0.
         23    2    1    2    0    0  0.60886980776E+01 -0.42744173625E+02  0.11548253224E+03  0.15324085306E+03  0.91007731388E+02 0.  0.
          5    1    3    3  502    0  0.55282598719E+02 -0.17056206705E+01  0.46469518312E+02  0.72359957125E+02  0.41800000000E+01 0. -1.
         -5    1    3    3    0  502 -0.61371296797E+02  0.44449794296E+02  0.40902223822E+02  0.86213018722E+02  0.41800000000E+01 0.  1.
        -11    1    4    4    0    0  0.15367308750E+02 -0.58843066588E+02  0.34018238781E+02  0.69684296893E+02  0.00000000000E+00 0. -1.
         11    1    4    4    0    0 -0.92786106728E+01  0.16098892963E+02  0.81464293456E+02  0.83556556170E+02  0.00000000000E+00 0.  1.
</event>
<event>
 8    1  0.3719512E-009  0.1974572E+03  0.7561462E-02  0.1151902E+00
          2   -1    0    0  501    0  0.00000000000E+00  0.00000000000E+00  0.28365656214E+03  0.28365656214E+03  0.00000000000E+00 0.  1.
         -2   -1    0    0    0  501 -0.00000000000E+00 -0.00000000000E+00 -0.16028001472E+03  0.16028001472E+03  0.00000000000E+00 0. -1.
         25    2    1    2    0    0  0.16636673351E+03 -0.64168948647E+02  0.17527670614E+02  0.21851934750E+03  0.12509173436E+03 0.  0.
         23    2    1    2    0    0 -0.16636673351E+03  0.64168948647E+02  0.10584887681E+03  0.22541722936E+03  0.88393430646E+02 0.  0.
          5    1    3    3  502    0  0.42903218740E+02  0.30729051572E+02 -0.22750764989E+02  0.57619705799E+02  0.41800000000E+01 0.  1.
         -5    1    3    3    0  502  0.12346351477E+03 -0.94898000219E+02  0.40278435603E+02  0.16089964170E+03  0.41800000000E+01 0.  1.
        -11    1    4    4    0    0 -0.45076853907E+02  0.44470161260E+02  0.13253489110E+00  0.63320893599E+02  0.00000000000E+00 0. -1.
         11    1    4    4    0    0 -0.12128987961E+03  0.19698787387E+02  0.10571634192E+03  0.16209633576E+03  0.00000000000E+00 0.  1.
</event>
<event>
 8    1  0.3719512E-009  0.8550515E+02  0.7561462E-02  0.1314117E+00
          2   -1    0    0  501    0  0.00000000000E+00  0.00000000000E+00  0.44037508770E+03  0.44037508770E+03  0.00000000000E+00 0. -1.
         -2   -1    0    0    0  501 -0.00000000000E+00 -0.00000000000E+00 -0.32499290307E+02  0.32499290307E+02  0.00000000000E+00 0.  1.
         25    2    1    2    0    0  0.41622456934E+02  0.52212004352E+01  0.17756164253E+03  0.22120984794E+03  0.12508385217E+03 0.  0.
         23    2    1    2    0    0 -0.41622456934E+02 -0.52212004352E+01  0.23031415487E+03  0.25166453007E+03  0.92361983019E+02 0.  0.
          5    1    3    3  502    0  0.34482317283E+02 -0.24649742038E+02  0.16880454130E+01  0.42625835887E+02  0.41800000000E+01 0. -1.
         -5    1    3    3    0  502  0.71401396509E+01  0.29870942474E+02  0.17587359712E+03  0.17858401205E+03  0.41800000000E+01 0. -1.
        -11    1    4    4    0    0 -0.23707817878E+01 -0.42928032416E+02  0.13753644198E+03  0.14409965109E+03  0.00000000000E+00 0. -1.
         11    1    4    4    0    0 -0.39251675147E+02  0.37706831981E+02  0.92777712890E+02  0.10756487898E+03  0.00000000000E+00 0.  1.
</event>
<event>
 8    1  0.3719512E-009  0.9303753E+02  0.7561462E-02  0.1295658E+00
          2   -1    0    0  501    0  0.00000000000E+00  0.00000000000E+00  0.24174347601E+03  0.24174347601E+03  0.00000000000E+00 0. -1.
         -2   -1    0    0    0  501 -0.00000000000E+00 -0.00000000000E+00 -0.61619399935E+02  0.61619399935E+02  0.00000000000E+00 0.  1.
         25    2    1    2    0    0  0.53371129244E+01 -0.87325351975E+01  0.17304218066E+03  0.21376462852E+03  0.12508788181E+03 0.  0.
         23    2    1    2    0    0 -0.53371129244E+01  0.87325351975E+01  0.70818954156E+01  0.89598247420E+02  0.88729649795E+02 0.  0.
          5    1    3    3  502    0  0.15562534837E+02  0.45405806506E+02  0.22061774293E+02  0.52991263807E+02  0.41800000000E+01 0.  1.
         -5    1    3    3    0  502 -0.10225421912E+02 -0.54138341703E+02  0.15098040636E+03  0.16077336471E+03  0.41800000000E+01 0.  1.
        -11    1    4    4    0    0 -0.21329887044E+02 -0.32240220991E+02 -0.13619857026E+02  0.40986539696E+02  0.00000000000E+00 0.  1.
         11    1    4    4    0    0  0.15992774119E+02  0.40972756189E+02  0.20701752441E+02  0.48611707724E+02  0.00000000000E+00 0. -1.
</event>
<event>
 8    1  0.3719512E-009  0.9401562E+02  0.7561462E-02  0.1293409E+00
          2   -1    0    0  501    0  0.00000000000E+00  0.00000000000E+00  0.70744870112E+03  0.70744870112E+03  0.00000000000E+00 0. -1.
         -2   -1    0    0    0  501 -0.00000000000E+00 -0.00000000000E+00 -0.22092532779E+02  0.22092532779E+02  0.00000000000E+00 0.  1.
         25    2    1    2    0    0 -0.26629340957E+02  0.27490966882E+02  0.52007093126E+03  0.53626918816E+03  0.12508394606E+03 0.  0.
         23    2    1    2    0    0  0.26629340957E+02 -0.27490966882E+02  0.16528523708E+03  0.19327204574E+03  0.92574289138E+02 0.  0.
          5    1    3    3  502    0 -0.89211954494E+01 -0.39070345347E+02  0.68622220261E+02  0.79577390805E+02  0.41800000000E+01 0. -1.
         -5    1    3    3    0  502 -0.17708145508E+02  0.66561312229E+02  0.45144871100E+03  0.45669179735E+03  0.41800000000E+01 0. -1.
        -11    1    4    4    0    0  0.35485855436E+02  0.12615718963E+02  0.20719531213E+02  0.42984895890E+02  0.00000000000E+00 0.  1.
         11    1    4    4    0    0 -0.88565144789E+01 -0.40106685845E+02  0.14456570587E+03  0.15028714985E+03  0.00000000000E+00 0. -1.
</event>
<event>
 8    1  0.3719512E-009  0.1019709E+03  0.7561462E-02  0.1276205E+00
         -2   -1    0    0    0  501 -0.00000000000E+00  0.00000000000E+00  0.31160384518E+02  0.31160384518E+02  0.00000000000E+00 0.  1.
          2   -1    0    0  501    0  0.00000000000E+00 -0.00000000000E+00 -0.54358824281E+03  0.54358824281E+03  0.00000000000E+00 0. -1.
         25    2    1    2    0    0 -0.54669970751E+02 -0.41979619863E+01 -0.38672041211E+03  0.41013028626E+03  0.12509095080E+03 0.  0.
         23    2    1    2    0    0  0.54669970751E+02  0.41979619863E+01 -0.12570744618E+03  0.16461834107E+03  0.91051675472E+02 0.  0.
          5    1    3    3  502    0 -0.40224328514E+02  0.56140140986E+02 -0.14689185082E+03  0.16237118054E+03  0.41800000000E+01 0.  1.
         -5    1    3    3    0  502 -0.14445642236E+02 -0.60338102972E+02 -0.23982856130E+03  0.24775910571E+03  0.41800000000E+01 0.  1.
        -11    1    4    4    0    0  0.22876477662E+02 -0.21723247234E+02 -0.11892761552E+03  0.12304068609E+03  0.00000000000E+00 0. -1.
         11    1    4    4    0    0  0.31793493088E+02  0.25921209221E+02 -0.67798306624E+01  0.41577654985E+02  0.00000000000E+00 0.  1.
</event>
<event>
 8    1  0.3719512E-009  0.1351596E+03  0.7561462E-02  0.1219995E+00
          3   -1    0    0  501    0  0.00000000000E+00  0.00000000000E+00  0.17763641800E+03  0.17763641800E+03  0.00000000000E+00 0. -1.
         -3   -1    0    0    0  501 -0.00000000000E+00 -0.00000000000E+00 -0.25735817304E+03  0.25735817304E+03  0.00000000000E+00 0.  1.
         25    2    1    2    0    0  0.75417710957E+01 -0.12026267665E+03 -0.18256180372E+03  0.25198976529E+03  0.12510011962E+03 0.  0.
         23    2    1    2    0    0 -0.75417710957E+01  0.12026267665E+03  0.10284004869E+03  0.18300482575E+03  0.91622600523E+02 0.  0.
          5    1    3    3  502    0  0.63491668973E+01 -0.11984301706E+03 -0.69303745937E+02  0.13864754689E+03  0.41800000000E+01 0. -1.
         -5    1    3    3    0  502  0.11926041984E+01 -0.41965958971E+00 -0.11325805779E+03  0.11334221840E+03  0.41800000000E+01 0. -1.
        -11    1    4    4    0    0  0.35872995677E+02  0.34640010661E+02  0.13025287490E+02  0.51540860214E+02  0.00000000000E+00 0.  1.
         11    1    4    4    0    0 -0.43414766772E+02  0.85622665986E+02  0.89814761196E+02  0.13146396553E+03  0.00000000000E+00 0. -1.
</event>
<event>
 8    1  0.3719512E-009  0.1166896E+03  0.7561462E-02  0.1248660E+00
         -3   -1    0    0    0  501 -0.00000000000E+00  0.00000000000E+00  0.46545878491E+02  0.46545878491E+02  0.00000000000E+00 0.  1.
          3   -1    0    0  501    0  0.00000000000E+00 -0.00000000000E+00 -0.32504826908E+03  0.32504826908E+03  0.00000000000E+00 0. -1.
         25    2    1    2    0    0  0.52878183268E+02 -0.23239904530E+02 -0.15733800437E+03  0.20914174391E+03  0.12509526769E+03 0.  0.
         23    2    1    2    0    0 -0.52878183268E+02  0.23239904530E+02 -0.12116438621E+03  0.16245240366E+03  0.91508357756E+02 0.  0.
          5    1    3    3  502    0  0.64558508269E+02 -0.58913218604E+02 -0.14509861814E+03  0.16943922127E+03  0.41800000000E+01 0.  1.
         -5    1    3    3    0  502 -0.11680325002E+02  0.35673314074E+02 -0.12239386229E+02  0.39702522646E+02  0.41800000000E+01 0.  1.
        -11    1    4    4    0    0 -0.37080835141E+02  0.58620800147E+02 -0.81072668882E+02  0.10669659875E+03  0.00000000000E+00 0.  1.
         11    1    4    4    0    0 -0.15797348127E+02 -0.35380895617E+02 -0.40091717332E+02  0.55755804910E+02  0.00000000000E+00 0. -1.
</event>
<event>
 8    1  0.3719512E-009  0.1356325E+03  0.7561462E-02  0.1219330E+00
          2   -1    0    0  501    0  0.00000000000E+00  0.00000000000E+00  0.60231606712E+03  0.60231606712E+03  0.00000000000E+00 0. -1.
         -2   -1    0    0    0  501 -0.00000000000E+00 -0.00000000000E+00 -0.75743389112E+02  0.75743389112E+02  0.00000000000E+00 0.  1.
         25    2    1    2    0    0  0.71613572995E+02 -0.97567142785E+02  0.54056002321E+02  0.18225524288E+03  0.12508825277E+03 0.  0.
         23    2    1    2    0    0 -0.71613572995E+02  0.97567142785E+02  0.47251667569E+03  0.49580421336E+03  0.88892958056E+02 0.  0.
          5    1    3    3  502    0  0.35669183383E+02 -0.19226486921E+02 -0.38260569148E+02  0.55886420480E+02  0.41800000000E+01 0.  1.
         -5    1    3    3    0  502  0.35944389613E+02 -0.78340655864E+02  0.92316571469E+02  0.12636882240E+03  0.41800000000E+01 0.  1.
        -11    1    4    4    0    0 -0.18840532779E+02 -0.12196433981E+02  0.34397806494E+02  0.41072226247E+02  0.00000000000E+00 0.  1.
         11    1    4    4    0    0 -0.52773040216E+02  0.10976357677E+03  0.43811886919E+03  0.45473198711E+03  0.00000000000E+00 0. -1.
</event>
<event>
 8    1  0.3719512E-009  0.1061953E+03  0.7561462E-02  0.1267782E+00
          3   -1    0    0  501    0  0.00000000000E+00  0.00000000000E+00  0.14511323583E+03  0.14511323583E+03  0.00000000000E+00 0. -1.
         -3   -1    0    0    0  501 -0.00000000000E+00 -0.00000000000E+00 -0.16202163719E+03  0.16202163719E+03  0.00000000000E+00 0.  1.
         25    2    1    2    0    0  0.60643891698E+02  0.41632741700E+02 -0.87849177900E+02  0.16963845738E+03  0.12509500942E+03 0.  0.
         23    2    1    2    0    0 -0.60643891698E+02 -0.41632741700E+02  0.70940776538E+02  0.13749641564E+03  0.91987519573E+02 0.  0.
          5    1    3    3  502    0  0.91945768542E+02  0.11840596855E+02 -0.30445253349E+02  0.97665807416E+02  0.41800000000E+01 0.  1.
         -5    1    3    3    0  502 -0.31301876844E+02  0.29792144845E+02 -0.57403924551E+02  0.71972649960E+02  0.41800000000E+01 0.  1.
        -11    1    4    4    0    0 -0.49830820649E+02 -0.23568640402E+02  0.92298716610E+02  0.10750648625E+03  0.00000000000E+00 0. -1.
         11    1    4    4    0    0 -0.10813071048E+02 -0.18064101297E+02 -0.21357940072E+02  0.29989929398E+02  0.00000000000E+00 0.  1.
</event>
<event>
 8    1  0.3719512E-009  0.1189926E+03  0.7561462E-02  0.1244768E+00
         -2   -1    0    0    0  501 -0.00000000000E+00  0.00000000000E+00  0.30833770389E+03  0.30833770389E+03  0.00000000000E+00 0.  1.
          2   -1    0    0  501    0  0.00000000000E+00 -0.00000000000E+00 -0.62504897066E+02  0.62504897066E+02  0.00000000000E+00 0. -1.
         25    2    1    2    0    0 -0.77412586551E+02 -0.38323014652E+02  0.15136985862E+03  0.21452467119E+03  0.12508652381E+03 0.  0.
         23    2    1    2    0    0  0.77412586551E+02  0.38323014652E+02  0.94462948203E+02  0.15631792977E+03  0.89725607137E+02 0.  0.
          5    1    3    3  502    0 -0.48175165990E+01  0.37568357051E+02  0.76546928599E+02  0.85507278027E+02  0.41800000000E+01 0. -1.
         -5    1    3    3    0  502 -0.72595069952E+02 -0.75891371703E+02  0.74822930023E+02  0.12901739316E+03  0.41800000000E+01 0. -1.
        -11    1    4    4    0    0  0.37590795181E+02  0.40033543019E+02  0.10191495661E+03  0.11576878176E+03  0.00000000000E+00 0.  1.
         11    1    4    4    0    0  0.39821791370E+02 -0.17105283667E+01 -0.74520084072E+01  0.40549148013E+02  0.00000000000E+00 0. -1.
</event>
<event>
 8    1  0.3719512E-009  0.2595793E+03  0.7561462E-02  0.1107396E+00
         -2   -1    0    0    0  501 -0.00000000000E+00  0.00000000000E+00  0.92667935499E+02  0.92667935499E+02  0.00000000000E+00 0.  1.
          2   -1    0    0  501    0  0.00000000000E+00 -0.00000000000E+00 -0.76378821318E+03  0.76378821318E+03  0.00000000000E+00 0. -1.
         25    2    1    2    0    0 -0.98671977580E+02  0.21202114922E+03 -0.43306253107E+03  0.50781778578E+03  0.12508645354E+03 0.  0.
         23    2    1    2    0    0  0.98671977580E+02 -0.21202114922E+03 -0.23805774660E+03  0.34863836289E+03  0.10093607129E+03 0.  0.
          5    1    3    3  502    0 -0.12820355957E+03  0.17650400864E+03 -0.34305664621E+03  0.40656506572E+03  0.41800000000E+01 0. -1.
         -5    1    3    3    0  502  0.29531581992E+02  0.35517140582E+02 -0.90005884866E+02  0.10125272006E+03  0.41800000000E+01 0. -1.
        -11    1    4    4    0    0  0.65659036371E+02 -0.34785722635E+02 -0.64626105314E+02  0.98476845219E+02  0.00000000000E+00 0.  1.
         11    1    4    4    0    0  0.33012941209E+02 -0.17723542659E+03 -0.17343164129E+03  0.25016151768E+03  0.00000000000E+00 0. -1.
</event>
<event>
 8    1  0.3719512E-009  0.8155472E+02  0.7561462E-02  0.1324696E+00
          1   -1    0    0  501    0  0.00000000000E+00  0.00000000000E+00  0.25742343453E+02  0.25742343453E+02  0.00000000000E+00 0. -1.
         -1   -1    0    0    0  501 -0.00000000000E+00 -0.00000000000E+00 -0.51108042261E+03  0.51108042261E+03  0.00000000000E+00 0.  1.
         25    2    1    2    0    0 -0.61474587242E+01 -0.16819091964E+02 -0.35643958824E+03  0.37817646721E+03  0.12509031612E+03 0.  0.
         23    2    1    2    0    0  0.61474587242E+01  0.16819091964E+02 -0.12889849092E+03  0.15864629885E+03  0.90736729466E+02 0.  0.
          5    1    3    3  502    0  0.51542156850E+02  0.12300688739E+01 -0.80672644408E+02  0.95831388167E+02  0.41800000000E+01 0. -1.
         -5    1    3    3    0  502 -0.57689615574E+02 -0.18049160838E+02 -0.27576694383E+03  0.28234507905E+03  0.41800000000E+01 0. -1.
        -11    1    4    4    0    0 -0.19649124352E+02  0.15384616380E+02  0.21756153088E+01  0.25050106007E+02  0.00000000000E+00 0. -1.
         11    1    4    4    0    0  0.25796583077E+02  0.14344755837E+01 -0.13107410623E+03  0.13359619284E+03  0.00000000000E+00 0.  1.
</event>
<event>
 8    1  0.3719512E-009  0.1044978E+03  0.7561462E-02  0.1271112E+00
         -2   -1    0    0    0  501 -0.00000000000E+00  0.00000000000E+00  0.58148773406E+02  0.58148773406E+02  0.00000000000E+00 0.  1.
          2   -1    0    0  501    0  0.00000000000E+00 -0.00000000000E+00 -0.23327668840E+03  0.23327668840E+03  0.00000000000E+00 0. -1.
         25    2    1    2    0    0  0.11955495255E+02  0.38591107988E+02 -0.10457451834E+03  0.16797445615E+03  0.12508949017E+03 0.  0.
         23    2    1    2    0    0 -0.11955495255E+02 -0.38591107988E+02 -0.70553396662E+02  0.12345100566E+03  0.92898662724E+02 0.  0.
          5    1    3    3  502    0  0.68177889875E+02  0.29249056106E+02 -0.59384317181E+02  0.95119406422E+02  0.41800000000E+01 0.  1.
         -5    1    3    3    0  502 -0.56222394620E+02  0.93420518815E+01 -0.45190201155E+02  0.72855049726E+02  0.41800000000E+01 0.  1.
        -11    1    4    4    0    0 -0.38147628486E+02 -0.11456355155E+02 -0.75551112024E+02  0.85407611842E+02  0.00000000000E+00 0. -1.
         11    1    4    4    0    0  0.26192133230E+02 -0.27134752833E+02  0.49977153620E+01  0.38043393820E+02  0.00000000000E+00 0.  1.
</event>
<event>
 8    1  0.3719512E-009  0.9854581E+02  0.7561462E-02  0.1283384E+00
          2   -1    0    0  501    0  0.00000000000E+00  0.00000000000E+00  0.21334762166E+03  0.21334762166E+03  0.00000000000E+00 0.  1.
         -2   -1    0    0    0  501 -0.00000000000E+00 -0.00000000000E+00 -0.12341293724E+03  0.12341293724E+03  0.00000000000E+00 0. -1.
         25    2    1    2    0    0 -0.80751713240E+02 -0.18401592279E+02 -0.41405921065E+02  0.15562841993E+03  0.12508515899E+03 0.  0.
         23    2    1    2    0    0  0.80751713240E+02  0.18401592279E+02  0.13134060549E+03  0.18113213898E+03  0.93268640666E+02 0.  0.
          5    1    3    3  502    0 -0.65588979071E+01  0.24704481214E+02 -0.62081471019E+02  0.67267465967E+02  0.41800000000E+01 0. -1.
         -5    1    3    3    0  502 -0.74192815333E+02 -0.43106073493E+02  0.20675549954E+02  0.88360953961E+02  0.41800000000E+01 0. -1.
        -11    1    4    4    0    0  0.58885413113E+02  0.22498339462E+02  0.17897873564E+02  0.65528627592E+02  0.00000000000E+00 0. -1.
         11    1    4    4    0    0  0.21866300127E+02 -0.40967471838E+01  0.11344273192E+03  0.11560351139E+03  0.00000000000E+00 0.  1.
</event>
<event>
 8    1  0.3719512E-009  0.1124085E+03  0.7561462E-02  0.1256174E+00
          2   -1    0    0  501    0  0.00000000000E+00  0.00000000000E+00  0.73470689044E+03  0.73470689044E+03  0.00000000000E+00 0. -1.
         -2   -1    0    0    0  501 -0.00000000000E+00 -0.00000000000E+00 -0.20935746976E+02  0.20935746976E+02  0.00000000000E+00 0.  1.
         25    2    1    2    0    0  0.12101153640E+02  0.45928092803E+02  0.28592666144E+03  0.31568719835E+03  0.12509406001E+03 0.  0.
         23    2    1    2    0    0 -0.12101153640E+02 -0.45928092803E+02  0.42784448202E+03  0.43995543906E+03  0.90851857102E+02 0.  0.
          5    1    3    3  502    0  0.51415632962E+02  0.68801009437E+02  0.15854280555E+03  0.18036196884E+03  0.41800000000E+01 0.  1.
         -5    1    3    3    0  502 -0.39314479322E+02 -0.22872916635E+02  0.12738385589E+03  0.13532522951E+03  0.41800000000E+01 0.  1.
        -11    1    4    4    0    0  0.33172049574E+00 -0.67901498681E+02  0.37833669375E+03  0.38438181200E+03  0.00000000000E+00 0.  1.
         11    1    4    4    0    0 -0.12432874136E+02  0.21973405878E+02  0.49507788266E+02  0.55573627056E+02  0.00000000000E+00 0. -1.
</event>
<event>
 8    1  0.3719512E-009  0.1277179E+03  0.7561462E-02  0.1230882E+00
         -4   -1    0    0    0  501 -0.00000000000E+00  0.00000000000E+00  0.16069438104E+03  0.16069438104E+03  0.00000000000E+00 0.  1.
          4   -1    0    0  501    0  0.00000000000E+00 -0.00000000000E+00 -0.12991228031E+03  0.12991228031E+03  0.00000000000E+00 0. -1.
         25    2    1    2    0    0 -0.25919034653E-02  0.87705411116E+02  0.54974449514E+02  0.16236295658E+03  0.12508916990E+03 0.  0.
         23    2    1    2    0    0  0.25919034653E-02 -0.87705411116E+02 -0.24192348790E+02  0.12824370477E+03  0.90382182571E+02 0.  0.
          5    1    3    3  502    0  0.30714388366E+02  0.97613028172E+02  0.72422578152E+02  0.12543595636E+03  0.41800000000E+01 0. -1.
         -5    1    3    3    0  502 -0.30716980269E+02 -0.99076170553E+01 -0.17448128638E+02  0.36927000224E+02  0.41800000000E+01 0. -1.
        -11    1    4    4    0    0 -0.40947023032E+02 -0.51665212534E+02 -0.31751632181E+02  0.73171845867E+02  0.00000000000E+00 0.  1.
         11    1    4    4    0    0  0.40949614936E+02 -0.36040198582E+02  0.75592833912E+01  0.55071858899E+02  0.00000000000E+00 0. -1.
</event>
<event>
 8    1  0.3719512E-009  0.1282380E+03  0.7561462E-02  0.1230094E+00
         -2   -1    0    0    0  501 -0.00000000000E+00  0.00000000000E+00  0.40834720269E+02  0.40834720269E+02  0.00000000000E+00 0.  1.
          2   -1    0    0  501    0  0.00000000000E+00 -0.00000000000E+00 -0.49310737448E+03  0.49310737448E+03  0.00000000000E+00 0. -1.
         25    2    1    2    0    0 -0.28574791711E+02  0.67995185802E+02 -0.34115678190E+03  0.37078183425E+03  0.12510537462E+03 0.  0.
         23    2    1    2    0    0  0.28574791711E+02 -0.67995185802E+02 -0.11111587231E+03  0.16316026050E+03  0.93992922677E+02 0.  0.
          5    1    3    3  502    0  0.40338279821E+02 -0.90787777255E+01 -0.89242465383E+02  0.98444355103E+02  0.41800000000E+01 0.  1.
         -5    1    3    3    0  502 -0.68913071532E+02  0.77073963527E+02 -0.25191431652E+03  0.27233747915E+03  0.41800000000E+01 0.  1.
        -11    1    4    4    0    0 -0.21225356959E+02  0.61754887618E+01 -0.50704706716E+02  0.55313829398E+02  0.00000000000E+00 0. -1.
         11    1    4    4    0    0  0.49800148670E+02 -0.74170674564E+02 -0.60411165593E+02  0.10784643110E+03  0.00000000000E+00 0.  1.
</event>
<event>
 8    1  0.3719512E-009  0.1024442E+03  0.7561462E-02  0.1275239E+00
         -1   -1    0    0    0  501 -0.00000000000E+00  0.00000000000E+00  0.34015106703E+02  0.34015106703E+02  0.00000000000E+00 0.  1.
          1   -1    0    0  501    0  0.00000000000E+00 -0.00000000000E+00 -0.36872434934E+03  0.36872434934E+03  0.00000000000E+00 0. -1.
         25    2    1    2    0    0  0.85457160145E+01  0.23833598891E+02 -0.16244784262E+03  0.20658463010E+03  0.12508732199E+03 0.  0.
         23    2    1    2    0    0 -0.85457160145E+01 -0.23833598891E+02 -0.17226140002E+03  0.19615482595E+03  0.90341884568E+02 0.  0.
          5    1    3    3  502    0  0.66633913235E+02  0.87714364091E+01 -0.90459974039E+02  0.11277187501E+03  0.41800000000E+01 0.  1.
         -5    1    3    3    0  502 -0.58088197220E+02  0.15062162482E+02 -0.71987868579E+02  0.93812755090E+02  0.41800000000E+01 0.  1.
        -11    1    4    4    0    0 -0.23710012649E+02 -0.45290023155E+02 -0.15840715175E+03  0.16645172460E+03  0.00000000000E+00 0. -1.
         11    1    4    4    0    0  0.15164296634E+02  0.21456424264E+02 -0.13854248277E+02  0.29703101352E+02  0.00000000000E+00 0.  1.
</event>
<event>
 8    1  0.3719512E-009  0.8962079E+02  0.7561462E-02  0.1303773E+00
         -1   -1    0    0    0  501 -0.00000000000E+00  0.00000000000E+00  0.43018494183E+03  0.43018494183E+03  0.00000000000E+00 0.  1.
          1   -1    0    0  501    0  0.00000000000E+00 -0.00000000000E+00 -0.29482577044E+02  0.29482577044E+02  0.00000000000E+00 0. -1.
         25    2    1    2    0    0  0.10072515995E+02 -0.23115168310E+02  0.23362712478E+03  0.26620286502E+03  0.12508623157E+03 0.  0.
         23    2    1    2    0    0 -0.10072515995E+02  0.23115168310E+02  0.16707524001E+03  0.19346465385E+03  0.94226694110E+02 0.  0.
          5    1    3    3  502    0  0.32834520701E+02  0.30172235771E+02  0.18529467119E+03  0.19063068256E+03  0.41800000000E+01 0.  1.
         -5    1    3    3    0  502 -0.22762004706E+02 -0.53287404081E+02  0.48332453586E+02  0.75572182459E+02  0.41800000000E+01 0.  1.
        -11    1    4    4    0    0  0.26454873539E+02  0.29117540705E+02  0.24921103792E+02  0.46569871429E+02  0.00000000000E+00 0. -1.
         11    1    4    4    0    0 -0.36527389534E+02 -0.60023723956E+01  0.14215413621E+03  0.14689478242E+03  0.00000000000E+00 0.  1.
</event>
<event>
 8    1  0.3719512E-009  0.1371397E+03  0.7561462E-02  0.1217230E+00
         -2   -1    0    0    0  501 -0.00000000000E+00  0.00000000000E+00  0.19610260239E+02  0.19610260239E+02  0.00000000000E+00 0.  1.
          2   -1    0    0  501    0  0.00000000000E+00 -0.00000000000E+00 -0.14972463653E+04  0.14972463653E+04  0.00000000000E+00 0. -1.
         25    2    1    2    0    0 -0.49498851332E+01 -0.13047231219E+03 -0.89765462077E+03  0.91568477633E+03  0.12508903154E+03 0.  0.
         23    2    1    2    0    0  0.49498851332E+01  0.13047231219E+03 -0.57998148427E+03  0.60117184918E+03  0.89339490385E+02 0.  0.
          5    1    3    3  502    0 -0.19060183111E+02 -0.40237278032E+02 -0.65259993046E+03  0.65413031634E+03  0.41800000000E+01 0. -1.
         -5    1    3    3    0  502  0.14110297978E+02 -0.90235034157E+02 -0.24505469031E+03  0.26155445999E+03  0.41800000000E+01 0. -1.
        -11    1    4    4    0    0  0.24776193131E+02  0.84744422116E+02 -0.49367117704E+03  0.50150444451E+03  0.00000000000E+00 0. -1.
         11    1    4    4    0    0 -0.19826307998E+02  0.45727890073E+02 -0.86310307226E+02  0.99667404666E+02  0.00000000000E+00 0.  1.
</event>
<event>
 8    1  0.3719512E-009  0.1005292E+03  0.7561462E-02  0.1279187E+00
         -2   -1    0    0    0  501 -0.00000000000E+00  0.00000000000E+00  0.65936298913E+02  0.65936298913E+02  0.00000000000E+00 0.  1.
          2   -1    0    0  501    0  0.00000000000E+00 -0.00000000000E+00 -0.32695218100E+03  0.32695218100E+03  0.00000000000E+00 0. -1.
         25    2    1    2    0    0  0.54814800080E+02  0.65152403590E+02 -0.19663431439E+03  0.24811579808E+03  0.12508755997E+03 0.  0.
         23    2    1    2    0    0 -0.54814800080E+02 -0.65152403590E+02 -0.64381567697E+02  0.14477268183E+03  0.97799003800E+02 0.  0.
          5    1    3    3  502    0  0.59915608548E+02  0.19180095228E+02 -0.19123449819E+03  0.20136003054E+03  0.41800000000E+01 0.  1.
         -5    1    3    3    0  502 -0.51008084681E+01  0.45972308362E+02 -0.53998161961E+01  0.46755767539E+02  0.41800000000E+01 0.  1.
        -11    1    4    4    0    0 -0.58336021274E+02 -0.52665690762E+02 -0.87900884341E+02  0.11791239048E+03  0.00000000000E+00 0. -1.
         11    1    4    4    0    0  0.35212211939E+01 -0.12486712829E+02  0.23519316644E+02  0.26860291349E+02  0.00000000000E+00 0.  1.
</event>
<event>
 8    1  0.3719512E-009  0.1787210E+03  0.7561462E-02  0.1169047E+00
         -2   -1    0    0    0  501 -0.00000000000E+00  0.00000000000E+00  0.36473653599E+02  0.36473653599E+02  0.00000000000E+00 0.  1.
          2   -1    0    0  501    0  0.00000000000E+00 -0.00000000000E+00 -0.92560903553E+03  0.92560903553E+03  0.00000000000E+00 0. -1.
         25    2    1    2    0    0 -0.10770939867E+03 -0.97145783516E+02 -0.38887621274E+03  0.43348597194E+03  0.12508701457E+03 0.  0.
         23    2    1    2    0    0  0.10770939867E+03  0.97145783516E+02 -0.50025916918E+03  0.52859671718E+03  0.90092370656E+02 0.  0.
          5    1    3    3  502    0  0.96586144424E+01 -0.67490371679E+02 -0.17216533023E+03  0.18522044281E+03  0.41800000000E+01 0. -1.
         -5    1    3    3    0  502 -0.11736801311E+03 -0.29655411837E+02 -0.21671088251E+03  0.24826552913E+03  0.41800000000E+01 0. -1.
        -11    1    4    4    0    0  0.77105834184E+02  0.11039690648E+03 -0.35818000930E+03  0.38265611937E+03  0.00000000000E+00 0.  1.
         11    1    4    4    0    0  0.30603564487E+02 -0.13251122963E+02 -0.14207915988E+03  0.14594059782E+03  0.00000000000E+00 0. -1.
</event>
<event>
 8    1  0.3719512E-009  0.1116272E+03  0.7561462E-02  0.1257586E+00
          1   -1    0    0  501    0  0.00000000000E+00  0.00000000000E+00  0.71715854939E+03  0.71715854939E+03  0.00000000000E+00 0. -1.
         -1   -1    0    0    0  501 -0.00000000000E+00 -0.00000000000E+00 -0.20620489763E+02  0.20620489763E+02  0.00000000000E+00 0.  1.
         25    2    1    2    0    0  0.13018019835E+02 -0.48771339488E+02  0.31612681274E+03  0.34370387804E+03  0.12509229254E+03 0.  0.
         23    2    1    2    0    0 -0.13018019835E+02  0.48771339488E+02  0.38041124689E+03  0.39407516111E+03  0.89634833903E+02 0.  0.
          5    1    3    3  502    0  0.52795675972E+02 -0.63479509301E+02  0.26247690505E+03  0.27518835292E+03  0.41800000000E+01 0. -1.
         -5    1    3    3    0  502 -0.39777656137E+02  0.14708169812E+02  0.53649907691E+02  0.68515525118E+02  0.41800000000E+01 0. -1.
        -11    1    4    4    0    0  0.28536664564E+02  0.48663260976E+02  0.15689247142E+03  0.16672642797E+03  0.00000000000E+00 0.  1.
         11    1    4    4    0    0 -0.41554684399E+02  0.10807851266E+00  0.22351877546E+03  0.22734873314E+03  0.00000000000E+00 0. -1.
</event>
<event>
 8    1  0.3719512E-009  0.1748148E+03  0.7561462E-02  0.1172918E+00
         -3   -1    0    0    0  501 -0.00000000000E+00  0.00000000000E+00  0.40729664884E+02  0.40729664884E+02  0.00000000000E+00 0.  1.
          3   -1    0    0  501    0  0.00000000000E+00 -0.00000000000E+00 -0.76956713016E+03  0.76956713016E+03  0.00000000000E+00 0. -1.
         25    2    1    2    0    0  0.11874431561E+03  0.68296674114E+02 -0.44898690811E+03  0.48579985598E+03  0.12509040022E+03 0.  0.
         23    2    1    2    0    0 -0.11874431561E+03 -0.68296674114E+02 -0.27985055716E+03  0.32449693906E+03  0.90649219158E+02 0.  0.
          5    1    3    3  502    0 -0.25990156324E+02  0.28591045346E+01 -0.57957491654E+02  0.63719745317E+02  0.41800000000E+01 0.  1.
         -5    1    3    3    0  502  0.14473447194E+03  0.65437569579E+02 -0.39102941646E+03  0.42208011066E+03  0.41800000000E+01 0.  1.
        -11    1    4    4    0    0  0.10050193266E+02  0.94659621151E+01 -0.24305554293E+02  0.27953010445E+02  0.00000000000E+00 0.  1.
         11    1    4    4    0    0 -0.12879450888E+03 -0.77762636229E+02 -0.25554500286E+03  0.29654392862E+03  0.00000000000E+00 0. -1.
</event>
<event>
 8    1  0.3719512E-009  0.2462431E+03  0.7561462E-02  0.1115702E+00
         -2   -1    0    0    0  501 -0.00000000000E+00  0.00000000000E+00  0.35503498234E+03  0.35503498234E+03  0.00000000000E+00 0.  1.
          2   -1    0    0  501    0  0.00000000000E+00 -0.00000000000E+00 -0.15482795410E+04  0.15482795410E+04  0.00000000000E+00 0. -1.
         25    2    1    2    0    0  0.20804540810E+03 -0.10427763618E+03 -0.14902158574E+04  0.15134554621E+04  0.12508963488E+03 0.  0.
         23    2    1    2    0    0 -0.20804540810E+03  0.10427763618E+03  0.29697129870E+03  0.38985906132E+03  0.98190723603E+02 0.  0.
          5    1    3    3  502    0 -0.15274859725E+01 -0.15350327849E+02 -0.19477215079E+02  0.25195239346E+02  0.41800000000E+01 0.  1.
         -5    1    3    3    0  502  0.20957289407E+03 -0.88927308328E+02 -0.14707386423E+04  0.14882602227E+04  0.41800000000E+01 0.  1.
        -11    1    4    4    0    0 -0.52759050322E+02  0.73538281452E+02  0.76876163218E+02  0.11874906611E+03  0.00000000000E+00 0.  1.
         11    1    4    4    0    0 -0.15528635778E+03  0.30739354725E+02  0.22009513549E+03  0.27110999522E+03  0.00000000000E+00 0. -1.
</event>
<event>
 8    1  0.3719512E-009  0.1568968E+03  0.7561462E-02  0.1192245E+00
         -1   -1    0    0    0  501 -0.00000000000E+00  0.00000000000E+00  0.34589531258E+03  0.34589531258E+03  0.00000000000E+00 0.  1.
          1   -1    0    0  501    0  0.00000000000E+00 -0.00000000000E+00 -0.84084087338E+02  0.84084087338E+02  0.00000000000E+00 0. -1.
         25    2    1    2    0    0 -0.11492911310E+03  0.59955264696E+02  0.12067003482E+03  0.21681968638E+03  0.12508470849E+03 0.  0.
         23    2    1    2    0    0  0.11492911310E+03 -0.59955264696E+02  0.14114119042E+03  0.21315971354E+03  0.93342878884E+02 0.  0.
          5    1    3    3  502    0 -0.42031941782E+02 -0.32629887832E+02  0.71114517777E+02  0.88916481872E+02  0.41800000000E+01 0. -1.
         -5    1    3    3    0  502 -0.72897171319E+02  0.92585152528E+02  0.49555517045E+02  0.12790320451E+03  0.41800000000E+01 0. -1.
        -11    1    4    4    0    0  0.80205335710E+02 -0.88112165099E+01  0.30192787782E+02  0.86151830200E+02  0.00000000000E+00 0. -1.
         11    1    4    4    0    0  0.34723777391E+02 -0.51144048187E+02  0.11094840264E+03  0.12700788334E+03  0.00000000000E+00 0.  1.
</event>
<event>
 8    1  0.3719512E-009  0.1403250E+03  0.7561462E-02  0.1212892E+00
         -1   -1    0    0    0  501 -0.00000000000E+00  0.00000000000E+00  0.47905402238E+02  0.47905402238E+02  0.00000000000E+00 0.  1.
          1   -1    0    0  501    0  0.00000000000E+00 -0.00000000000E+00 -0.81854365710E+03  0.81854365710E+03  0.00000000000E+00 0. -1.
         25    2    1    2    0    0  0.20186463735E+02 -0.12650964865E+03 -0.62630816065E+03  0.65139876621E+03  0.12508499508E+03 0.  0.
         23    2    1    2    0    0 -0.20186463735E+02  0.12650964865E+03 -0.14433009421E+03  0.21505029313E+03  0.94885551924E+02 0.  0.
          5    1    3    3  502    0  0.16125756708E+02 -0.48973989253E+02 -0.50279658718E+03  0.50545066241E+03  0.41800000000E+01 0.  1.
         -5    1    3    3    0  502  0.40607070272E+01 -0.77535659393E+02 -0.12351157347E+03  0.14594810379E+03  0.41800000000E+01 0.  1.
        -11    1    4    4    0    0 -0.51378422988E+02  0.73921357810E+02 -0.11815044139E+03  0.14853833273E+03  0.00000000000E+00 0. -1.
         11    1    4    4    0    0  0.31191959253E+02  0.52588290836E+02 -0.26179652819E+02  0.66511960404E+02  0.00000000000E+00 0.  1.
</event>
<event>
 8    1  0.3719512E-009  0.1144707E+03  0.7561462E-02  0.1252508E+00
         -2   -1    0    0    0  501 -0.00000000000E+00  0.00000000000E+00  0.19791185145E+02  0.19791185145E+02  0.00000000000E+00 0.  1.
          2   -1    0    0  501    0  0.00000000000E+00 -0.00000000000E+00 -0.72298754417E+03  0.72298754417E+03  0.00000000000E+00 0. -1.
         25    2    1    2    0    0  0.20292018120E+02 -0.45902806711E+02 -0.36414401751E+03  0.38828700759E+03  0.12508837320E+03 0.  0.
         23    2    1    2    0    0 -0.20292018120E+02  0.45902806711E+02 -0.33905234151E+03  0.35449172172E+03  0.90493407621E+02 0.  0.
          5    1    3    3  502    0  0.58881787116E+02  0.16486798159E+02 -0.16833078453E+03  0.17914129839E+03  0.41800000000E+01 0. -1.
         -5    1    3    3    0  502 -0.38589768996E+02 -0.62389604871E+02 -0.19581323298E+03  0.20914570920E+03  0.41800000000E+01 0. -1.
        -11    1    4    4    0    0  0.19230979945E+02  0.50828545248E+02 -0.26390068222E+03  0.26943819640E+03  0.00000000000E+00 0. -1.
         11    1    4    4    0    0 -0.39522998065E+02 -0.49257385362E+01 -0.75151659290E+02  0.85053525325E+02  0.00000000000E+00 0.  1.
</event>
<event>
 8    1  0.3719512E-009  0.8646786E+02  0.7561462E-02  0.1311638E+00
          4   -1    0    0  501    0  0.00000000000E+00  0.00000000000E+00  0.29473076948E+03  0.29473076948E+03  0.00000000000E+00 0. -1.
         -4   -1    0    0    0  501 -0.00000000000E+00 -0.00000000000E+00 -0.49670724406E+02  0.49670724406E+02  0.00000000000E+00 0.  1.
         25    2    1    2    0    0  0.29118689746E+02  0.43724652513E+02  0.15513409971E+03  0.20608935522E+03  0.12508593092E+03 0.  0.
         23    2    1    2    0    0 -0.29118689746E+02 -0.43724652513E+02  0.89925945360E+02  0.13831213866E+03  0.91015541102E+02 0.  0.
          5    1    3    3  502    0  0.41024339984E+02  0.27456653571E+02 -0.54273918737E-01  0.49541292293E+02  0.41800000000E+01 0. -1.
         -5    1    3    3    0  502 -0.11905650237E+02  0.16267998941E+02  0.15518837363E+03  0.15654806293E+03  0.41800000000E+01 0. -1.
        -11    1    4    4    0    0 -0.46806529893E+02  0.85849600755E+01  0.27473008402E+02  0.54948330009E+02  0.00000000000E+00 0.  1.
         11    1    4    4    0    0  0.17687840147E+02 -0.52309612588E+02  0.62452936958E+02  0.83363808652E+02  0.00000000000E+00 0. -1.
</event>
<event>
 8    1  0.3719512E-009  0.8920176E+02  0.7561462E-02  0.1304796E+00
          2   -1    0    0  501    0  0.00000000000E+00  0.00000000000E+00  0.78350615798E+03  0.78350615798E+03  0.00000000000E+00 0. -1.
         -2   -1    0    0    0  501 -0.00000000000E+00 -0.00000000000E+00 -0.16816684211E+02  0.16816684211E+02  0.00000000000E+00 0.  1.
         25    2    1    2    0    0 -0.12374974856E+02 -0.37306503312E+02  0.44598345704E+03  0.46485509865E+03  0.12507639102E+03 0.  0.
         23    2    1    2    0    0  0.12374974856E+02  0.37306503312E+02  0.32070601672E+03  0.33546774354E+03  0.90229388792E+02 0.  0.
          5    1    3    3  502    0  0.26529856253E+02  0.23439212955E+00  0.15581346038E+02  0.31050587061E+02  0.41800000000E+01 0. -1.
         -5    1    3    3    0  502 -0.38904831109E+02 -0.37540895441E+02  0.43040211101E+03  0.43380451159E+03  0.41800000000E+01 0. -1.
        -11    1    4    4    0    0 -0.22328367110E+02  0.54276472258E+02  0.16820266250E+03  0.17814776757E+03  0.00000000000E+00 0.  1.
         11    1    4    4    0    0  0.34703341966E+02 -0.16969968946E+02  0.15250335422E+03  0.15731997597E+03  0.00000000000E+00 0. -1.
</event>
<event>
 8    1  0.3719512E-009  0.2328521E+03  0.7561462E-02  0.1124648E+00
          1   -1    0    0  501    0  0.00000000000E+00  0.00000000000E+00  0.64334571602E+03  0.64334571602E+03  0.00000000000E+00 0. -1.
         -1   -1    0    0    0  501 -0.00000000000E+00 -0.00000000000E+00 -0.10570746754E+03  0.10570746754E+03  0.00000000000E+00 0.  1.
         25    2    1    2    0    0 -0.22820498752E+03 -0.29583258783E+00  0.36768677503E+03  0.45046480352E+03  0.12508945134E+03 0.  0.
         23    2    1    2    0    0  0.22820498752E+03  0.29583258783E+00  0.16995147345E+03  0.29858838004E+03  0.90520238186E+02 0.  0.
          5    1    3    3  502    0 -0.22174380724E+03  0.50642177631E+01  0.37688549035E+03  0.43732837501E+03  0.41800000000E+01 0. -1.
         -5    1    3    3    0  502 -0.64611802825E+01 -0.53600503509E+01 -0.91987153270E+01  0.13136428513E+02  0.41800000000E+01 0. -1.
        -11    1    4    4    0    0  0.20550111684E+03  0.17140516451E+02  0.11333664801E+03  0.23530767542E+03  0.00000000000E+00 0.  1.
         11    1    4    4    0    0  0.22703870678E+02 -0.16844683863E+02  0.56614825438E+02  0.63280704623E+02  0.00000000000E+00 0. -1.
</event>
<event>
 8    1  0.3719512E-009  0.8464115E+02  0.7561462E-02  0.1316374E+00
          1   -1    0    0  501    0  0.00000000000E+00  0.00000000000E+00  0.24730974200E+03  0.24730974200E+03  0.00000000000E+00 0. -1.
         -1   -1    0    0    0  501 -0.00000000000E+00 -0.00000000000E+00 -0.56016583438E+02  0.56016583438E+02  0.00000000000E+00 0.  1.
         25    2    1    2    0    0 -0.16104455910E+02  0.67856533433E+01  0.55351781774E+02  0.13790096831E+03  0.12508980264E+03 0.  0.
         23    2    1    2    0    0  0.16104455910E+02 -0.67856533433E+01  0.13594137679E+03  0.16542535713E+03  0.92628787462E+02 0.  0.
          5    1    3    3  502    0 -0.43836751044E+02  0.31625181457E+02  0.77348418593E+02  0.94456673153E+02  0.41800000000E+01 0.  1.
         -5    1    3    3    0  502  0.27732295134E+02 -0.24839528113E+02 -0.21996636819E+02  0.43444295156E+02  0.41800000000E+01 0.  1.
        -11    1    4    4    0    0  0.98189077742E+00  0.34046411593E+02  0.15627248859E+02  0.37474433402E+02  0.00000000000E+00 0.  1.
         11    1    4    4    0    0  0.15122565133E+02 -0.40832064937E+02  0.12031412793E+03  0.12795092373E+03  0.00000000000E+00 0. -1.
</event>
<event>
 8    1  0.3719512E-009  0.1126626E+03  0.7561462E-02  0.1255717E+00
         -3   -1    0    0    0  501 -0.00000000000E+00  0.00000000000E+00  0.77558837577E+03  0.77558837577E+03  0.00000000000E+00 0.  1.
          3   -1    0    0  501    0  0.00000000000E+00 -0.00000000000E+00 -0.24727719935E+02  0.24727719935E+02  0.00000000000E+00 0. -1.
         25    2    1    2    0    0  0.53562579757E+02  0.40910917609E+02  0.57966832832E+03  0.59682994710E+03  0.12509181337E+03 0.  0.
         23    2    1    2    0    0 -0.53562579757E+02 -0.40910917609E+02  0.17119232751E+03  0.20348614860E+03  0.86931849992E+02 0.  0.
          5    1    3    3  502    0 -0.49468834046E+01  0.61515893141E+02  0.14365444296E+03  0.15640571648E+03  0.41800000000E+01 0.  1.
         -5    1    3    3    0  502  0.58509463162E+02 -0.20604975532E+02  0.43601388535E+03  0.44042423062E+03  0.41800000000E+01 0.  1.
        -11    1    4    4    0    0 -0.63827078133E+02 -0.50845174927E+01  0.14324324110E+03  0.15690243575E+03  0.00000000000E+00 0.  1.
         11    1    4    4    0    0  0.10264498376E+02 -0.35826400116E+02  0.27949086410E+02  0.46583712855E+02  0.00000000000E+00 0. -1.
</event>
<event>
 8    1  0.3719512E-009  0.1478837E+03  0.7561462E-02  0.1203098E+00
         -1   -1    0    0    0  501 -0.00000000000E+00  0.00000000000E+00  0.40845792792E+02  0.40845792792E+02  0.00000000000E+00 0.  1.
          1   -1    0    0  501    0  0.00000000000E+00 -0.00000000000E+00 -0.67613239930E+03  0.67613239930E+03  0.00000000000E+00 0. -1.
         25    2    1    2    0    0 -0.74670853563E+02  0.87926315782E+02 -0.23672133063E+03  0.29153246247E+03  0.12508962754E+03 0.  0.
         23    2    1    2    0    0  0.74670853563E+02 -0.87926315782E+02 -0.39856527588E+03  0.42544572963E+03  0.94037313570E+02 0.  0.
          5    1    3    3  502    0 -0.10086295213E+03  0.74821585488E+02 -0.22859247473E+03  0.26085167562E+03  0.41800000000E+01 0. -1.
         -5    1    3    3    0  502  0.26192098570E+02  0.13104730294E+02 -0.81288559010E+01  0.30680786852E+02  0.41800000000E+01 0. -1.
        -11    1    4    4    0    0 -0.17270935513E+02 -0.18576403917E+02 -0.14160334026E+03  0.14385713041E+03  0.00000000000E+00 0. -1.
         11    1    4    4    0    0  0.91941789077E+02 -0.69349911865E+02 -0.25696193561E+03  0.28158859922E+03  0.00000000000E+00 0.  1.
</event>
<event>
 8    1  0.3719512E-009  0.1135883E+03  0.7561462E-02  0.1254066E+00
          2   -1    0    0  501    0  0.00000000000E+00  0.00000000000E+00  0.89887183676E+03  0.89887183676E+03  0.00000000000E+00 0. -1.
         -2   -1    0    0    0  501 -0.00000000000E+00 -0.00000000000E+00 -0.20804440642E+02  0.20804440642E+02  0.00000000000E+00 0.  1.
         25    2    1    2    0    0 -0.53634313478E+02 -0.19338682900E+02  0.68402385379E+03  0.69770072966E+03  0.12508817444E+03 0.  0.
         23    2    1    2    0    0  0.53634313478E+02  0.19338682900E+02  0.19404354233E+03  0.22197554774E+03  0.91485644965E+02 0.  0.
          5    1    3    3  502    0 -0.61882243802E+01 -0.67871765236E+02  0.38844892045E+03  0.39440449647E+03  0.41800000000E+01 0.  1.
         -5    1    3    3    0  502 -0.47446089098E+02  0.48533082336E+02  0.29557493333E+03  0.30329623319E+03  0.41800000000E+01 0.  1.
        -11    1    4    4    0    0  0.58943579842E+02 -0.11114415893E+02  0.61626940911E+02  0.85998579589E+02  0.00000000000E+00 0.  1.
         11    1    4    4    0    0 -0.53092663638E+01  0.30453098794E+02  0.13241660142E+03  0.13597696815E+03  0.00000000000E+00 0. -1.
</event>
<event>
 8    1  0.3719512E-009  0.8407362E+02  0.7561462E-02  0.1317873E+00
          2   -1    0    0  501    0  0.00000000000E+00  0.00000000000E+00  0.22563080458E+03  0.22563080458E+03  0.00000000000E+00 0. -1.
         -2   -1    0    0    0  501 -0.00000000000E+00 -0.00000000000E+00 -0.65841544572E+02  0.65841544572E+02  0.00000000000E+00 0.  1.
         25    2    1    2    0    0 -0.89734684824E+01 -0.48159062372E+02  0.11887606779E+03  0.17938290061E+03  0.12508751782E+03 0.  0.
         23    2    1    2    0    0  0.89734684824E+01  0.48159062372E+02  0.40913192220E+02  0.11208944854E+03  0.92143023345E+02 0.  0.
          5    1    3    3  502    0 -0.21244404006E+02  0.25333003410E+02 -0.60447635814E+01  0.33868825343E+02  0.41800000000E+01 0. -1.
         -5    1    3    3    0  502  0.12270935523E+02 -0.73492065782E+02  0.12492083137E+03  0.14551407527E+03  0.41800000000E+01 0. -1.
        -11    1    4    4    0    0 -0.96796868693E+01  0.37463076539E+02  0.67555946721E+02  0.77852324172E+02  0.00000000000E+00 0. -1.
         11    1    4    4    0    0  0.18653155352E+02  0.10695985833E+02 -0.26642754502E+02  0.34237124367E+02  0.00000000000E+00 0.  1.
</event>
<event>
 8    1  0.3719512E-009  0.9503406E+02  0.7561462E-02  0.1291099E+00
          1   -1    0    0  501    0  0.00000000000E+00  0.00000000000E+00  0.73669070045E+03  0.73669070045E+03  0.00000000000E+00 0. -1.
         -1   -1    0    0    0  501 -0.00000000000E+00 -0.00000000000E+00 -0.26912668130E+02  0.26912668130E+02  0.00000000000E+00 0.  1.
         25    2    1    2    0    0  0.33084019731E+02  0.61097830911E+02  0.54065800991E+03  0.55927197254E+03  0.12508620340E+03 0.  0.
         23    2    1    2    0    0 -0.33084019731E+02 -0.61097830911E+02  0.16912002241E+03  0.20433139604E+03  0.91226312681E+02 0.  0.
          5    1    3    3  502    0  0.28006407791E+02  0.16311792443E+02  0.49096995566E+03  0.49205630085E+03  0.41800000000E+01 0.  1.
         -5    1    3    3    0  502  0.50776119397E+01  0.44786038468E+02  0.49688054256E+02  0.67215671687E+02  0.41800000000E+01 0.  1.
        -11    1    4    4    0    0 -0.12765752060E+02  0.22620620164E+02  0.59409830296E+02  0.64839685518E+02  0.00000000000E+00 0. -1.
         11    1    4    4    0    0 -0.20318267671E+02 -0.83718451075E+02  0.10971019211E+03  0.13949171052E+03  0.00000000000E+00 0.  1.
</event>
<event>
 8    1  0.3719512E-009  0.7571751E+02  0.7561462E-02  0.1341663E+00
          4   -1    0    0  501    0  0.00000000000E+00  0.00000000000E+00  0.10481222835E+03  0.10481222835E+03  0.00000000000E+00 0. -1.
         -4   -1    0    0    0  501 -0.00000000000E+00 -0.00000000000E+00 -0.12912252722E+03  0.12912252722E+03  0.00000000000E+00 0.  1.
         25    2    1    2    0    0  0.26692338452E+02  0.28590775953E+02 -0.29793758179E+02  0.13440225132E+03  0.12508550568E+03 0.  0.
         23    2    1    2    0    0 -0.26692338452E+02 -0.28590775953E+02  0.54834593114E+01  0.99532504255E+02  0.91360482024E+02 0.  0.
          5    1    3    3  502    0 -0.40626440158E+01  0.18693921822E+02  0.47036986479E+02  0.50950154921E+02  0.41800000000E+01 0.  1.
         -5    1    3    3    0  502  0.30754982468E+02  0.98968541309E+01 -0.76830744658E+02  0.83452096396E+02  0.41800000000E+01 0.  1.
        -11    1    4    4    0    0  0.25007923428E+02 -0.39200648434E+02  0.48553494347E+01  0.46751058704E+02  0.00000000000E+00 0.  1.
         11    1    4    4    0    0 -0.51700261880E+02  0.10609872480E+02  0.62810987669E+00  0.52781445552E+02  0.00000000000E+00 0. -1.
</event>
<event>
 8    1  0.3719512E-009  0.9600434E+02  0.7561462E-02  0.1288930E+00
          3   -1    0    0  501    0  0.00000000000E+00  0.00000000000E+00  0.53329291125E+03  0.53329291125E+03  0.00000000000E+00 0. -1.
         -3   -1    0    0    0  501 -0.00000000000E+00 -0.00000000000E+00 -0.28164972505E+02  0.28164972505E+02  0.00000000000E+00 0.  1.
         25    2    1    2    0    0  0.25933592128E+02  0.96932696749E+01  0.16536678588E+03  0.20918934517E+03  0.12508995795E+03 0.  0.
         23    2    1    2    0    0 -0.25933592128E+02 -0.96932696749E+01  0.33976115286E+03  0.35226853859E+03  0.88819882942E+02 0.  0.
          5    1    3    3  502    0  0.23992740983E+02 -0.45968417556E+02  0.24199003238E+02  0.57374307753E+02  0.41800000000E+01 0. -1.
         -5    1    3    3    0  502  0.19408511443E+01  0.55661687230E+02  0.14116778264E+03  0.15181503741E+03  0.41800000000E+01 0. -1.
        -11    1    4    4    0    0  0.17764564109E+02  0.23357748702E+02  0.55554450445E+02  0.62828824012E+02  0.00000000000E+00 0.  1.
         11    1    4    4    0    0 -0.43698156236E+02 -0.33051018377E+02  0.28420670242E+03  0.28943971458E+03  0.00000000000E+00 0. -1.
</event>
<event>
 8    1  0.3719512E-009  0.1110114E+03  0.7561462E-02  0.1258708E+00
         -2   -1    0    0    0  501 -0.00000000000E+00  0.00000000000E+00  0.88122902697E+01  0.88122902697E+01  0.00000000000E+00 0.  1.
          2   -1    0    0  501    0  0.00000000000E+00 -0.00000000000E+00 -0.14969428680E+04  0.14969428680E+04  0.00000000000E+00 0. -1.
         25    2    1    2    0    0 -0.27862645330E+02  0.14968401522E+02 -0.10184523965E+04  0.10265933567E+04  0.12509298951E+03 0.  0.
         23    2    1    2    0    0  0.27862645330E+02 -0.14968401522E+02 -0.46967818117E+03  0.47916180151E+03  0.89431862970E+02 0.  0.
          5    1    3    3  502    0 -0.49409580391E+02  0.59926964987E+02 -0.54901438640E+03  0.55449690409E+03  0.41800000000E+01 0.  1.
         -5    1    3    3    0  502  0.21546935061E+02 -0.44958563465E+02 -0.46943801011E+03  0.47209645262E+03  0.41800000000E+01 0.  1.
        -11    1    4    4    0    0  0.17998329370E+02  0.37089893126E+02 -0.17816172072E+03  0.18286934889E+03  0.00000000000E+00 0.  1.
         11    1    4    4    0    0  0.98643159601E+01 -0.52058294648E+02 -0.29151646044E+03  0.29629245262E+03  0.00000000000E+00 0. -1.
</event>
<event>
 8    1  0.3719512E-009  0.3565076E+03  0.7561462E-02  0.1059975E+00
         -1   -1    0    0    0  501 -0.00000000000E+00  0.00000000000E+00  0.12382663697E+03  0.12382663697E+03  0.00000000000E+00 0.  1.
          1   -1    0    0  501    0  0.00000000000E+00 -0.00000000000E+00 -0.11652970990E+04  0.11652970990E+04  0.00000000000E+00 0. -1.
         25    2    1    2    0    0  0.13115615414E+03  0.32140280906E+03 -0.34212307417E+03  0.50318669937E+03  0.12508778555E+03 0.  0.
         23    2    1    2    0    0 -0.13115615414E+03 -0.32140280906E+03 -0.69934738782E+03  0.78593703657E+03  0.90047510545E+02 0.  0.
          5    1    3    3  502    0  0.14318372826E+03  0.22321236941E+03 -0.28304537171E+03  0.38788851071E+03  0.41800000000E+01 0.  1.
         -5    1    3    3    0  502 -0.12027574116E+02  0.98190439655E+02 -0.59077702459E+02  0.11529818865E+03  0.41800000000E+01 0.  1.
        -11    1    4    4    0    0 -0.46922857173E+01 -0.39906369528E+02 -0.34501079221E+02  0.52960932220E+02  0.00000000000E+00 0.  1.
         11    1    4    4    0    0 -0.12646386843E+03 -0.28149643954E+03 -0.66484630860E+03  0.73297610435E+03  0.00000000000E+00 0. -1.
</event>
<event>
 8    1  0.3719512E-009  0.7648949E+02  0.7561462E-02  0.1339320E+00
          1   -1    0    0  501    0  0.00000000000E+00  0.00000000000E+00  0.26367958378E+03  0.26367958378E+03  0.00000000000E+00 0. -1.
         -1   -1    0    0    0  501 -0.00000000000E+00 -0.00000000000E+00 -0.51299145914E+02  0.51299145914E+02  0.00000000000E+00 0.  1.
         25    2    1    2    0    0  0.13838287704E+02  0.37216065566E+02  0.15829735055E+03  0.20562697693E+03  0.12509144138E+03 0.  0.
         23    2    1    2    0    0 -0.13838287704E+02 -0.37216065566E+02  0.54083087315E+02  0.10935175277E+03  0.86349821988E+02 0.  0.
          5    1    3    3  502    0  0.18305285889E+02 -0.21466273556E+02  0.14141024644E+03  0.14425745939E+03  0.41800000000E+01 0. -1.
         -5    1    3    3    0  502 -0.44669981853E+01  0.58682339122E+02  0.16887104117E+02  0.61369517540E+02  0.41800000000E+01 0. -1.
        -11    1    4    4    0    0  0.19102348327E+02 -0.58605090140E+01 -0.16142050252E+02  0.25686787729E+02  0.00000000000E+00 0.  1.
         11    1    4    4    0    0 -0.32940636031E+02 -0.31355556552E+02  0.70225137567E+02  0.83664965040E+02  0.00000000000E+00 0. -1.
</event>
<event>
 8    1  0.3719512E-009  0.9870846E+02  0.7561462E-02  0.1283036E+00
         -2   -1    0    0    0  501 -0.00000000000E+00  0.00000000000E+00  0.65095352288E+02  0.65095352288E+02  0.00000000000E+00 0.  1.
          2   -1    0    0  501    0  0.00000000000E+00 -0.00000000000E+00 -0.26971252918E+03  0.26971252918E+03  0.00000000000E+00 0. -1.
         25    2    1    2    0    0  0.13086119380E+02 -0.59821217036E+02 -0.49012659437E+02  0.14765094227E+03  0.12509490574E+03 0.  0.
         23    2    1    2    0    0 -0.13086119380E+02  0.59821217036E+02 -0.15560451746E+03  0.18715693919E+03  0.84054324743E+02 0.  0.
          5    1    3    3  502    0  0.13285332980E+02 -0.81388820250E+02  0.11411503432E+02  0.83356673066E+02  0.41800000000E+01 0. -1.
         -5    1    3    3    0  502 -0.19921360079E+00  0.21567603214E+02 -0.60424162869E+02  0.64294269207E+02  0.41800000000E+01 0. -1.
        -11    1    4    4    0    0  0.18286061023E+02 -0.65815974287E+01 -0.57389979315E+01  0.20264095087E+02  0.00000000000E+00 0.  1.
         11    1    4    4    0    0 -0.31372180402E+02  0.66402814465E+02 -0.14986551952E+03  0.16689284411E+03  0.00000000000E+00 0. -1.
</event>
<event>
 8    1  0.3719512E-009  0.2246001E+03  0.7561462E-02  0.1130499E+00
         -1   -1    0    0    0  501 -0.00000000000E+00  0.00000000000E+00  0.72184273362E+02  0.72184273362E+02  0.00000000000E+00 0.  1.
          1   -1    0    0  501    0  0.00000000000E+00 -0.00000000000E+00 -0.84488155488E+03  0.84488155488E+03  0.00000000000E+00 0. -1.
         25    2    1    2    0    0 -0.45947351603E+02 -0.21383811949E+03 -0.46542287083E+03  0.52924821373E+03  0.12508925845E+03 0.  0.
         23    2    1    2    0    0  0.45947351603E+02  0.21383811949E+03 -0.30727441069E+03  0.38781761451E+03  0.90260945003E+02 0.  0.
          5    1    3    3  502    0 -0.34540991057E+02 -0.13166005839E+03 -0.14793043144E+03  0.20106798846E+03  0.41800000000E+01 0.  1.
         -5    1    3    3    0  502 -0.11406360546E+02 -0.82178061100E+02 -0.31749243939E+03  0.32818022527E+03  0.41800000000E+01 0.  1.
        -11    1    4    4    0    0 -0.69456212317E+01  0.13400011152E+03 -0.22295948879E+03  0.26022145411E+03  0.00000000000E+00 0. -1.
         11    1    4    4    0    0  0.52892972835E+02  0.79838007976E+02 -0.84314921906E+02  0.12759616040E+03  0.00000000000E+00 0.  1.
</event>
<event>
 8    1  0.3719512E-009  0.8610435E+02  0.7561462E-02  0.1312570E+00
         -2   -1    0    0    0  501 -0.00000000000E+00  0.00000000000E+00  0.31140464592E+03  0.31140464592E+03  0.00000000000E+00 0.  1.
          2   -1    0    0  501    0  0.00000000000E+00 -0.00000000000E+00 -0.69894066131E+02  0.69894066131E+02  0.00000000000E+00 0. -1.
         25    2    1    2    0    0 -0.17753122935E+02 -0.45436636807E+02  0.24281543686E+03  0.27746506970E+03  0.12509143531E+03 0.  0.
         23    2    1    2    0    0  0.17753122935E+02  0.45436636807E+02 -0.13048570736E+01  0.10383364235E+03  0.91651848280E+02 0.  0.
          5    1    3    3  502    0  0.28773297321E+02 -0.66196321781E+02  0.85068692900E+02  0.11164233322E+03  0.41800000000E+01 0.  1.
         -5    1    3    3    0  502 -0.46526420256E+02  0.20759684974E+02  0.15774674396E+03  0.16582273648E+03  0.41800000000E+01 0.  1.
        -11    1    4    4    0    0  0.11933497862E+02  0.29404140055E+02 -0.46063027358E+02  0.55935805286E+02  0.00000000000E+00 0. -1.
         11    1    4    4    0    0  0.58196250724E+01  0.16032496752E+02  0.44758170284E+02  0.47897837063E+02  0.00000000000E+00 0.  1.
</event>
<event>
 8    1  0.3719512E-009  0.1005117E+03  0.7561462E-02  0.1279224E+00
          2   -1    0    0  501    0  0.00000000000E+00  0.00000000000E+00  0.27829420197E+04  0.27829420197E+04  0.00000000000E+00 0. -1.
         -2   -1    0    0    0  501 -0.00000000000E+00 -0.00000000000E+00 -0.20903786342E+02  0.20903786342E+02  0.00000000000E+00 0.  1.
         25    2    1    2    0    0 -0.84243909890E+01 -0.43975240843E+02  0.26480289418E+04  0.26513598882E+04  0.12508872031E+03 0.  0.
         23    2    1    2    0    0  0.84243909890E+01  0.43975240843E+02  0.11400929149E+03  0.15248591777E+03  0.90824250084E+02 0.  0.
          5    1    3    3  502    0 -0.25133230258E+02  0.39252842154E+02  0.78545998463E+03  0.78685279738E+03  0.41800000000E+01 0.  1.
         -5    1    3    3    0  502  0.16708839269E+02 -0.83228082998E+02  0.18625689572E+04  0.18645070909E+04  0.41800000000E+01 0.  1.
        -11    1    4    4    0    0  0.66347364164E+01 -0.11743236474E+02 -0.98217590942E+01  0.16685031673E+02  0.00000000000E+00 0.  1.
         11    1    4    4    0    0  0.17896545726E+01  0.55718477318E+02  0.12383105058E+03  0.13580088610E+03  0.00000000000E+00 0. -1.
</event>
<event>
 8    1  0.3719512E-009  0.9332820E+02  0.7561462E-02  0.1294986E+00
          2   -1    0    0  501    0  0.00000000000E+00  0.00000000000E+00  0.44530972064E+03  0.44530972064E+03  0.00000000000E+00 0.  1.
         -2   -1    0    0    0  501 -0.00000000000E+00 -0.00000000000E+00 -0.31958364228E+02  0.31958364228E+02  0.00000000000E+00 0. -1.
         25    2    1    2    0    0  0.54978253302E+01 -0.17249154056E+02  0.13867442869E+03  0.18762978026E+03  0.12508628169E+03 0.  0.
         23    2    1    2    0    0 -0.54978253302E+01  0.17249154056E+02  0.27467692772E+03  0.28963830461E+03  0.90084257645E+02 0.  0.
          5    1    3    3  502    0 -0.31966189618E+02 -0.43748195352E+02  0.16096555935E+02  0.56677274002E+02  0.41800000000E+01 0.  1.
         -5    1    3    3    0  502  0.37464014949E+02  0.26499041296E+02  0.12257787275E+03  0.13095250626E+03  0.41800000000E+01 0.  1.
        -11    1    4    4    0    0 -0.40724305266E+02 -0.97216468672E+01  0.18382013740E+03  0.18852804134E+03  0.00000000000E+00 0.  1.
         11    1    4    4    0    0  0.35226479936E+02  0.26970800924E+02  0.90856790323E+02  0.10111026327E+03  0.00000000000E+00 0. -1.
</event>
<event>
 8    1  0.3719512E-009  0.1177926E+03  0.7561462E-02  0.1246784E+00
          1   -1    0    0  501    0  0.00000000000E+00  0.00000000000E+00  0.20216297090E+03  0.20216297090E+03  0.00000000000E+00 0. -1.
         -1   -1    0    0    0  501 -0.00000000000E+00 -0.00000000000E+00 -0.96172908332E+02  0.96172908332E+02  0.00000000000E+00 0.  1.
         25    2    1    2    0    0 -0.79575390412E+02  0.30909412351E+02  0.64024558458E+02  0.16442605326E+03  0.12509655621E+03 0.  0.
         23    2    1    2    0    0  0.79575390412E+02 -0.30909412351E+02  0.41965504110E+02  0.13390982597E+03  0.94250217105E+02 0.  0.
          5    1    3    3  502    0 -0.70887502097E+02 -0.38052643371E+02  0.23779819544E+02  0.83999963325E+02  0.41800000000E+01 0.  1.
         -5    1    3    3    0  502 -0.86878883158E+01  0.68962055722E+02  0.40244738914E+02  0.80426089940E+02  0.41800000000E+01 0.  1.
        -11    1    4    4    0    0  0.67755997717E+02 -0.25586267830E+02 -0.16285080214E+02  0.74234332796E+02  0.00000000000E+00 0.  1.
         11    1    4    4    0    0  0.11819392695E+02 -0.53231445211E+01  0.58250584323E+02  0.59675493172E+02  0.00000000000E+00 0. -1.
</event>
<event>
 8    1  0.3719512E-009  0.9418498E+02  0.7561462E-02  0.1293022E+00
          2   -1    0    0  501    0  0.00000000000E+00  0.00000000000E+00  0.10847440821E+03  0.10847440821E+03  0.00000000000E+00 0. -1.
         -2   -1    0    0    0  501 -0.00000000000E+00 -0.00000000000E+00 -0.19105756626E+03  0.19105756626E+03  0.00000000000E+00 0.  1.
         25    2    1    2    0    0  0.49663519781E+02 -0.57203069110E+02  0.12879522714E+02  0.14680364893E+03  0.12508706136E+03 0.  0.
         23    2    1    2    0    0 -0.49663519781E+02  0.57203069110E+02 -0.95462680762E+02  0.15272832554E+03  0.92055210023E+02 0.  0.
          5    1    3    3  502    0  0.21192837644E+02 -0.52690695463E+02  0.65417502091E+02  0.86731584418E+02  0.41800000000E+01 0. -1.
         -5    1    3    3    0  502  0.28470682137E+02 -0.45123736476E+01 -0.52537979377E+02  0.60072064508E+02  0.41800000000E+01 0. -1.
        -11    1    4    4    0    0  0.15865866689E+02  0.88455648843E+00 -0.55127710655E+02  0.57372228892E+02  0.00000000000E+00 0.  1.
         11    1    4    4    0    0 -0.65529386470E+02  0.56318512622E+02 -0.40334970107E+02  0.95356096651E+02  0.00000000000E+00 0. -1.
</event>
<event>
 8    1  0.3719512E-009  0.9970391E+02  0.7561462E-02  0.1280920E+00
          1   -1    0    0  501    0  0.00000000000E+00  0.00000000000E+00  0.64745289693E+02  0.64745289693E+02  0.00000000000E+00 0. -1.
         -1   -1    0    0    0  501 -0.00000000000E+00 -0.00000000000E+00 -0.24163238818E+03  0.24163238818E+03  0.00000000000E+00 0.  1.
         25    2    1    2    0    0 -0.56259328835E+02 -0.30722146822E+02 -0.10651829082E+03  0.17635945073E+03  0.12509015627E+03 0.  0.
         23    2    1    2    0    0  0.56259328835E+02  0.30722146822E+02 -0.70368807668E+02  0.13001822715E+03  0.88566403965E+02 0.  0.
          5    1    3    3  502    0 -0.56627575788E+02  0.58055560537E+01 -0.12335474628E+03  0.13592002299E+03  0.41800000000E+01 0. -1.
         -5    1    3    3    0  502  0.36824695352E+00 -0.36527702876E+02  0.16836455459E+02  0.40439427736E+02  0.41800000000E+01 0. -1.
        -11    1    4    4    0    0  0.32588116962E+02 -0.27545351541E+02 -0.12273964099E+02  0.44400247222E+02  0.00000000000E+00 0. -1.
         11    1    4    4    0    0  0.23671211873E+02  0.58267498363E+02 -0.58094843570E+02  0.85617979925E+02  0.00000000000E+00 0.  1.
</event>
<event>
 8    1  0.3719512E-009  0.1099256E+03  0.7561462E-02  0.1260708E+00
         -2   -1    0    0    0  501 -0.00000000000E+00  0.00000000000E+00  0.12828811418E+03  0.12828811418E+03  0.00000000000E+00 0.  1.
          2   -1    0    0  501    0  0.00000000000E+00 -0.00000000000E+00 -0.16100794805E+03  0.16100794805E+03  0.00000000000E+00 0. -1.
         25    2    1    2    0    0  0.39853278619E+02  0.12763610580E+00 -0.10483209085E+03  0.16800354548E+03  0.12508846435E+03 0.  0.
         23    2    1    2    0    0 -0.39853278619E+02 -0.12763610580E+00  0.72112256978E+02  0.12129251675E+03  0.89013464742E+02 0.  0.
          5    1    3    3  502    0  0.71272745684E+00  0.59696973849E+02 -0.49774175434E+02  0.77840719468E+02  0.41800000000E+01 0. -1.
         -5    1    3    3    0  502  0.39140551162E+02 -0.59569337744E+02 -0.55057915417E+02  0.90162826013E+02  0.41800000000E+01 0. -1.
        -11    1    4    4    0    0 -0.63927667748E+02 -0.46959333809E+01  0.72516042125E+02  0.96785199589E+02  0.00000000000E+00 0.  1.
         11    1    4    4    0    0  0.24074389130E+02  0.45682972751E+01 -0.40378514675E+00  0.24507317160E+02  0.00000000000E+00 0. -1.
</event>
<event>
 8    1  0.3719512E-009  0.1354945E+03  0.7561462E-02  0.1219523E+00
         -1   -1    0    0    0  501 -0.00000000000E+00  0.00000000000E+00  0.11749019405E+02  0.11749019405E+02  0.00000000000E+00 0.  1.
          1   -1    0    0  501    0  0.00000000000E+00 -0.00000000000E+00 -0.17054301494E+04  0.17054301494E+04  0.00000000000E+00 0. -1.
         25    2    1    2    0    0 -0.80812562754E+02  0.24478711826E+02 -0.11728788422E+04  0.11825486162E+04  0.12508626363E+03 0.  0.
         23    2    1    2    0    0  0.80812562754E+02 -0.24478711826E+02 -0.52080228777E+03  0.53463055267E+03  0.86399810600E+02 0.  0.
          5    1    3    3  502    0 -0.11154367460E+03  0.36417223579E+02 -0.94249567048E+03  0.94978090462E+03  0.41800000000E+01 0.  1.
         -5    1    3    3    0  502  0.30731111843E+02 -0.11938511753E+02 -0.23038317176E+03  0.23276771153E+03  0.41800000000E+01 0.  1.
        -11    1    4    4    0    0  0.45708869714E+02  0.30617080026E+02 -0.21491315255E+03  0.22184311912E+03  0.00000000000E+00 0.  1.
         11    1    4    4    0    0  0.35103693040E+02 -0.55095791852E+02 -0.30588913522E+03  0.31278743356E+03  0.00000000000E+00 0. -1.
</event>
<event>
 8    1  0.3719512E-009  0.5083525E+02  0.7561462E-02  0.1440888E+00
         -4   -1    0    0    0  501 -0.00000000000E+00  0.00000000000E+00  0.72098949065E+02  0.72098949065E+02  0.00000000000E+00 0.  1.
          4   -1    0    0  501    0  0.00000000000E+00 -0.00000000000E+00 -0.19079135598E+03  0.19079135598E+03  0.00000000000E+00 0. -1.
         25    2    1    2    0    0 -0.41643317031E+02  0.76872896891E+01 -0.82473365361E+02  0.15570277019E+03  0.12509291097E+03 0.  0.
         23    2    1    2    0    0  0.41643317031E+02 -0.76872896891E+01 -0.36219041557E+02  0.10718753486E+03  0.91564667760E+02 0.  0.
          5    1    3    3  502    0 -0.55242934131E+01  0.33170346937E+01 -0.10976296191E+03  0.11003136255E+03  0.41800000000E+01 0. -1.
         -5    1    3    3    0  502 -0.36119023618E+02  0.43702549954E+01  0.27289596550E+02  0.45671407639E+02  0.41800000000E+01 0. -1.
        -11    1    4    4    0    0  0.46204565346E+02  0.24317100507E+01  0.19619621192E+02  0.50256388731E+02  0.00000000000E+00 0.  1.
         11    1    4    4    0    0 -0.45612483155E+01 -0.10118999740E+02 -0.55838662749E+02  0.56931146129E+02  0.00000000000E+00 0. -1.
</event>
<event>
 8    1  0.3719512E-009  0.1890081E+03  0.7561462E-02  0.1159359E+00
          2   -1    0    0  501    0  0.00000000000E+00  0.00000000000E+00  0.68473374373E+03  0.68473374373E+03  0.00000000000E+00 0. -1.
         -2   -1    0    0    0  501 -0.00000000000E+00 -0.00000000000E+00 -0.72038389529E+02  0.72038389529E+02  0.00000000000E+00 0.  1.
         25    2    1    2    0    0 -0.12902568174E+03  0.11429362332E+03  0.46451679943E+03  0.51101117289E+03  0.12508358403E+03 0.  0.
         23    2    1    2    0    0  0.12902568174E+03 -0.11429362332E+03  0.14817855477E+03  0.24576096037E+03  0.93439320774E+02 0.  0.
          5    1    3    3  502    0 -0.13060574982E+03  0.93446012426E+02  0.46248722436E+03  0.48959363172E+03  0.41800000000E+01 0.  1.
         -5    1    3    3    0  502  0.15800680823E+01  0.20847610892E+02  0.20295750696E+01  0.21417541176E+02  0.41800000000E+01 0.  1.
        -11    1    4    4    0    0  0.10522556914E+03 -0.31407866896E+02  0.81382670911E+02  0.13668216280E+03  0.00000000000E+00 0.  1.
         11    1    4    4    0    0  0.23800112598E+02 -0.82885756421E+02  0.66795883863E+02  0.10907879757E+03  0.00000000000E+00 0. -1.
</event>
<event>
 8    1  0.3719512E-009  0.1625668E+03  0.7561462E-02  0.1185829E+00
          1   -1    0    0  501    0  0.00000000000E+00  0.00000000000E+00  0.75163230997E+03  0.75163230997E+03  0.00000000000E+00 0. -1.
         -1   -1    0    0    0  501 -0.00000000000E+00 -0.00000000000E+00 -0.47918850592E+02  0.47918850592E+02  0.00000000000E+00 0.  1.
         25    2    1    2    0    0 -0.11471402212E+03  0.80925505850E+02  0.22851777879E+03  0.29593346135E+03  0.12509194200E+03 0.  0.
         23    2    1    2    0    0  0.11471402212E+03 -0.80925505850E+02  0.47519568058E+03  0.50361769921E+03  0.90064464402E+02 0.  0.
          5    1    3    3  502    0 -0.70972327283E+02 -0.51386694505E+01  0.16648703185E+03  0.18110461434E+03  0.41800000000E+01 0. -1.
         -5    1    3    3    0  502 -0.43741694835E+02  0.86064175300E+02  0.62030746946E+02  0.11482884700E+03  0.41800000000E+01 0. -1.
        -11    1    4    4    0    0 -0.32029795051E+01 -0.27636040363E+02  0.34514831298E+02  0.44331516827E+02  0.00000000000E+00 0.  1.
         11    1    4    4    0    0  0.11791700162E+03 -0.53289465486E+02  0.44068084929E+03  0.45928618239E+03  0.00000000000E+00 0. -1.
</event>
<event>
 8    1  0.3719512E-009  0.9369960E+02  0.7561462E-02  0.1294132E+00
          2   -1    0    0  501    0  0.00000000000E+00  0.00000000000E+00  0.10336064218E+04  0.10336064218E+04  0.00000000000E+00 0. -1.
         -2   -1    0    0    0  501 -0.00000000000E+00 -0.00000000000E+00 -0.13643488236E+02  0.13643488236E+02  0.00000000000E+00 0.  1.
         25    2    1    2    0    0  0.22468491218E+02  0.14365270863E+01  0.75823982228E+03  0.76881830908E+03  0.12508823915E+03 0.  0.
         23    2    1    2    0    0 -0.22468491218E+02 -0.14365270863E+01  0.26172311128E+03  0.27843160096E+03  0.92294489135E+02 0.  0.
          5    1    3    3  502    0  0.29348817181E+02  0.42442506116E+02  0.14165271678E+03  0.15081672310E+03  0.41800000000E+01 0. -1.
         -5    1    3    3    0  502 -0.68803259632E+01 -0.41005979030E+02  0.61658710550E+03  0.61800158597E+03  0.41800000000E+01 0. -1.
        -11    1    4    4    0    0 -0.36548774103E+02  0.37542829964E+02  0.12420799544E+03  0.13480691044E+03  0.00000000000E+00 0.  1.
         11    1    4    4    0    0  0.14080282885E+02 -0.38979357050E+02  0.13751511584E+03  0.14362469052E+03  0.00000000000E+00 0. -1.
</event>
<event>
 8    1  0.3719512E-009  0.1344812E+03  0.7561462E-02  0.1220954E+00
         -2   -1    0    0    0  501 -0.00000000000E+00  0.00000000000E+00  0.39105458848E+03  0.39105458848E+03  0.00000000000E+00 0. -1.
          2   -1    0    0  501    0  0.00000000000E+00 -0.00000000000E+00 -0.50060028116E+02  0.50060028116E+02  0.00000000000E+00 0.  1.
         25    2    1    2    0    0 -0.49583644114E+02 -0.71146151872E+02  0.16016459425E+03  0.22095410744E+03  0.12509079763E+03 0.  0.
         23    2    1    2    0    0  0.49583644114E+02  0.71146151872E+02  0.18082996611E+03  0.22016050916E+03  0.90834247170E+02 0.  0.
          5    1    3    3  502    0 -0.52090181934E+02  0.18432711069E+02  0.95335878668E+02  0.11027036797E+03  0.41800000000E+01 0.  1.
         -5    1    3    3    0  502  0.25065378204E+01 -0.89578862942E+02  0.64828715587E+02  0.11068373947E+03  0.41800000000E+01 0.  1.
        -11    1    4    4    0    0  0.37608366960E+02 -0.12275511644E+02  0.75759595542E+02  0.85466916221E+02  0.00000000000E+00 0. -1.
         11    1    4    4    0    0  0.11975277153E+02  0.83421663516E+02  0.10507037057E+03  0.13469359294E+03  0.00000000000E+00 0.  1.
</event>
<event>
 8    1  0.3719512E-009  0.1118324E+03  0.7561462E-02  0.1257214E+00
         -4   -1    0    0    0  501 -0.00000000000E+00  0.00000000000E+00  0.14242915271E+03  0.14242915271E+03  0.00000000000E+00 0.  1.
          4   -1    0    0  501    0  0.00000000000E+00 -0.00000000000E+00 -0.11723808874E+03  0.11723808874E+03  0.00000000000E+00 0. -1.
         25    2    1    2    0    0  0.47740317531E+02 -0.58769691889E+01  0.64122772078E+02  0.14857220386E+03  0.12509313801E+03 0.  0.
         23    2    1    2    0    0 -0.47740317531E+02  0.58769691889E+01 -0.38931708104E+02  0.11109503760E+03  0.92264580407E+02 0.  0.
          5    1    3    3  502    0 -0.13936718219E+02  0.42456892483E+02 -0.34545111465E+01  0.45013618842E+02  0.41800000000E+01 0.  1.
         -5    1    3    3    0  502  0.61677035750E+02 -0.48333861671E+02  0.67577283224E+02  0.10355858502E+03  0.41800000000E+01 0.  1.
        -11    1    4    4    0    0 -0.70340384613E+02 -0.12177533892E+02 -0.40593268956E+02  0.82121102791E+02  0.00000000000E+00 0. -1.
         11    1    4    4    0    0  0.22600067082E+02  0.18054503080E+02  0.16615608523E+01  0.28973934804E+02  0.00000000000E+00 0.  1.
</event>
<event>
 8    1  0.3719512E-009  0.2167477E+03  0.7561462E-02  0.1136331E+00
          1   -1    0    0  501    0  0.00000000000E+00  0.00000000000E+00  0.15707066087E+03  0.15707066087E+03  0.00000000000E+00 0. -1.
         -1   -1    0    0    0  501 -0.00000000000E+00 -0.00000000000E+00 -0.33652492908E+03  0.33652492908E+03  0.00000000000E+00 0.  1.
         25    2    1    2    0    0 -0.12300541194E+03  0.15431505862E+03 -0.14000434693E+03  0.27238055100E+03  0.12508588538E+03 0.  0.
         23    2    1    2    0    0  0.12300541194E+03 -0.15431505862E+03 -0.39449921284E+02  0.22121503896E+03  0.91849488219E+02 0.  0.
          5    1    3    3  502    0 -0.47528478134E+02  0.14936797371E+03 -0.81862357177E+02  0.17688602468E+03  0.41800000000E+01 0. -1.
         -5    1    3    3    0  502 -0.75476933807E+02  0.49470849172E+01 -0.58141989750E+02  0.95494526326E+02  0.41800000000E+01 0. -1.
        -11    1    4    4    0    0  0.11591404507E+03 -0.12374020362E+03  0.15775813225E+01  0.16955881753E+03  0.00000000000E+00 0. -1.
         11    1    4    4    0    0  0.70913668689E+01 -0.30574855002E+02 -0.41027502607E+02  0.51656221431E+02  0.00000000000E+00 0.  1.
</event>
<event>
 8    1  0.3719512E-009  0.1869646E+03  0.7561462E-02  0.1161228E+00
         -2   -1    0    0    0  501 -0.00000000000E+00  0.00000000000E+00  0.50451862422E+02  0.50451862422E+02  0.00000000000E+00 0.  1.
          2   -1    0    0  501    0  0.00000000000E+00 -0.00000000000E+00 -0.10644248126E+04  0.10644248126E+04  0.00000000000E+00 0. -1.
         25    2    1    2    0    0  0.23080468467E+01 -0.17521714852E+03 -0.77408700101E+03  0.80347070235E+03  0.12509239858E+03 0.  0.
         23    2    1    2    0    0 -0.23080468467E+01  0.17521714852E+03 -0.23988594921E+03  0.31140597272E+03  0.93391835835E+02 0.  0.
          5    1    3    3  502    0  0.23651918361E+01 -0.29702061034E+02 -0.41369443884E+03  0.41478713540E+03  0.41800000000E+01 0.  1.
         -5    1    3    3    0  502 -0.57144989396E-01 -0.14551508748E+03 -0.36039256217E+03  0.38868356695E+03  0.41800000000E+01 0.  1.
        -11    1    4    4    0    0 -0.40859607974E+02  0.38222740687E+02 -0.60153430035E+02  0.82151814432E+02  0.00000000000E+00 0. -1.
         11    1    4    4    0    0  0.38551561127E+02  0.13699440783E+03 -0.17973251918E+03  0.22925415829E+03  0.00000000000E+00 0.  1.
</event>
<event>
 8    1  0.3719512E-009  0.1257812E+03  0.7561462E-02  0.1233853E+00
          1   -1    0    0  501    0  0.00000000000E+00  0.00000000000E+00  0.41043455508E+02  0.41043455508E+02  0.00000000000E+00 0. -1.
         -1   -1    0    0    0  501 -0.00000000000E+00 -0.00000000000E+00 -0.52752822496E+03  0.52752822496E+03  0.00000000000E+00 0.  1.
         25    2    1    2    0    0  0.34502328252E+02  0.92032413629E+02 -0.28875171260E+03  0.32967746212E+03  0.12509716897E+03 0.  0.
         23    2    1    2    0    0 -0.34502328252E+02 -0.92032413629E+02 -0.19773305685E+03  0.23889421835E+03  0.91168579988E+02 0.  0.
          5    1    3    3  502    0 -0.28926998100E+02  0.77421951205E+02 -0.21932640236E+03  0.23441943801E+03  0.41800000000E+01 0.  1.
         -5    1    3    3    0  502  0.63429326352E+02  0.14610462423E+02 -0.69425310244E+02  0.95258024104E+02  0.41800000000E+01 0.  1.
        -11    1    4    4    0    0 -0.40300043298E+01 -0.57040419995E+02 -0.18059194028E+03  0.18942887674E+03  0.00000000000E+00 0.  1.
         11    1    4    4    0    0 -0.30472323922E+02 -0.34991993633E+02 -0.17141116572E+02  0.49465341614E+02  0.00000000000E+00 0. -1.
</event>
<event>
 8    1  0.3719512E-009  0.1261126E+03  0.7561462E-02  0.1233341E+00
          1   -1    0    0  501    0  0.00000000000E+00  0.00000000000E+00  0.23179001868E+03  0.23179001868E+03  0.00000000000E+00 0. -1.
         -1   -1    0    0    0  501 -0.00000000000E+00 -0.00000000000E+00 -0.94670499270E+02  0.94670499270E+02  0.00000000000E+00 0.  1.
         25    2    1    2    0    0 -0.74467879756E+02 -0.50544907479E+02  0.27938461060E+02  0.15661420080E+03  0.12508875848E+03 0.  0.
         23    2    1    2    0    0  0.74467879756E+02  0.50544907479E+02  0.10918105835E+03  0.16984631715E+03  0.93952196140E+02 0.  0.
          5    1    3    3  502    0 -0.89184949302E+02 -0.57202711890E+02 -0.18168607797E+02  0.10758102128E+03  0.41800000000E+01 0.  1.
         -5    1    3    3    0  502  0.14717069545E+02  0.66578044117E+01  0.46107068856E+02  0.49033179523E+02  0.41800000000E+01 0.  1.
        -11    1    4    4    0    0 -0.15905705473E+02 -0.11720508609E+02  0.22891896836E+02  0.30239059665E+02  0.00000000000E+00 0. -1.
         11    1    4    4    0    0  0.90373585230E+02  0.62265416087E+02  0.86289161515E+02  0.13960725749E+03  0.00000000000E+00 0.  1.
</event>
<event>
 8    1  0.3719512E-009  0.1292376E+03  0.7561462E-02  0.1228591E+00
          1   -1    0    0  501    0  0.00000000000E+00  0.00000000000E+00  0.31584005973E+03  0.31584005973E+03  0.00000000000E+00 0. -1.
         -1   -1    0    0    0  501 -0.00000000000E+00 -0.00000000000E+00 -0.78603740494E+02  0.78603740494E+02  0.00000000000E+00 0.  1.
         25    2    1    2    0    0 -0.49472530527E+02  0.86594121501E+02  0.19680119654E+03  0.25362537271E+03  0.12509614529E+03 0.  0.
         23    2    1    2    0    0  0.49472530527E+02 -0.86594121501E+02  0.40435122693E+02  0.14081842751E+03  0.90822669113E+02 0.  0.
          5    1    3    3  502    0 -0.87397819552E+02  0.58401855067E+02  0.16771817901E+03  0.19797983611E+03  0.41800000000E+01 0.  1.
         -5    1    3    3    0  502  0.37925289025E+02  0.28192266434E+02  0.29083017537E+02  0.55645536599E+02  0.41800000000E+01 0.  1.
        -11    1    4    4    0    0 -0.56313987105E+01 -0.10062699504E+02 -0.23983297143E+02  0.26611447059E+02  0.00000000000E+00 0.  1.
         11    1    4    4    0    0  0.55103929237E+02 -0.76531421998E+02  0.64418419835E+02  0.11420698045E+03  0.00000000000E+00 0. -1.
</event>
<event>
 8    1  0.3719512E-009  0.1860511E+03  0.7561462E-02  0.1162072E+00
          2   -1    0    0  501    0  0.00000000000E+00  0.00000000000E+00  0.72444051664E+03  0.72444051664E+03  0.00000000000E+00 0. -1.
         -2   -1    0    0    0  501 -0.00000000000E+00 -0.00000000000E+00 -0.49886331854E+02  0.49886331854E+02  0.00000000000E+00 0.  1.
         25    2    1    2    0    0 -0.19356122993E+02  0.15492643408E+03  0.33360565567E+03  0.38899381851E+03  0.12508636164E+03 0.  0.
         23    2    1    2    0    0  0.19356122993E+02 -0.15492643408E+03  0.34094852911E+03  0.38533302998E+03  0.88649788600E+02 0.  0.
          5    1    3    3  502    0 -0.47738441276E+02  0.83532951599E+01  0.59639891959E+02  0.76961843978E+02  0.41800000000E+01 0.  1.
         -5    1    3    3    0  502  0.28382318283E+02  0.14657313892E+03  0.27396576372E+03  0.31203197453E+03  0.41800000000E+01 0.  1.
        -11    1    4    4    0    0 -0.15655415423E+00 -0.15458841778E+03  0.32584450683E+03  0.36065530088E+03  0.00000000000E+00 0. -1.
         11    1    4    4    0    0  0.19512677147E+02 -0.33801629647E+00  0.15104022273E+02  0.24677729095E+02  0.00000000000E+00 0.  1.
</event>
<event>
 8    1  0.3719512E-009  0.9243971E+02  0.7561462E-02  0.1297049E+00
         -3   -1    0    0    0  501 -0.00000000000E+00  0.00000000000E+00  0.43683814107E+02  0.43683814107E+02  0.00000000000E+00 0.  1.
          3   -1    0    0  501    0  0.00000000000E+00 -0.00000000000E+00 -0.27811629675E+03  0.27811629675E+03  0.00000000000E+00 0. -1.
         25    2    1    2    0    0  0.31162349410E+02 -0.77237599632E+01 -0.17302583712E+03  0.21590306962E+03  0.12508175995E+03 0.  0.
         23    2    1    2    0    0 -0.31162349410E+02  0.77237599632E+01 -0.61406645526E+02  0.10589704124E+03  0.80079078035E+02 0.  0.
          5    1    3    3  502    0 -0.20742230473E+02  0.43147148679E+02 -0.10833661417E+03  0.11851671162E+03  0.41800000000E+01 0.  1.
         -5    1    3    3    0  502  0.51904579883E+02 -0.50870908642E+02 -0.64689222948E+02  0.97386358000E+02  0.41800000000E+01 0.  1.
        -11    1    4    4    0    0 -0.15257811808E+02 -0.24057251602E+02  0.65299092061E+01  0.29226561380E+02  0.00000000000E+00 0.  1.
         11    1    4    4    0    0 -0.15904537602E+02  0.31781011566E+02 -0.67936554732E+02  0.76670479856E+02  0.00000000000E+00 0. -1.
</event>
<event>
 8    1  0.3719512E-009  0.7142516E+02  0.7561462E-02  0.1355313E+00
         -1   -1    0    0    0  501 -0.00000000000E+00  0.00000000000E+00  0.62514737460E+02  0.62514737460E+02  0.00000000000E+00 0.  1.
          1   -1    0    0  501    0  0.00000000000E+00 -0.00000000000E+00 -0.25946918325E+03  0.25946918325E+03  0.00000000000E+00 0. -1.
         25    2    1    2    0    0  0.19179674281E+02 -0.17549715853E+02 -0.33455953017E+02  0.13207105675E+03  0.12509041053E+03 0.  0.
         23    2    1    2    0    0 -0.19179674281E+02  0.17549715853E+02 -0.16349849278E+03  0.18991286396E+03  0.93055286391E+02 0.  0.
          5    1    3    3  502    0  0.47631809818E+01  0.27950323482E+02 -0.67475481296E+02  0.73309763688E+02  0.41800000000E+01 0.  1.
         -5    1    3    3    0  502  0.14416493299E+02 -0.45500039334E+02  0.34019528279E+02  0.58761293066E+02  0.41800000000E+01 0.  1.
        -11    1    4    4    0    0  0.19640751911E+02 -0.64091253382E+01 -0.51599019436E+00  0.20666452746E+02  0.00000000000E+00 0.  1.
         11    1    4    4    0    0 -0.38820426192E+02  0.23958841191E+02 -0.16298250258E+03  0.16924641121E+03  0.00000000000E+00 0. -1.
</event>
<event>
 8    1  0.3719512E-009  0.1671934E+03  0.7561462E-02  0.1180807E+00
          1   -1    0    0  501    0  0.00000000000E+00  0.00000000000E+00  0.43718821450E+03  0.43718821450E+03  0.00000000000E+00 0. -1.
         -1   -1    0    0    0  501 -0.00000000000E+00 -0.00000000000E+00 -0.66838396345E+02  0.66838396345E+02  0.00000000000E+00 0.  1.
         25    2    1    2    0    0  0.12791242617E+03 -0.92131709106E+00  0.23972018358E+03  0.29912190626E+03  0.12508281576E+03 0.  0.
         23    2    1    2    0    0 -0.12791242617E+03  0.92131709106E+00  0.13062963458E+03  0.20490470458E+03  0.92517019712E+02 0.  0.
          5    1    3    3  502    0  0.10997408176E+03  0.51292042518E+02  0.14224288110E+03  0.18701786521E+03  0.41800000000E+01 0.  1.
         -5    1    3    3    0  502  0.17938344410E+02 -0.52213359609E+02  0.97477302479E+02  0.11210404105E+03  0.41800000000E+01 0.  1.
        -11    1    4    4    0    0 -0.69597737990E+02 -0.45426489080E+02  0.62940279100E+02  0.10425396768E+03  0.00000000000E+00 0. -1.
         11    1    4    4    0    0 -0.58314688180E+02  0.46347806171E+02  0.67689355481E+02  0.10065073691E+03  0.00000000000E+00 0.  1.
</event>
<event>
 8    1  0.3719512E-009  0.1116710E+03  0.7561462E-02  0.1257506E+00
         -1   -1    0    0    0  501 -0.00000000000E+00  0.00000000000E+00  0.62746920406E+02  0.62746920406E+02  0.00000000000E+00 0.  1.
          1   -1    0    0  501    0  0.00000000000E+00 -0.00000000000E+00 -0.36725111189E+03  0.36725111189E+03  0.00000000000E+00 0. -1.
         25    2    1    2    0    0  0.37471840635E+02  0.36728033622E+02 -0.29507214973E+03  0.32475505172E+03  0.12508070504E+03 0.  0.
         23    2    1    2    0    0 -0.37471840635E+02 -0.36728033622E+02 -0.94320417513E+01  0.10524298058E+03  0.90741579528E+02 0.  0.
          5    1    3    3  502    0  0.23446048049E+02  0.76479070200E+02 -0.25166133047E+03  0.26410161492E+03  0.41800000000E+01 0. -1.
         -5    1    3    3    0  502  0.14025792586E+02 -0.39751036579E+02 -0.43410819264E+02  0.60653436802E+02  0.41800000000E+01 0. -1.
        -11    1    4    4    0    0 -0.61044920342E+02 -0.45064953137E+02 -0.19412191408E+02  0.78320913402E+02  0.00000000000E+00 0.  1.
         11    1    4    4    0    0  0.23573079708E+02  0.83369195155E+01  0.99801496568E+01  0.26922067177E+02  0.00000000000E+00 0. -1.
</event>
<event>
 8    1  0.3719512E-009  0.1121099E+03  0.7561462E-02  0.1256712E+00
         -2   -1    0    0    0  501 -0.00000000000E+00  0.00000000000E+00  0.11046981018E+02  0.11046981018E+02  0.00000000000E+00 0.  1.
          2   -1    0    0  501    0  0.00000000000E+00 -0.00000000000E+00 -0.11734814457E+04  0.11734814457E+04  0.00000000000E+00 0. -1.
         25    2    1    2    0    0 -0.64395022471E+01 -0.27390242829E+02 -0.75639390056E+03  0.76718692556E+03  0.12510936559E+03 0.  0.
         23    2    1    2    0    0  0.64395022471E+01  0.27390242829E+02 -0.40604056416E+03  0.41734150119E+03  0.92267525622E+02 0.  0.
          5    1    3    3  502    0  0.27747464071E+02  0.42116241672E+02 -0.30964943245E+03  0.31375777758E+03  0.41800000000E+01 0. -1.
         -5    1    3    3    0  502 -0.34186966318E+02 -0.69506484501E+02 -0.44674446810E+03  0.45342914798E+03  0.41800000000E+01 0. -1.
        -11    1    4    4    0    0 -0.42801647974E+02  0.12084927046E+02 -0.16870946495E+03  0.17447323604E+03  0.00000000000E+00 0.  1.
         11    1    4    4    0    0  0.49241150221E+02  0.15305315783E+02 -0.23733109921E+03  0.24286826515E+03  0.00000000000E+00 0. -1.
</event>
<event>
 8    1  0.3719512E-009  0.7976591E+02  0.7561462E-02  0.1329717E+00
          1   -1    0    0  501    0  0.00000000000E+00  0.00000000000E+00  0.26032936179E+03  0.26032936179E+03  0.00000000000E+00 0. -1.
         -1   -1    0    0    0  501 -0.00000000000E+00 -0.00000000000E+00 -0.65867313490E+02  0.65867313490E+02  0.00000000000E+00 0.  1.
         25    2    1    2    0    0 -0.38842905283E+02  0.52020403463E+02  0.67029034585E+02  0.15606232886E+03  0.12509062852E+03 0.  0.
         23    2    1    2    0    0  0.38842905283E+02 -0.52020403463E+02  0.12743301371E+03  0.17013434642E+03  0.92150036246E+02 0.  0.
          5    1    3    3  502    0  0.71127779387E+01  0.12496868193E+02  0.89902885161E+02  0.91141453164E+02  0.41800000000E+01 0.  1.
         -5    1    3    3    0  502 -0.45955683222E+02  0.39523535271E+02 -0.22873850577E+02  0.64920875694E+02  0.41800000000E+01 0.  1.
        -11    1    4    4    0    0  0.32481740064E+02 -0.63130840603E+02  0.13689798274E+03  0.15421291824E+03  0.00000000000E+00 0. -1.
         11    1    4    4    0    0  0.63611652188E+01  0.11110437139E+02 -0.94649690337E+01  0.15921428176E+02  0.00000000000E+00 0.  1.
</event>
<event>
 8    1  0.3719512E-009  0.1124829E+03  0.7561462E-02  0.1256040E+00
         -2   -1    0    0    0  501 -0.00000000000E+00  0.00000000000E+00  0.10535407032E+03  0.10535407032E+03  0.00000000000E+00 0.  1.
          2   -1    0    0  501    0  0.00000000000E+00 -0.00000000000E+00 -0.19263648958E+03  0.19263648958E+03  0.00000000000E+00 0. -1.
         25    2    1    2    0    0 -0.64284057227E+02 -0.41004465639E+02 -0.10478236520E+03  0.18011221860E+03  0.12508901237E+03 0.  0.
         23    2    1    2    0    0  0.64284057227E+02  0.41004465639E+02  0.17499945945E+02  0.11787834130E+03  0.88177372514E+02 0.  0.
          5    1    3    3  502    0 -0.56759252825E+02  0.35685137173E+02 -0.64203516347E+02  0.92922579105E+02  0.41800000000E+01 0. -1.
         -5    1    3    3    0  502 -0.75248044015E+01 -0.76689602811E+02 -0.40578848856E+02  0.87189639494E+02  0.41800000000E+01 0. -1.
        -11    1    4    4    0    0  0.62450587135E+02  0.29674906451E+02 -0.25254523099E+02  0.73610235996E+02  0.00000000000E+00 0. -1.
         11    1    4    4    0    0  0.18334700918E+01  0.11329559188E+02  0.42754469044E+02  0.44268105304E+02  0.00000000000E+00 0.  1.
</event>
<event>
 8    1  0.3719512E-009  0.1400233E+03  0.7561462E-02  0.1213298E+00
         -2   -1    0    0    0  501 -0.00000000000E+00  0.00000000000E+00  0.69441461327E+02  0.69441461327E+02  0.00000000000E+00 0.  1.
          2   -1    0    0  501    0  0.00000000000E+00 -0.00000000000E+00 -0.38177932310E+03  0.38177932310E+03  0.00000000000E+00 0. -1.
         25    2    1    2    0    0 -0.57172508998E+02 -0.10447501989E+03 -0.14178261402E+03  0.22345955438E+03  0.12509251473E+03 0.  0.
         23    2    1    2    0    0  0.57172508998E+02  0.10447501989E+03 -0.17055524776E+03  0.22776123005E+03  0.92748907309E+02 0.  0.
          5    1    3    3  502    0 -0.24346804539E+02 -0.12059626192E+03 -0.14026059866E+03  0.18661921985E+03  0.41800000000E+01 0. -1.
         -5    1    3    3    0  502 -0.32825704459E+02  0.16121242030E+02 -0.15220153567E+01  0.36840334534E+02  0.41800000000E+01 0. -1.
        -11    1    4    4    0    0  0.11450835779E+02  0.10093008112E+02  0.10499381739E+02  0.18526399264E+02  0.00000000000E+00 0.  1.
         11    1    4    4    0    0  0.45721673219E+02  0.94382011781E+02 -0.18105462950E+03  0.20923483078E+03  0.00000000000E+00 0. -1.
</event>
<event>
 8    1  0.3719512E-009  0.1547768E+03  0.7561462E-02  0.1194723E+00
          3   -1    0    0  501    0  0.00000000000E+00  0.00000000000E+00  0.28458711312E+03  0.28458711312E+03  0.00000000000E+00 0. -1.
         -3   -1    0    0    0  501 -0.00000000000E+00 -0.00000000000E+00 -0.90886207405E+02  0.90886207405E+02  0.00000000000E+00 0.  1.
         25    2    1    2    0    0  0.10801659233E+03 -0.20285237211E+02  0.66461556121E+02  0.17927528121E+03  0.12507363009E+03 0.  0.
         23    2    1    2    0    0 -0.10801659233E+03  0.20285237211E+02  0.12723934960E+03  0.19619803932E+03  0.10111747365E+03 0.  0.
          5    1    3    3  502    0  0.13193349552E+03 -0.15230242103E+01  0.68116525265E+02  0.14854662654E+03  0.41800000000E+01 0.  1.
         -5    1    3    3    0  502 -0.23916903189E+02 -0.18762213001E+02 -0.16549691441E+01  0.30728654668E+02  0.41800000000E+01 0.  1.
        -11    1    4    4    0    0 -0.12297059553E+03  0.16682876237E+01  0.11846284482E+03  0.17075712621E+03  0.00000000000E+00 0. -1.
         11    1    4    4    0    0  0.14954003197E+02  0.18616949587E+02  0.87765047742E+01  0.25440913105E+02  0.00000000000E+00 0.  1.
</event>
<event>
 8    1  0.3719512E-009  0.9067735E+02  0.7561462E-02  0.1301220E+00
          1   -1    0    0  501    0  0.00000000000E+00  0.00000000000E+00  0.34347755490E+02  0.34347755490E+02  0.00000000000E+00 0. -1.
         -1   -1    0    0    0  501 -0.00000000000E+00 -0.00000000000E+00 -0.32405956751E+03  0.32405956751E+03  0.00000000000E+00 0.  1.
         25    2    1    2    0    0  0.11600931094E+01 -0.11306155105E+02 -0.14378566180E+03  0.19092089805E+03  0.12508915946E+03 0.  0.
         23    2    1    2    0    0 -0.11600931094E+01  0.11306155105E+02 -0.14592615022E+03  0.16748642495E+03  0.81413059542E+02 0.  0.
          5    1    3    3  502    0 -0.43065255182E+02 -0.41344173527E+02 -0.11599387035E+03  0.13052205656E+03  0.41800000000E+01 0.  1.
         -5    1    3    3    0  502  0.44225348291E+02  0.30038018422E+02 -0.27791791447E+02  0.60398841496E+02  0.41800000000E+01 0.  1.
        -11    1    4    4    0    0  0.16346084584E+02 -0.23673726772E+02 -0.11222829840E+03  0.11585694101E+03  0.00000000000E+00 0.  1.
         11    1    4    4    0    0 -0.17506177693E+02  0.34979881876E+02 -0.33697851826E+02  0.51629483933E+02  0.00000000000E+00 0. -1.
</event>
<event>
 8    1  0.3719512E-009  0.9244427E+02  0.7561462E-02  0.1297038E+00
          2   -1    0    0  501    0  0.00000000000E+00  0.00000000000E+00  0.14488230322E+03  0.14488230322E+03  0.00000000000E+00 0. -1.
         -2   -1    0    0    0  501 -0.00000000000E+00 -0.00000000000E+00 -0.13579202484E+03  0.13579202484E+03  0.00000000000E+00 0.  1.
         25    2    1    2    0    0 -0.36000789434E+02 -0.77193727323E+02  0.30969715508E+02  0.15447835985E+03  0.12509800960E+03 0.  0.
         23    2    1    2    0    0  0.36000789434E+02  0.77193727323E+02 -0.21879437126E+02  0.12619596821E+03  0.90508476098E+02 0.  0.
          5    1    3    3  502    0 -0.21887366085E+02 -0.18771130172E+02  0.74602227539E+02  0.80089805068E+02  0.41800000000E+01 0.  1.
         -5    1    3    3    0  502 -0.14113423349E+02 -0.58422597151E+02 -0.43632512032E+02  0.74388554783E+02  0.41800000000E+01 0.  1.
        -11    1    4    4    0    0  0.33693454763E+02  0.21949738382E+02 -0.49999716197E+02  0.64163942590E+02  0.00000000000E+00 0.  1.
         11    1    4    4    0    0  0.23073346707E+01  0.55243988941E+02  0.28120279071E+02  0.62032025619E+02  0.00000000000E+00 0. -1.
</event>
<event>
 8    1  0.3719512E-009  0.1205171E+03  0.7561462E-02  0.1242246E+00
         -1   -1    0    0    0  501 -0.00000000000E+00  0.00000000000E+00  0.10647784398E+03  0.10647784398E+03  0.00000000000E+00 0.  1.
          1   -1    0    0  501    0  0.00000000000E+00 -0.00000000000E+00 -0.23621021679E+03  0.23621021679E+03  0.00000000000E+00 0. -1.
         25    2    1    2    0    0 -0.57443168352E+02 -0.16554000838E+02  0.36652139649E+02  0.14340341724E+03  0.12508960069E+03 0.  0.
         23    2    1    2    0    0  0.57443168352E+02  0.16554000838E+02 -0.16638451246E+03  0.19928464353E+03  0.91960919016E+02 0.  0.
          5    1    3    3  502    0 -0.87908532189E+02  0.18783625164E+02  0.34918880865E+02  0.96527380814E+02  0.41800000000E+01 0.  1.
         -5    1    3    3    0  502  0.30465363837E+02 -0.35337626002E+02  0.17332587840E+01  0.46876036428E+02  0.41800000000E+01 0.  1.
        -11    1    4    4    0    0 -0.21797295349E+02  0.11874034988E+02 -0.16890868986E+02  0.30023594830E+02  0.00000000000E+00 0.  1.
         11    1    4    4    0    0  0.79240463701E+02  0.46799658505E+01 -0.14949364347E+03  0.16926104870E+03  0.00000000000E+00 0. -1.
</event>
<event>
 8    1  0.3719512E-009  0.1864594E+03  0.7561462E-02  0.1161694E+00
          1   -1    0    0  501    0  0.00000000000E+00  0.00000000000E+00  0.63195741486E+03  0.63195741486E+03  0.00000000000E+00 0. -1.
         -1   -1    0    0    0  501 -0.00000000000E+00 -0.00000000000E+00 -0.68493876452E+02  0.68493876452E+02  0.00000000000E+00 0.  1.
         25    2    1    2    0    0 -0.79150346298E+02  0.15551500858E+03  0.34360193237E+03  0.40516571506E+03  0.12508906236E+03 0.  0.
         23    2    1    2    0    0  0.79150346298E+02 -0.15551500858E+03  0.21986160604E+03  0.29528557625E+03  0.91677426449E+02 0.  0.
          5    1    3    3  502    0 -0.94223456952E+02  0.11734924173E+03  0.17157846757E+03  0.22826639548E+03  0.41800000000E+01 0.  1.
         -5    1    3    3    0  502  0.15073110654E+02  0.38165766844E+02  0.17202346481E+03  0.17689931958E+03  0.41800000000E+01 0.  1.
        -11    1    4    4    0    0  0.67163780847E+02 -0.15522058343E+03  0.22562915349E+03  0.28198035017E+03  0.00000000000E+00 0. -1.
         11    1    4    4    0    0  0.11986565451E+02 -0.29442514283E+00 -0.57675474486E+01  0.13305226080E+02  0.00000000000E+00 0.  1.
</event>
<event>
 8    1  0.3719512E-009  0.1732773E+03  0.7561462E-02  0.1174473E+00
          1   -1    0    0  501    0  0.00000000000E+00  0.00000000000E+00  0.74581802605E+03  0.74581802605E+03  0.00000000000E+00 0. -1.
         -1   -1    0    0    0  501 -0.00000000000E+00 -0.00000000000E+00 -0.84275954224E+02  0.84275954224E+02  0.00000000000E+00 0.  1.
         25    2    1    2    0    0 -0.15318310602E+03  0.25787778269E+02  0.69544739989E+02  0.21122409309E+03  0.12509625559E+03 0.  0.
         23    2    1    2    0    0  0.15318310602E+03 -0.25787778269E+02  0.59199733184E+03  0.61886988719E+03  0.91700724555E+02 0.  0.
          5    1    3    3  502    0 -0.16767033037E+03  0.27886114836E+02  0.35163065116E+02  0.17362283443E+03  0.41800000000E+01 0. -1.
         -5    1    3    3    0  502  0.14487224349E+02 -0.20983365665E+01  0.34381674873E+02  0.37601258659E+02  0.41800000000E+01 0. -1.
        -11    1    4    4    0    0  0.47503940412E+02  0.12133904517E+02  0.73477814506E+02  0.88333715070E+02  0.00000000000E+00 0.  1.
         11    1    4    4    0    0  0.10567916561E+03 -0.37921682787E+02  0.51851951733E+03  0.53053617211E+03  0.00000000000E+00 0. -1.
</event>
<event>
 8    1  0.3719512E-009  0.1291149E+03  0.7561462E-02  0.1228775E+00
         -1   -1    0    0    0  501 -0.00000000000E+00  0.00000000000E+00  0.12090114287E+03  0.12090114287E+03  0.00000000000E+00 0. -1.
          1   -1    0    0  501    0  0.00000000000E+00 -0.00000000000E+00 -0.20082123700E+03  0.20082123700E+03  0.00000000000E+00 0.  1.
         25    2    1    2    0    0 -0.66071374150E+02  0.31238115663E+02 -0.12889904161E+03  0.19391525883E+03  0.12508764259E+03 0.  0.
         23    2    1    2    0    0  0.66071374150E+02 -0.31238115663E+02  0.48978947476E+02  0.12780712104E+03  0.92706399673E+02 0.  0.
          5    1    3    3  502    0  0.27996478293E+01  0.63986701642E+02 -0.82588076851E+02  0.10459636157E+03  0.41800000000E+01 0.  1.
         -5    1    3    3    0  502 -0.68871021979E+02 -0.32748585979E+02 -0.46310964755E+02  0.89318897265E+02  0.41800000000E+01 0.  1.
        -11    1    4    4    0    0  0.70878168374E+02  0.13941123169E+02  0.25047246755E+02  0.76455439553E+02  0.00000000000E+00 0.  1.
         11    1    4    4    0    0 -0.48067942236E+01 -0.45179238832E+02  0.23931700722E+02  0.51351681487E+02  0.00000000000E+00 0. -1.
</event>
<event>
 8    1  0.3719512E-009  0.1052715E+03  0.7561462E-02  0.1269586E+00
          1   -1    0    0  501    0  0.00000000000E+00  0.00000000000E+00  0.33038682447E+03  0.33038682447E+03  0.00000000000E+00 0. -1.
         -1   -1    0    0    0  501 -0.00000000000E+00 -0.00000000000E+00 -0.39614381211E+02  0.39614381211E+02  0.00000000000E+00 0.  1.
         25    2    1    2    0    0 -0.28129853517E+02  0.11926529552E+02  0.13336509341E+03  0.18538427248E+03  0.12509016579E+03 0.  0.
         23    2    1    2    0    0  0.28129853517E+02 -0.11926529552E+02  0.15740734985E+03  0.18461693320E+03  0.91503046241E+02 0.  0.
          5    1    3    3  502    0  0.43373211969E+02  0.22229629534E+02  0.85875158275E+02  0.98830193536E+02  0.41800000000E+01 0. -1.
         -5    1    3    3    0  502 -0.71503065486E+02 -0.10303099982E+02  0.47489935137E+02  0.86554078947E+02  0.41800000000E+01 0. -1.
        -11    1    4    4    0    0 -0.72686483674E+01  0.32019434807E+02  0.26949301691E+02  0.42477550731E+02  0.00000000000E+00 0.  1.
         11    1    4    4    0    0  0.35398501884E+02 -0.43945964360E+02  0.13045804816E+03  0.14213938247E+03  0.00000000000E+00 0. -1.
</event>
<event>
 8    1  0.3719512E-009  0.1150691E+03  0.7561462E-02  0.1251460E+00
          2   -1    0    0  501    0  0.00000000000E+00  0.00000000000E+00  0.92565495554E+03  0.92565495554E+03  0.00000000000E+00 0. -1.
         -2   -1    0    0    0  501 -0.00000000000E+00 -0.00000000000E+00 -0.14847430879E+02  0.14847430879E+02  0.00000000000E+00 0.  1.
         25    2    1    2    0    0  0.27931420086E+00  0.44773238337E+02  0.48797949460E+03  0.50574253200E+03  0.12508717217E+03 0.  0.
         23    2    1    2    0    0 -0.27931420086E+00 -0.44773238337E+02  0.42282803006E+03  0.43475985441E+03  0.90707591289E+02 0.  0.
          5    1    3    3  502    0 -0.59275088134E+02  0.34476707417E+02  0.31666876193E+03  0.32403511632E+03  0.41800000000E+01 0.  1.
         -5    1    3    3    0  502  0.59554402335E+02  0.10296530920E+02  0.17131073267E+03  0.18170741569E+03  0.41800000000E+01 0.  1.
        -11    1    4    4    0    0 -0.14311781754E+02 -0.70291762001E+02  0.28503305741E+03  0.29392108247E+03  0.00000000000E+00 0.  1.
         11    1    4    4    0    0  0.14032467553E+02  0.25518523664E+02  0.13779497264E+03  0.14083877194E+03  0.00000000000E+00 0. -1.
</event>
<event>
 8    1  0.3719512E-009  0.9320978E+02  0.7561462E-02  0.1295260E+00
         -1   -1    0    0    0  501 -0.00000000000E+00  0.00000000000E+00  0.19920815067E+02  0.19920815067E+02  0.00000000000E+00 0.  1.
          1   -1    0    0  501    0  0.00000000000E+00 -0.00000000000E+00 -0.11288724108E+04  0.11288724108E+04  0.00000000000E+00 0. -1.
         25    2    1    2    0    0 -0.27303244408E+02 -0.12265427305E+02 -0.98575582717E+03  0.99411161350E+03  0.12508973353E+03 0.  0.
         23    2    1    2    0    0  0.27303244408E+02  0.12265427305E+02 -0.12319576860E+03  0.15468161241E+03  0.88618823918E+02 0.  0.
          5    1    3    3  502    0  0.32304579713E+02  0.77338446578E+01 -0.72785464769E+03  0.72862422330E+03  0.41800000000E+01 0. -1.
         -5    1    3    3    0  502 -0.59607824121E+02 -0.19999271962E+02 -0.25790117949E+03  0.26548739020E+03  0.41800000000E+01 0. -1.
        -11    1    4    4    0    0  0.20853816830E+02 -0.35800452946E+02 -0.35908528593E+02  0.54826786640E+02  0.00000000000E+00 0.  1.
         11    1    4    4    0    0  0.64494275774E+01  0.48065880250E+02 -0.87287240009E+02  0.99854825766E+02  0.00000000000E+00 0. -1.
</event>
<event>
 8    1  0.3719512E-009  0.1281979E+03  0.7561462E-02  0.1230155E+00
          2   -1    0    0  501    0  0.00000000000E+00  0.00000000000E+00  0.31224135041E+03  0.31224135041E+03  0.00000000000E+00 0.  1.
         -2   -1    0    0    0  501 -0.00000000000E+00 -0.00000000000E+00 -0.59997494836E+02  0.59997494836E+02  0.00000000000E+00 0. -1.
         25    2    1    2    0    0 -0.22077044274E+02 -0.69667957705E+02  0.83155845017E+02  0.16704254095E+03  0.12508915106E+03 0.  0.
         23    2    1    2    0    0  0.22077044274E+02  0.69667957705E+02  0.16908801056E+03  0.20519630430E+03  0.90408781476E+02 0.  0.
          5    1    3    3  502    0 -0.11955617312E+02 -0.10511969348E+03  0.72891012162E+02  0.12854438454E+03  0.41800000000E+01 0. -1.
         -5    1    3    3    0  502 -0.10121426962E+02  0.35451735777E+02  0.10264832856E+02  0.38498156409E+02  0.41800000000E+01 0. -1.
        -11    1    4    4    0    0 -0.19176423780E+02  0.69562943326E+02  0.84734542856E+02  0.11129546741E+03  0.00000000000E+00 0. -1.
         11    1    4    4    0    0  0.41253468054E+02  0.10501437892E+00  0.84353467703E+02  0.93900836887E+02  0.00000000000E+00 0.  1.
</event>
<event>
 8    1  0.3719512E-009  0.1884342E+03  0.7561462E-02  0.1159881E+00
          2   -1    0    0  501    0  0.00000000000E+00  0.00000000000E+00  0.48903469948E+03  0.48903469948E+03  0.00000000000E+00 0. -1.
         -2   -1    0    0    0  501 -0.00000000000E+00 -0.00000000000E+00 -0.77270987104E+02  0.77270987104E+02  0.00000000000E+00 0.  1.
         25    2    1    2    0    0  0.10771479730E+03 -0.11732871695E+03  0.18410004930E+03  0.27369545192E+03  0.12509143404E+03 0.  0.
         23    2    1    2    0    0 -0.10771479730E+03  0.11732871695E+03  0.22766366308E+03  0.29261023467E+03  0.91768734140E+02 0.  0.
          5    1    3    3  502    0  0.13096614797E+03 -0.73444360810E+02  0.15563423314E+03  0.21630000687E+03  0.41800000000E+01 0.  1.
         -5    1    3    3    0  502 -0.23251350670E+02 -0.43884356145E+02  0.28465816166E+02  0.57395445048E+02  0.41800000000E+01 0.  1.
        -11    1    4    4    0    0 -0.30803954472E+02 -0.60854866253E+01  0.14540063755E+02  0.34602459632E+02  0.00000000000E+00 0.  1.
         11    1    4    4    0    0 -0.76910842831E+02  0.12341420358E+03  0.21312359932E+03  0.25800777503E+03  0.00000000000E+00 0. -1.
</event>
<event>
 8    1  0.3719512E-009  0.1172067E+03  0.7561462E-02  0.1247778E+00
         -2   -1    0    0    0  501 -0.00000000000E+00  0.00000000000E+00  0.67150784094E+02  0.67150784094E+02  0.00000000000E+00 0.  1.
          2   -1    0    0  501    0  0.00000000000E+00 -0.00000000000E+00 -0.50740559337E+03  0.50740559337E+03  0.00000000000E+00 0. -1.
         25    2    1    2    0    0  0.63656284296E+02 -0.77134573066E+02 -0.40867849450E+03  0.43893826831E+03  0.12508727604E+03 0.  0.
         23    2    1    2    0    0 -0.63656284296E+02  0.77134573066E+02 -0.31576314778E+02  0.13561810916E+03  0.85984550842E+02 0.  0.
          5    1    3    3  502    0  0.62987825410E+02 -0.56374501260E+02 -0.10657539264E+03  0.13609311980E+03  0.41800000000E+01 0. -1.
         -5    1    3    3    0  502  0.66845888587E+00 -0.20760071806E+02 -0.30210310186E+03  0.30284514850E+03  0.41800000000E+01 0. -1.
        -11    1    4    4    0    0 -0.19340020855E+02 -0.16227005688E+02  0.54727059953E+01  0.25832201439E+02  0.00000000000E+00 0.  1.
         11    1    4    4    0    0 -0.44316263441E+02  0.93361578754E+02 -0.37049020773E+02  0.10978590772E+03  0.00000000000E+00 0. -1.
</event>
<event>
 8    1  0.3719512E-009  0.1119662E+03  0.7561462E-02  0.1256972E+00
         -2   -1    0    0    0  501 -0.00000000000E+00  0.00000000000E+00  0.23222851418E+02  0.23222851418E+02  0.00000000000E+00 0.  1.
          2   -1    0    0  501    0  0.00000000000E+00 -0.00000000000E+00 -0.72371744826E+03  0.72371744826E+03  0.00000000000E+00 0. -1.
         25    2    1    2    0    0  0.78962771860E+01  0.73466800034E+02 -0.43134548991E+03  0.45515672675E+03  0.12509593253E+03 0.  0.
         23    2    1    2    0    0 -0.78962771860E+01 -0.73466800034E+02 -0.26914910693E+03  0.29178357293E+03  0.85068735562E+02 0.  0.
          5    1    3    3  502    0  0.13767756489E+02 -0.33052794136E+02 -0.14903999721E+03  0.15333763885E+03  0.41800000000E+01 0. -1.
         -5    1    3    3    0  502 -0.58714793028E+01  0.10651959417E+03 -0.28230549270E+03  0.30181908790E+03  0.41800000000E+01 0. -1.
        -11    1    4    4    0    0 -0.19447215494E+02 -0.61443352364E+02 -0.26735652542E+03  0.27501452948E+03  0.00000000000E+00 0. -1.
         11    1    4    4    0    0  0.11550938308E+02 -0.12023447671E+02 -0.17925815061E+01  0.16769043447E+02  0.00000000000E+00 0.  1.
</event>
<event>
 8    1  0.3719512E-009  0.1062086E+03  0.7561462E-02  0.1267757E+00
          2   -1    0    0  501    0  0.00000000000E+00  0.00000000000E+00  0.20896270917E+03  0.20896270917E+03  0.00000000000E+00 0. -1.
         -2   -1    0    0    0  501 -0.00000000000E+00 -0.00000000000E+00 -0.75618025556E+02  0.75618025556E+02  0.00000000000E+00 0.  1.
         25    2    1    2    0    0  0.18494217991E+02 -0.63892520936E+01  0.10132830224E+02  0.12702012031E+03  0.12509427674E+03 0.  0.
         23    2    1    2    0    0 -0.18494217991E+02  0.63892520936E+01  0.12321185340E+03  0.15756061442E+03  0.96235792501E+02 0.  0.
          5    1    3    3  502    0  0.46618446256E+02  0.45442402758E+02 -0.66274416171E+01  0.65571997698E+02  0.41800000000E+01 0. -1.
         -5    1    3    3    0  502 -0.28124228265E+02 -0.51831654852E+02  0.16760271841E+02  0.61448122610E+02  0.41800000000E+01 0. -1.
        -11    1    4    4    0    0  0.39509857707E+01  0.44046721401E+02  0.26955227631E+02  0.51791005506E+02  0.00000000000E+00 0.  1.
         11    1    4    4    0    0 -0.22445203762E+02 -0.37657469307E+02  0.96256625765E+02  0.10576960892E+03  0.00000000000E+00 0. -1.
</event>
<event>
 8    1  0.3719512E-009  0.1576106E+03  0.7561462E-02  0.1191421E+00
         -4   -1    0    0    0  501 -0.00000000000E+00  0.00000000000E+00  0.16808481061E+03  0.16808481061E+03  0.00000000000E+00 0.  1.
          4   -1    0    0  501    0  0.00000000000E+00 -0.00000000000E+00 -0.15272566191E+03  0.15272566191E+03  0.00000000000E+00 0. -1.
         25    2    1    2    0    0 -0.83827530660E+02 -0.83530223152E+02  0.17136608637E+02  0.17304604071E+03  0.12508763238E+03 0.  0.
         23    2    1    2    0    0  0.83827530660E+02  0.83530223152E+02 -0.17774599347E+01  0.14776443181E+03  0.88469287714E+02 0.  0.
          5    1    3    3  502    0 -0.67782662264E+02 -0.11675053753E+03  0.13778891622E+02  0.13576637128E+03  0.41800000000E+01 0. -1.
         -5    1    3    3    0  502 -0.16044868395E+02  0.33220314376E+02  0.33577170152E+01  0.37279669428E+02  0.41800000000E+01 0. -1.
        -11    1    4    4    0    0 -0.16116413385E+02  0.12940799807E+02 -0.13744866400E+02  0.24821853928E+02  0.00000000000E+00 0. -1.
         11    1    4    4    0    0  0.99943944045E+02  0.70589423345E+02  0.11967406466E+02  0.12294257788E+03  0.00000000000E+00 0.  1.
</event>
<event>
 8    1  0.3719512E-009  0.7751786E+02  0.7561462E-02  0.1336247E+00
          1   -1    0    0  501    0  0.00000000000E+00  0.00000000000E+00  0.25822112240E+03  0.25822112240E+03  0.00000000000E+00 0. -1.
         -1   -1    0    0    0  501 -0.00000000000E+00 -0.00000000000E+00 -0.50651299373E+02  0.50651299373E+02  0.00000000000E+00 0.  1.
         25    2    1    2    0    0  0.34559078201E+02  0.11311947731E+02  0.12059457351E+03  0.17751955609E+03  0.12509137295E+03 0.  0.
         23    2    1    2    0    0 -0.34559078201E+02 -0.11311947731E+02  0.86975249509E+02  0.13135286568E+03  0.91469072629E+02 0.  0.
          5    1    3    3  502    0  0.59896953629E+02 -0.18633687931E+02  0.12285476621E+03  0.13800588886E+03  0.41800000000E+01 0. -1.
         -5    1    3    3    0  502 -0.25337875428E+02  0.29945635662E+02 -0.22601927000E+01  0.39513667224E+02  0.41800000000E+01 0. -1.
        -11    1    4    4    0    0 -0.34997280546E+02  0.59090354873E+01  0.10230885326E+03  0.10829047881E+03  0.00000000000E+00 0. -1.
         11    1    4    4    0    0  0.43820234532E+00 -0.17220983218E+02 -0.15333603747E+02  0.23062386871E+02  0.00000000000E+00 0.  1.
</event>
<event>
 8    1  0.3719512E-009  0.8953088E+02  0.7561462E-02  0.1303992E+00
         -1   -1    0    0    0  501 -0.00000000000E+00  0.00000000000E+00  0.57290588055E+02  0.57290588055E+02  0.00000000000E+00 0.  1.
          1   -1    0    0  501    0  0.00000000000E+00 -0.00000000000E+00 -0.24266433458E+03  0.24266433458E+03  0.00000000000E+00 0. -1.
         25    2    1    2    0    0  0.43244204798E+02 -0.10061905167E+02 -0.12069595040E+03  0.17939612757E+03  0.12507659638E+03 0.  0.
         23    2    1    2    0    0 -0.43244204798E+02  0.10061905167E+02 -0.64677796128E+02  0.12055879506E+03  0.91541807777E+02 0.  0.
          5    1    3    3  502    0  0.72197915976E+02 -0.24088805354E+02 -0.12526378547E+03  0.14663320894E+03  0.41800000000E+01 0. -1.
         -5    1    3    3    0  502 -0.28953711178E+02  0.14026900186E+02  0.45678350721E+01  0.32762918629E+02  0.41800000000E+01 0. -1.
        -11    1    4    4    0    0  0.11719227121E+02 -0.59530374300E+01 -0.61859242390E+02  0.63240373244E+02  0.00000000000E+00 0.  1.
         11    1    4    4    0    0 -0.54963431919E+02  0.16014942597E+02 -0.28185537375E+01  0.57318421820E+02  0.00000000000E+00 0. -1.
</event>
<event>
 8    1  0.3719512E-009  0.1908860E+03  0.7561462E-02  0.1157665E+00
         -1   -1    0    0    0  501 -0.00000000000E+00  0.00000000000E+00  0.47411359985E+03  0.47411359985E+03  0.00000000000E+00 0.  1.
          1   -1    0    0  501    0  0.00000000000E+00 -0.00000000000E+00 -0.10749456927E+03  0.10749456927E+03  0.00000000000E+00 0. -1.
         25    2    1    2    0    0  0.15930933517E+03  0.36620426545E+02  0.46488150824E+02  0.21101866669E+03  0.12508880691E+03 0.  0.
         23    2    1    2    0    0 -0.15930933517E+03 -0.36620426545E+02  0.32013087976E+03  0.37058950243E+03  0.90179150715E+02 0.  0.
          5    1    3    3  502    0  0.18445573059E+02 -0.33064352631E+02 -0.16687734102E+02  0.41586577761E+02  0.41800000000E+01 0. -1.
         -5    1    3    3    0  502  0.14086376211E+03  0.69684779176E+02  0.63175884926E+02  0.16943208893E+03  0.41800000000E+01 0. -1.
        -11    1    4    4    0    0 -0.13633168480E+03  0.76951516900E+01  0.24225527788E+03  0.27808840914E+03  0.00000000000E+00 0. -1.
         11    1    4    4    0    0 -0.22977650365E+02 -0.44315578235E+02  0.77875601882E+02  0.92501093286E+02  0.00000000000E+00 0.  1.
</event>
<event>
 8    1  0.3719512E-009  0.9679167E+02  0.7561462E-02  0.1287191E+00
          2   -1    0    0  501    0  0.00000000000E+00  0.00000000000E+00  0.72865216298E+02  0.72865216298E+02  0.00000000000E+00 0. -1.
         -2   -1    0    0    0  501 -0.00000000000E+00 -0.00000000000E+00 -0.21069525983E+03  0.21069525983E+03  0.00000000000E+00 0.  1.
         25    2    1    2    0    0  0.46116658337E+02  0.42886249622E+01 -0.12330945942E+03  0.18165539144E+03  0.12509324513E+03 0.  0.
         23    2    1    2    0    0 -0.46116658337E+02 -0.42886249622E+01 -0.14520584114E+02  0.10190508469E+03  0.89602792606E+02 0.  0.
          5    1    3    3  502    0  0.78653110903E+02  0.23902527757E+02 -0.43345107600E+02  0.93026412598E+02  0.41800000000E+01 0.  1.
         -5    1    3    3    0  502 -0.32536452567E+02 -0.19613902794E+02 -0.79964351821E+02  0.88628978842E+02  0.41800000000E+01 0.  1.
        -11    1    4    4    0    0 -0.59400298736E+02 -0.57987099056E+01  0.21536314917E+02  0.63449455370E+02  0.00000000000E+00 0. -1.
         11    1    4    4    0    0  0.13283640399E+02  0.15100849435E+01 -0.36056899031E+02  0.38455629322E+02  0.00000000000E+00 0.  1.
</event>
<event>
 8    1  0.3719512E-009  0.1052149E+03  0.7561462E-02  0.1269697E+00
          2   -1    0    0  501    0  0.00000000000E+00  0.00000000000E+00  0.12226617300E+04  0.12226617300E+04  0.00000000000E+00 0. -1.
         -2   -1    0    0    0  501 -0.00000000000E+00 -0.00000000000E+00 -0.28568086669E+02  0.28568086669E+02  0.00000000000E+00 0.  1.
         25    2    1    2    0    0 -0.40327575148E+02  0.33192418482E+01  0.11231800424E+04  0.11308486213E+04  0.12509143058E+03 0.  0.
         23    2    1    2    0    0  0.40327575148E+02 -0.33192418482E+01  0.70913600935E+02  0.12038119536E+03  0.88462210656E+02 0.  0.
          5    1    3    3  502    0 -0.32176419359E+02 -0.58085396283E+02  0.69731930882E+03  0.70048620691E+03  0.41800000000E+01 0.  1.
         -5    1    3    3    0  502 -0.81511557886E+01  0.61404638131E+02  0.42586073361E+03  0.43036241443E+03  0.41800000000E+01 0.  1.
        -11    1    4    4    0    0 -0.17413109442E+02 -0.14904355633E+02  0.54685606180E+02  0.59294786622E+02  0.00000000000E+00 0. -1.
         11    1    4    4    0    0  0.57740684590E+02  0.11585113784E+02  0.16227994754E+02  0.61086408734E+02  0.00000000000E+00 0.  1.
</event>
<event>
 8    1  0.3719512E-009  0.1116599E+03  0.7561462E-02  0.1257526E+00
          2   -1    0    0  501    0  0.00000000000E+00  0.00000000000E+00  0.30932124112E+03  0.30932124112E+03  0.00000000000E+00 0. -1.
         -2   -1    0    0    0  501 -0.00000000000E+00 -0.00000000000E+00 -0.46004244110E+02  0.46004244110E+02  0.00000000000E+00 0.  1.
         25    2    1    2    0    0  0.15688724658E+02  0.36346278091E+02  0.19465481263E+03  0.23474281759E+03  0.12508599568E+03 0.  0.
         23    2    1    2    0    0 -0.15688724658E+02 -0.36346278091E+02  0.68662184381E+02  0.12058266765E+03  0.90876268411E+02 0.  0.
          5    1    3    3  502    0  0.63873828749E+02  0.28562529084E+00  0.13735770574E+03  0.15154061933E+03  0.41800000000E+01 0.  1.
         -5    1    3    3    0  502 -0.48185104091E+02  0.36060652800E+02  0.57297106894E+02  0.83202198259E+02  0.41800000000E+01 0.  1.
        -11    1    4    4    0    0  0.32758581692E+02  0.75342216124E+01  0.20258601009E+02  0.39246656987E+02  0.00000000000E+00 0.  1.
         11    1    4    4    0    0 -0.48447306350E+02 -0.43880499703E+02  0.48403583372E+02  0.81336010660E+02  0.00000000000E+00 0. -1.
</event>
<event>
 8    1  0.3719512E-009  0.1529453E+03  0.7561462E-02  0.1196900E+00
         -1   -1    0    0    0  501 -0.00000000000E+00  0.00000000000E+00  0.81670571789E+03  0.81670571789E+03  0.00000000000E+00 0.  1.
          1   -1    0    0  501    0  0.00000000000E+00 -0.00000000000E+00 -0.30739909862E+02  0.30739909862E+02  0.00000000000E+00 0. -1.
         25    2    1    2    0    0  0.76178471748E+02 -0.87904038246E+02  0.36229270395E+03  0.40054181573E+03  0.12508982099E+03 0.  0.
         23    2    1    2    0    0 -0.76178471748E+02  0.87904038246E+02  0.42367310408E+03  0.44690381202E+03  0.81815882209E+02 0.  0.
          5    1    3    3  502    0 -0.23415276836E+02  0.10649616482E+02  0.29101197038E+02  0.39064582291E+02  0.41800000000E+01 0.  1.
         -5    1    3    3    0  502  0.99593748584E+02 -0.98553654727E+02  0.33319150691E+03  0.36147723344E+03  0.41800000000E+01 0.  1.
        -11    1    4    4    0    0 -0.60677572114E+02  0.11580856235E+02  0.14635897754E+03  0.15886105342E+03  0.00000000000E+00 0.  1.
         11    1    4    4    0    0 -0.15500899635E+02  0.76323182011E+02  0.27731412654E+03  0.28804275860E+03  0.00000000000E+00 0. -1.
</event>
<event>
 8    1  0.3719512E-009  0.1913202E+03  0.7561462E-02  0.1157276E+00
          1   -1    0    0  501    0  0.00000000000E+00  0.00000000000E+00  0.67884208602E+02  0.67884208602E+02  0.00000000000E+00 0. -1.
         -1   -1    0    0    0  501 -0.00000000000E+00 -0.00000000000E+00 -0.79161940392E+03  0.79161940392E+03  0.00000000000E+00 0.  1.
         25    2    1    2    0    0 -0.12186589483E+03 -0.11434513877E+03 -0.59830595369E+03  0.63367456080E+03  0.12508927892E+03 0.  0.
         23    2    1    2    0    0  0.12186589483E+03  0.11434513877E+03 -0.12542924162E+03  0.22582905172E+03  0.85674727111E+02 0.  0.
          5    1    3    3  502    0 -0.44405867167E+02 -0.11958839914E+03 -0.42445364347E+03  0.44322864766E+03  0.41800000000E+01 0. -1.
         -5    1    3    3    0  502 -0.77460027658E+02  0.52432603712E+01 -0.17385231022E+03  0.19044591314E+03  0.41800000000E+01 0. -1.
        -11    1    4    4    0    0  0.70761716287E+02  0.26372408141E+02 -0.91375655942E+02  0.11854212290E+03  0.00000000000E+00 0.  1.
         11    1    4    4    0    0  0.51104178538E+02  0.87972730625E+02 -0.34053585683E+02  0.10728692882E+03  0.00000000000E+00 0. -1.
</event>
<event>
 8    1  0.3719512E-009  0.1545737E+03  0.7561462E-02  0.1194963E+00
         -2   -1    0    0    0  501 -0.00000000000E+00  0.00000000000E+00  0.16410299558E+02  0.16410299558E+02  0.00000000000E+00 0. -1.
          2   -1    0    0  501    0  0.00000000000E+00 -0.00000000000E+00 -0.15861353801E+04  0.15861353801E+04  0.00000000000E+00 0.  1.
         25    2    1    2    0    0 -0.11463451899E+03 -0.29478118836E+02 -0.93144562612E+03  0.94723210852E+03  0.12509068933E+03 0.  0.
         23    2    1    2    0    0  0.11463451899E+03  0.29478118836E+02 -0.63827945444E+03  0.65531357115E+03  0.89583380972E+02 0.  0.
          5    1    3    3  502    0 -0.13124524109E+03 -0.52662773025E+02 -0.71378789130E+03  0.72767390165E+03  0.41800000000E+01 0. -1.
         -5    1    3    3    0  502  0.16610722094E+02  0.23184654189E+02 -0.21765773482E+03  0.21955820688E+03  0.41800000000E+01 0. -1.
        -11    1    4    4    0    0  0.21281887422E+01 -0.16986875828E+02 -0.26547934167E+02  0.31589174511E+02  0.00000000000E+00 0. -1.
         11    1    4    4    0    0  0.11250633025E+03  0.46464994664E+02 -0.61173152027E+03  0.62372439664E+03  0.00000000000E+00 0.  1.
</event>
<event>
 8    1  0.3719512E-009  0.2459857E+03  0.7561462E-02  0.1115868E+00
          1   -1    0    0  501    0  0.00000000000E+00  0.00000000000E+00  0.43542485884E+03  0.43542485884E+03  0.00000000000E+00 0. -1.
         -1   -1    0    0    0  501 -0.00000000000E+00 -0.00000000000E+00 -0.16243020663E+03  0.16243020663E+03  0.00000000000E+00 0.  1.
         25    2    1    2    0    0  0.10961082932E+03  0.20802363972E+03  0.20646828974E+03  0.33699307758E+03  0.12508721390E+03 0.  0.
         23    2    1    2    0    0 -0.10961082932E+03 -0.20802363972E+03  0.66526362462E+02  0.26086198789E+03  0.91295406454E+02 0.  0.
          5    1    3    3  502    0  0.10652391775E+03  0.12419478192E+03  0.72814475168E+02  0.17913991488E+03  0.41800000000E+01 0.  1.
         -5    1    3    3    0  502  0.30869115619E+01  0.83828857796E+02  0.13365381457E+03  0.15785316269E+03  0.41800000000E+01 0.  1.
        -11    1    4    4    0    0 -0.94101219018E+02 -0.10866897718E+03  0.68136558781E+01  0.14391112510E+03  0.00000000000E+00 0.  1.
         11    1    4    4    0    0 -0.15509610299E+02 -0.99354662534E+02  0.59712706583E+02  0.11695086279E+03  0.00000000000E+00 0. -1.
</event>
<event>
 8    1  0.3719512E-009  0.2049512E+03  0.7561462E-02  0.1145628E+00
         -1   -1    0    0    0  501 -0.00000000000E+00  0.00000000000E+00  0.80741106189E+02  0.80741106189E+02  0.00000000000E+00 0.  1.
          1   -1    0    0  501    0  0.00000000000E+00 -0.00000000000E+00 -0.60264282331E+03  0.60264282331E+03  0.00000000000E+00 0. -1.
         25    2    1    2    0    0  0.23722503110E+02 -0.18229178878E+03 -0.34819619766E+03  0.41313650218E+03  0.12509246162E+03 0.  0.
         23    2    1    2    0    0 -0.23722503110E+02  0.18229178878E+03 -0.17370551946E+03  0.27024742732E+03  0.95220854197E+02 0.  0.
          5    1    3    3  502    0 -0.34999293582E+02 -0.77900887734E+01 -0.38172757766E+02  0.52538251491E+02  0.41800000000E+01 0.  1.
         -5    1    3    3    0  502  0.58721796691E+02 -0.17450170001E+03 -0.31002343990E+03  0.36059825068E+03  0.41800000000E+01 0.  1.
        -11    1    4    4    0    0 -0.36063582522E+02  0.97534029150E+02 -0.14789064662E+03  0.18079024361E+03  0.00000000000E+00 0.  1.
         11    1    4    4    0    0  0.12341079412E+02  0.84757759629E+02 -0.25814872840E+02  0.89457183715E+02  0.00000000000E+00 0. -1.
</event>
<event>
 8    1  0.3719512E-009  0.8854418E+02  0.7561462E-02  0.1306416E+00
         -1   -1    0    0    0  501 -0.00000000000E+00  0.00000000000E+00  0.13384873643E+02  0.13384873643E+02  0.00000000000E+00 0.  1.
          1   -1    0    0  501    0  0.00000000000E+00 -0.00000000000E+00 -0.10789316767E+04  0.10789316767E+04  0.00000000000E+00 0. -1.
         25    2    1    2    0    0  0.32670827036E+02 -0.37463299533E+01 -0.76968584806E+03  0.78047753318E+03  0.12508979641E+03 0.  0.
         23    2    1    2    0    0 -0.32670827036E+02  0.37463299533E+01 -0.29586095497E+03  0.31183901714E+03  0.92889450456E+02 0.  0.
          5    1    3    3  502    0  0.50584135854E+02 -0.23278366686E+02 -0.73248703621E+03  0.73461239288E+03  0.41800000000E+01 0. -1.
         -5    1    3    3    0  502 -0.17913308818E+02  0.19532036733E+02 -0.37198811852E+02  0.45865140302E+02  0.41800000000E+01 0. -1.
        -11    1    4    4    0    0  0.30239388426E+02  0.82569711081E+01 -0.14453601242E+03  0.14789610229E+03  0.00000000000E+00 0. -1.
         11    1    4    4    0    0 -0.62910215462E+02 -0.45106411548E+01 -0.15132494255E+03  0.16394291485E+03  0.00000000000E+00 0.  1.
</event>
<event>
 8    1  0.3719512E-009  0.1113843E+03  0.7561462E-02  0.1258028E+00
         -2   -1    0    0    0  501 -0.00000000000E+00  0.00000000000E+00  0.11317001096E+03  0.11317001096E+03  0.00000000000E+00 0. -1.
          2   -1    0    0  501    0  0.00000000000E+00 -0.00000000000E+00 -0.19198760104E+03  0.19198760104E+03  0.00000000000E+00 0.  1.
         25    2    1    2    0    0  0.63765404368E+02  0.98331330823E+01  0.36694474172E+02  0.14545052606E+03  0.12508658519E+03 0.  0.
         23    2    1    2    0    0 -0.63765404368E+02 -0.98331330823E+01 -0.11551206425E+03  0.15970708594E+03  0.89446067617E+02 0.  0.
          5    1    3    3  502    0  0.66459218076E+02 -0.44247541171E+02  0.78237035726E-01  0.79950929250E+02  0.41800000000E+01 0. -1.
         -5    1    3    3    0  502 -0.26938137080E+01  0.54080674253E+02  0.36616237136E+02  0.65499596808E+02  0.41800000000E+01 0. -1.
        -11    1    4    4    0    0 -0.38738796737E+02  0.24638687819E+02 -0.11527742746E+02  0.47335485239E+02  0.00000000000E+00 0. -1.
         11    1    4    4    0    0 -0.25026607631E+02 -0.34471820901E+02 -0.10398432150E+03  0.11237160070E+03  0.00000000000E+00 0.  1.
</event>
<event>
 8    1  0.3719512E-009  0.2005733E+03  0.7561462E-02  0.1149256E+00
          4   -1    0    0  501    0  0.00000000000E+00  0.00000000000E+00  0.70250518929E+02  0.70250518929E+02  0.00000000000E+00 0. -1.
         -4   -1    0    0    0  501 -0.00000000000E+00 -0.00000000000E+00 -0.82795955302E+03  0.82795955302E+03  0.00000000000E+00 0.  1.
         25    2    1    2    0    0 -0.18095884461E+02  0.19927982012E+03 -0.53674260440E+03  0.58632762169E+03  0.12509016287E+03 0.  0.
         23    2    1    2    0    0  0.18095884461E+02 -0.19927982012E+03 -0.22096642969E+03  0.31188245025E+03  0.91676561797E+02 0.  0.
          5    1    3    3  502    0  0.78153628665E+00  0.35626647383E+02 -0.27291226230E+03  0.27526068392E+03  0.41800000000E+01 0. -1.
         -5    1    3    3    0  502 -0.18877420748E+02  0.16365317274E+03 -0.26383034210E+03  0.31106693777E+03  0.41800000000E+01 0. -1.
        -11    1    4    4    0    0  0.58781609918E+01 -0.12957329459E+03 -0.75412371856E+02  0.15003605326E+03  0.00000000000E+00 0. -1.
         11    1    4    4    0    0  0.12217723469E+02 -0.69706525530E+02 -0.14555405784E+03  0.16184639700E+03  0.00000000000E+00 0.  1.
</event>
<event>
 8    1  0.3719512E-009  0.1235248E+03  0.7561462E-02  0.1237393E+00
          1   -1    0    0  501    0  0.00000000000E+00  0.00000000000E+00  0.95080128207E+03  0.95080128207E+03  0.00000000000E+00 0. -1.
         -1   -1    0    0    0  501 -0.00000000000E+00 -0.00000000000E+00 -0.22034981923E+02  0.22034981923E+02  0.00000000000E+00 0.  1.
         25    2    1    2    0    0  0.83650171832E+02 -0.47529260382E+02  0.52625074312E+03  0.54940326688E+03  0.12509085973E+03 0.  0.
         23    2    1    2    0    0 -0.83650171832E+02  0.47529260382E+02  0.40251555702E+03  0.42343299710E+03  0.89556393140E+02 0.  0.
          5    1    3    3  502    0 -0.12072682971E+01  0.24343515209E+02  0.22258175560E+02  0.33271053617E+02  0.41800000000E+01 0. -1.
         -5    1    3    3    0  502  0.84857440129E+02 -0.71872775591E+02  0.50399256756E+03  0.51613221327E+03  0.41800000000E+01 0. -1.
        -11    1    4    4    0    0 -0.36515294817E+02 -0.88279122892E+01  0.45830494046E+02  0.59259876607E+02  0.00000000000E+00 0.  1.
         11    1    4    4    0    0 -0.47134877014E+02  0.56357172671E+02  0.35668506298E+03  0.36417312050E+03  0.00000000000E+00 0. -1.
</event>
<event>
 8    1  0.3719512E-009  0.1086455E+03  0.7561462E-02  0.1263099E+00
          1   -1    0    0  501    0  0.00000000000E+00  0.00000000000E+00  0.39472167064E+03  0.39472167064E+03  0.00000000000E+00 0. -1.
         -1   -1    0    0    0  501 -0.00000000000E+00 -0.00000000000E+00 -0.36364009230E+02  0.36364009230E+02  0.00000000000E+00 0.  1.
         25    2    1    2    0    0 -0.15044156729E+02 -0.19293501116E+01  0.11783333271E+03  0.17251993479E+03  0.12509350326E+03 0.  0.
         23    2    1    2    0    0  0.15044156729E+02  0.19293501116E+01  0.24052432870E+03  0.25856574508E+03  0.93670928194E+02 0.  0.
          5    1    3    3  502    0  0.49904522637E+02 -0.21413011949E+02  0.73173711324E+02  0.91218654284E+02  0.41800000000E+01 0. -1.
         -5    1    3    3    0  502 -0.64948679365E+02  0.19483661837E+02  0.44659621390E+02  0.81301280510E+02  0.41800000000E+01 0. -1.
        -11    1    4    4    0    0 -0.79966190640E+01  0.45180968428E+02  0.11549665471E+03  0.12427688069E+03  0.00000000000E+00 0. -1.
         11    1    4    4    0    0  0.23040775793E+02 -0.43251618316E+02  0.12502767399E+03  0.13428886439E+03  0.00000000000E+00 0.  1.
</event>
<event>
 8    1  0.3719512E-009  0.1102912E+03  0.7561462E-02  0.1260032E+00
          1   -1    0    0  501    0  0.00000000000E+00  0.00000000000E+00  0.93197682172E+03  0.93197682172E+03  0.00000000000E+00 0. -1.
         -1   -1    0    0    0  501 -0.00000000000E+00 -0.00000000000E+00 -0.15125209158E+02  0.15125209158E+02  0.00000000000E+00 0.  1.
         25    2    1    2    0    0  0.22439531974E+02  0.25858728234E+02  0.37929494053E+03  0.40085466926E+03  0.12509039746E+03 0.  0.
         23    2    1    2    0    0 -0.22439531974E+02 -0.25858728234E+02  0.53755667203E+03  0.54624736162E+03  0.90811882512E+02 0.  0.
          5    1    3    3  502    0 -0.37517673178E+01 -0.46469930896E+02  0.20528681198E+03  0.21055564065E+03  0.41800000000E+01 0.  1.
         -5    1    3    3    0  502  0.26191299292E+02  0.72328659130E+02  0.17400812855E+03  0.19029902861E+03  0.41800000000E+01 0.  1.
        -11    1    4    4    0    0  0.16758800302E+02 -0.48607000858E+02  0.26363547278E+03  0.26860223460E+03  0.00000000000E+00 0.  1.
         11    1    4    4    0    0 -0.39198332276E+02  0.22748272624E+02  0.27392119925E+03  0.27764512702E+03  0.00000000000E+00 0. -1.
</event>
<event>
 8    1  0.3719512E-009  0.1826708E+03  0.7561462E-02  0.1165243E+00
         -2   -1    0    0    0  501 -0.00000000000E+00  0.00000000000E+00  0.10978154927E+03  0.10978154927E+03  0.00000000000E+00 0.  1.
          2   -1    0    0  501    0  0.00000000000E+00 -0.00000000000E+00 -0.32694298116E+03  0.32694298116E+03  0.00000000000E+00 0. -1.
         25    2    1    2    0    0  0.14647625940E+03  0.22082094717E+02 -0.16460279650E+03  0.25432660016E+03  0.12508007619E+03 0.  0.
         23    2    1    2    0    0 -0.14647625940E+03 -0.22082094717E+02 -0.52558635388E+02  0.18239793027E+03  0.92540160686E+02 0.  0.
          5    1    3    3  502    0  0.81747523100E+02 -0.48251279055E+02 -0.10496941167E+03  0.14158705184E+03  0.41800000000E+01 0. -1.
         -5    1    3    3    0  502  0.64728736296E+02  0.70333373772E+02 -0.59633384830E+02  0.11273954832E+03  0.41800000000E+01 0. -1.
        -11    1    4    4    0    0 -0.25513293607E+02  0.33017398460E+02 -0.13549655734E+02  0.43871060191E+02  0.00000000000E+00 0.  1.
         11    1    4    4    0    0 -0.12096296579E+03 -0.55099493177E+02 -0.39008979654E+02  0.13852687008E+03  0.00000000000E+00 0. -1.
</event>
<event>
 8    1  0.3719512E-009  0.1175089E+03  0.7561462E-02  0.1247264E+00
         -4   -1    0    0    0  501 -0.00000000000E+00  0.00000000000E+00  0.18830932476E+03  0.18830932476E+03  0.00000000000E+00 0.  1.
          4   -1    0    0  501    0  0.00000000000E+00 -0.00000000000E+00 -0.14292660158E+03  0.14292660158E+03  0.00000000000E+00 0. -1.
         25    2    1    2    0    0 -0.36828865762E+02  0.25876967692E+02 -0.86428582934E+02  0.15856571862E+03  0.12508878592E+03 0.  0.
         23    2    1    2    0    0  0.36828865762E+02 -0.25876967692E+02  0.13181130612E+03  0.17267020772E+03  0.10205291472E+03 0.  0.
          5    1    3    3  502    0 -0.44784908945E+02  0.68453253810E+02 -0.29826102073E+02  0.87169976432E+02  0.41800000000E+01 0.  1.
         -5    1    3    3    0  502  0.79560431838E+01 -0.42576286118E+02 -0.56602480861E+02  0.71395742187E+02  0.41800000000E+01 0.  1.
        -11    1    4    4    0    0  0.36720790072E+02  0.33805441041E+02  0.44247953772E+02  0.66701616776E+02  0.00000000000E+00 0. -1.
         11    1    4    4    0    0  0.10807568953E+00 -0.59682408733E+02  0.87563352349E+02  0.10596859095E+03  0.00000000000E+00 0.  1.
</event>
<event>
 8    1  0.3719512E-009  0.1427612E+03  0.7561462E-02  0.1209661E+00
         -1   -1    0    0    0  501 -0.00000000000E+00  0.00000000000E+00  0.21816409970E+02  0.21816409970E+02  0.00000000000E+00 0.  1.
          1   -1    0    0  501    0  0.00000000000E+00 -0.00000000000E+00 -0.11755715300E+04  0.11755715300E+04  0.00000000000E+00 0. -1.
         25    2    1    2    0    0  0.19726270513E+02  0.11379634830E+03 -0.71594944266E+03  0.73591423712E+03  0.12508966910E+03 0.  0.
         23    2    1    2    0    0 -0.19726270513E+02 -0.11379634830E+03 -0.43780567738E+03  0.46147370286E+03  0.89137156401E+02 0.  0.
          5    1    3    3  502    0 -0.34941118618E+02  0.10942167595E+03 -0.46297039217E+03  0.47702519993E+03  0.41800000000E+01 0. -1.
         -5    1    3    3    0  502  0.54667389132E+02  0.43746723489E+01 -0.25297905049E+03  0.25888903719E+03  0.41800000000E+01 0. -1.
        -11    1    4    4    0    0 -0.11824059358E+02 -0.80200066992E+02 -0.40768023212E+03  0.41566215944E+03  0.00000000000E+00 0. -1.
         11    1    4    4    0    0 -0.79022111553E+01 -0.33596281306E+02 -0.30125445256E+02  0.45811543421E+02  0.00000000000E+00 0.  1.
</event>
<event>
 8    1  0.3719512E-009  0.2354440E+03  0.7561462E-02  0.1122866E+00
          1   -1    0    0  501    0  0.00000000000E+00  0.00000000000E+00  0.90575046021E+03  0.90575046021E+03  0.00000000000E+00 0. -1.
         -1   -1    0    0    0  501 -0.00000000000E+00 -0.00000000000E+00 -0.62115965379E+02  0.62115965379E+02  0.00000000000E+00 0.  1.
         25    2    1    2    0    0  0.37385907824E+02  0.20719660076E+03  0.41616653317E+03  0.48287638633E+03  0.12508750408E+03 0.  0.
         23    2    1    2    0    0 -0.37385907824E+02 -0.20719660076E+03  0.42746796166E+03  0.48499003926E+03  0.90323543246E+02 0.  0.
          5    1    3    3  502    0  0.81817777772E+02  0.10807229460E+03  0.24734515286E+03  0.28208308468E+03  0.41800000000E+01 0.  1.
         -5    1    3    3    0  502 -0.44431869947E+02  0.99124306153E+02  0.16882138031E+03  0.20079330165E+03  0.41800000000E+01 0.  1.
        -11    1    4    4    0    0  0.19972515939E+02 -0.12419019351E+02  0.70437022864E+02  0.74259730841E+02  0.00000000000E+00 0.  1.
         11    1    4    4    0    0 -0.57358423763E+02 -0.19477758141E+03  0.35703093880E+03  0.41073030842E+03  0.00000000000E+00 0. -1.
</event>
<event>
 8    1  0.3719512E-009  0.3232954E+03  0.7561462E-02  0.1074143E+00
          2   -1    0    0  501    0  0.00000000000E+00  0.00000000000E+00  0.99248974646E+03  0.99248974646E+03  0.00000000000E+00 0. -1.
         -2   -1    0    0    0  501 -0.00000000000E+00 -0.00000000000E+00 -0.14852297011E+03  0.14852297011E+03  0.00000000000E+00 0.  1.
         25    2    1    2    0    0  0.26716535738E+03 -0.17146050329E+03  0.70749930894E+03  0.78547985473E+03  0.12508915889E+03 0.  0.
         23    2    1    2    0    0 -0.26716535738E+03  0.17146050329E+03  0.13646746741E+03  0.35553286184E+03  0.83691181226E+02 0.  0.
          5    1    3    3  502    0  0.78833038274E+02 -0.98088608694E+02  0.17254740307E+03  0.21360267270E+03  0.41800000000E+01 0. -1.
         -5    1    3    3    0  502  0.18833231911E+03 -0.73371894591E+02  0.53495190587E+03  0.57187718203E+03  0.41800000000E+01 0. -1.
        -11    1    4    4    0    0 -0.74943950154E+02  0.62336146866E+02  0.34143583373E+01  0.97539985204E+02  0.00000000000E+00 0. -1.
         11    1    4    4    0    0 -0.19222140723E+03  0.10912435642E+03  0.13305310908E+03  0.25799287664E+03  0.00000000000E+00 0.  1.
</event>
<event>
 8    1  0.3719512E-009  0.1906290E+03  0.7561462E-02  0.1157895E+00
          1   -1    0    0  501    0  0.00000000000E+00  0.00000000000E+00  0.27357599482E+03  0.27357599482E+03  0.00000000000E+00 0. -1.
         -1   -1    0    0    0  501 -0.00000000000E+00 -0.00000000000E+00 -0.15245030926E+03  0.15245030926E+03  0.00000000000E+00 0.  1.
         25    2    1    2    0    0 -0.16623058759E+03 -0.31306194350E+02  0.27923822064E+02  0.21221929303E+03  0.12507838520E+03 0.  0.
         23    2    1    2    0    0  0.16623058759E+03  0.31306194350E+02  0.93201863496E+02  0.21380701104E+03  0.91728755349E+02 0.  0.
          5    1    3    3  502    0 -0.16835291335E+03 -0.52772925484E+02  0.47532942258E+02  0.18276908409E+03  0.41800000000E+01 0. -1.
         -5    1    3    3    0  502  0.21223257657E+01  0.21466731134E+02 -0.19609120194E+02  0.29450208947E+02  0.41800000000E+01 0. -1.
        -11    1    4    4    0    0  0.10079786466E+03 -0.16004438679E+02  0.18334930327E+02  0.10369436459E+03  0.00000000000E+00 0.  1.
         11    1    4    4    0    0  0.65432722929E+02  0.47310633028E+02  0.74866933170E+02  0.11011264646E+03  0.00000000000E+00 0. -1.
</event>
<event>
 8    1  0.3719512E-009  0.9917476E+02  0.7561462E-02  0.1282041E+00
         -2   -1    0    0    0  501 -0.00000000000E+00  0.00000000000E+00  0.25545565518E+03  0.25545565518E+03  0.00000000000E+00 0.  1.
          2   -1    0    0  501    0  0.00000000000E+00 -0.00000000000E+00 -0.64901832315E+02  0.64901832315E+02  0.00000000000E+00 0. -1.
         25    2    1    2    0    0  0.59316091200E+02  0.61674063770E+00  0.14746545734E+03  0.20226836747E+03  0.12509057649E+03 0.  0.
         23    2    1    2    0    0 -0.59316091200E+02 -0.61674063770E+00  0.43088365527E+02  0.11808912002E+03  0.92572425591E+02 0.  0.
          5    1    3    3  502    0 -0.17356098249E+02  0.65947158862E+01 -0.13831556009E+02  0.23526767005E+02  0.41800000000E+01 0.  1.
         -5    1    3    3    0  502  0.76672189449E+02 -0.59779752485E+01  0.16129701335E+03  0.17874160047E+03  0.41800000000E+01 0.  1.
        -11    1    4    4    0    0  0.16376212531E+02 -0.18312052707E+02  0.30789243058E+02  0.39388946409E+02  0.00000000000E+00 0.  1.
         11    1    4    4    0    0 -0.75692303731E+02  0.17695312069E+02  0.12299122469E+02  0.78700173614E+02  0.00000000000E+00 0. -1.
</event>
<event>
 8    1  0.3719512E-009  0.1275603E+03  0.7561462E-02  0.1231121E+00
         -2   -1    0    0    0  501 -0.00000000000E+00  0.00000000000E+00  0.14405864475E+03  0.14405864475E+03  0.00000000000E+00 0.  1.
          2   -1    0    0  501    0  0.00000000000E+00 -0.00000000000E+00 -0.19369166228E+03  0.19369166228E+03  0.00000000000E+00 0. -1.
         25    2    1    2    0    0 -0.10077266167E+03 -0.49916088597E+02  0.35335232868E+02  0.17187990276E+03  0.12508947618E+03 0.  0.
         23    2    1    2    0    0  0.10077266167E+03  0.49916088597E+02 -0.84968250397E+02  0.16587040427E+03  0.87445081030E+02 0.  0.
          5    1    3    3  502    0 -0.24507582020E+02 -0.18111725943E+02  0.74308788658E+02  0.80423408688E+02  0.41800000000E+01 0.  1.
         -5    1    3    3    0  502 -0.76265079647E+02 -0.31804362654E+02 -0.38973555791E+02  0.91456494074E+02  0.41800000000E+01 0.  1.
        -11    1    4    4    0    0  0.43738799254E+02 -0.22708087464E+02 -0.21194969717E+02  0.53646682449E+02  0.00000000000E+00 0.  1.
         11    1    4    4    0    0  0.57033862413E+02  0.72624176061E+02 -0.63773280680E+02  0.11222372182E+03  0.00000000000E+00 0. -1.
</event>
<event>
 8    1  0.3719512E-009  0.1218256E+03  0.7561462E-02  0.1240115E+00
          2   -1    0    0  501    0  0.00000000000E+00  0.00000000000E+00  0.98730695690E+02  0.98730695690E+02  0.00000000000E+00 0. -1.
         -2   -1    0    0    0  501 -0.00000000000E+00 -0.00000000000E+00 -0.22525025818E+03  0.22525025818E+03  0.00000000000E+00 0.  1.
         25    2    1    2    0    0 -0.10070687339E+03  0.89370799564E+01 -0.90628885682E+02  0.18461434703E+03  0.12508843458E+03 0.  0.
         23    2    1    2    0    0  0.10070687339E+03 -0.89370799564E+01 -0.35890676806E+02  0.13936660683E+03  0.88955970417E+02 0.  0.
          5    1    3    3  502    0 -0.11290362201E+02  0.15100109856E+02  0.29143097971E+02  0.34961094886E+02  0.41800000000E+01 0. -1.
         -5    1    3    3    0  502 -0.89416511188E+02 -0.61630298995E+01 -0.11977198365E+03  0.14965325215E+03  0.41800000000E+01 0. -1.
        -11    1    4    4    0    0 -0.16637180574E+02  0.20163606034E+01 -0.31894886416E+01  0.17059728173E+02  0.00000000000E+00 0. -1.
         11    1    4    4    0    0  0.11734405396E+03 -0.10953440560E+02 -0.32701188164E+02  0.12230687866E+03  0.00000000000E+00 0.  1.
</event>
<event>
 8    1  0.3719512E-009  0.1164735E+03  0.7561462E-02  0.1249031E+00
         -3   -1    0    0    0  501 -0.00000000000E+00  0.00000000000E+00  0.11140172978E+03  0.11140172978E+03  0.00000000000E+00 0.  1.
          3   -1    0    0  501    0  0.00000000000E+00 -0.00000000000E+00 -0.15822401423E+03  0.15822401423E+03  0.00000000000E+00 0. -1.
         25    2    1    2    0    0  0.50899463836E+01  0.75703938859E+02 -0.18510679317E+02  0.14746613050E+03  0.12508645203E+03 0.  0.
         23    2    1    2    0    0 -0.50899463836E+01 -0.75703938859E+02 -0.28311605127E+02  0.12215961352E+03  0.91457259288E+02 0.  0.
          5    1    3    3  502    0 -0.31011626670E+02  0.83289715367E+02 -0.47040876994E+02  0.10064399725E+03  0.41800000000E+01 0. -1.
         -5    1    3    3    0  502  0.36101573054E+02 -0.75857765074E+01  0.28530197676E+02  0.46822133245E+02  0.41800000000E+01 0. -1.
        -11    1    4    4    0    0  0.34666565933E+02 -0.43883794487E+02  0.12018014127E+02  0.57201318829E+02  0.00000000000E+00 0.  1.
         11    1    4    4    0    0 -0.39756512317E+02 -0.31820144372E+02 -0.40329619254E+02  0.64958294687E+02  0.00000000000E+00 0. -1.
</event>
<event>
 8    1  0.3719512E-009  0.2738605E+03  0.7561462E-02  0.1099090E+00
          1   -1    0    0  501    0  0.00000000000E+00  0.00000000000E+00  0.92049118855E+03  0.92049118855E+03  0.00000000000E+00 0. -1.
         -1   -1    0    0    0  501 -0.00000000000E+00 -0.00000000000E+00 -0.87347531829E+02  0.87347531829E+02  0.00000000000E+00 0.  1.
         25    2    1    2    0    0  0.18269344725E+03  0.18652156859E+03  0.46380211545E+03  0.54674235648E+03  0.12509041074E+03 0.  0.
         23    2    1    2    0    0 -0.18269344725E+03 -0.18652156859E+03  0.36934154127E+03  0.46109636389E+03  0.89607429770E+02 0.  0.
          5    1    3    3  502    0  0.12656825016E+03  0.49115666626E+02  0.17044253935E+03  0.21794495240E+03  0.41800000000E+01 0.  1.
         -5    1    3    3    0  502  0.56125197095E+02  0.13740590197E+03  0.29335957610E+03  0.32879740409E+03  0.41800000000E+01 0.  1.
        -11    1    4    4    0    0 -0.13405652462E+03 -0.11339568240E+03  0.30605968589E+03  0.35284878334E+03  0.00000000000E+00 0. -1.
         11    1    4    4    0    0 -0.48636922628E+02 -0.73125886194E+02  0.63281855378E+02  0.10824758055E+03  0.00000000000E+00 0.  1.
</event>
<event>
 8    1  0.3719512E-009  0.1089767E+03  0.7561462E-02  0.1262477E+00
          2   -1    0    0  501    0  0.00000000000E+00  0.00000000000E+00  0.44218333262E+03  0.44218333262E+03  0.00000000000E+00 0. -1.
         -2   -1    0    0    0  501 -0.00000000000E+00 -0.00000000000E+00 -0.28374875105E+02  0.28374875105E+02  0.00000000000E+00 0.  1.
         25    2    1    2    0    0 -0.15849329107E+02  0.21350553465E+02  0.23263654790E+03  0.26547058428E+03  0.12509124801E+03 0.  0.
         23    2    1    2    0    0  0.15849329107E+02 -0.21350553465E+02  0.18117190961E+03  0.20508762345E+03  0.92361383126E+02 0.  0.
          5    1    3    3  502    0 -0.42991993496E+02 -0.40478434397E+02  0.12550866019E+03  0.13876855313E+03  0.41800000000E+01 0. -1.
         -5    1    3    3    0  502  0.27142664390E+02  0.61828987862E+02  0.10712788772E+03  0.12670203115E+03  0.41800000000E+01 0. -1.
        -11    1    4    4    0    0  0.20873308645E+02  0.31623426096E+02  0.10915652543E+03  0.11554602172E+03  0.00000000000E+00 0. -1.
         11    1    4    4    0    0 -0.50239795388E+01 -0.52973979560E+02  0.72015384181E+02  0.89541601725E+02  0.00000000000E+00 0.  1.
</event>
<event>
 8    1  0.3719512E-009  0.3032022E+03  0.7561462E-02  0.1083651E+00
          2   -1    0    0  501    0  0.00000000000E+00  0.00000000000E+00  0.42519698583E+03  0.42519698583E+03  0.00000000000E+00 0. -1.
         -2   -1    0    0    0  501 -0.00000000000E+00 -0.00000000000E+00 -0.27569457673E+03  0.27569457673E+03  0.00000000000E+00 0.  1.
         25    2    1    2    0    0  0.28243436979E+03  0.68332228095E+02 -0.71555209368E+02  0.32435533094E+03  0.12509103121E+03 0.  0.
         23    2    1    2    0    0 -0.28243436979E+03 -0.68332228095E+02  0.22105761847E+03  0.37653623161E+03  0.92057571122E+02 0.  0.
          5    1    3    3  502    0  0.11880018944E+03 -0.14557726919E+02 -0.74150023397E+02  0.14085847789E+03  0.41800000000E+01 0.  1.
         -5    1    3    3    0  502  0.16363418035E+03  0.82889955015E+02  0.25948140292E+01  0.18349685305E+03  0.41800000000E+01 0.  1.
        -11    1    4    4    0    0 -0.22489180503E+03 -0.89226331503E+02  0.15994235277E+03  0.29003313330E+03  0.00000000000E+00 0. -1.
         11    1    4    4    0    0 -0.57542564758E+02  0.20894103407E+02  0.61115265700E+02  0.86503098313E+02  0.00000000000E+00 0.  1.
</event>
<event>
 8    1  0.3719512E-009  0.3614688E+03  0.7561462E-02  0.1058004E+00
          1   -1    0    0  501    0  0.00000000000E+00  0.00000000000E+00  0.24498257007E+04  0.24498257007E+04  0.00000000000E+00 0. -1.
         -1   -1    0    0    0  501 -0.00000000000E+00 -0.00000000000E+00 -0.56614135960E+02  0.56614135960E+02  0.00000000000E+00 0.  1.
         25    2    1    2    0    0 -0.25125021962E+03 -0.24538512641E+03  0.10147372599E+04  0.10810546674E+04  0.12508778602E+03 0.  0.
         23    2    1    2    0    0  0.25125021962E+03  0.24538512641E+03  0.13784743049E+04  0.14253851693E+04  0.90503803517E+02 0.  0.
          5    1    3    3  502    0 -0.10825012602E+03 -0.36439335267E+02  0.23680225701E+03  0.26294238202E+03  0.41800000000E+01 0. -1.
         -5    1    3    3    0  502 -0.14300009359E+03 -0.20894579115E+03  0.77793500289E+03  0.81811228540E+03  0.41800000000E+01 0. -1.
        -11    1    4    4    0    0  0.20880693460E+03  0.17151305436E+03  0.91179116790E+03  0.95098906283E+03  0.00000000000E+00 0.  1.
         11    1    4    4    0    0  0.42443285016E+02  0.73872072052E+02  0.46668313698E+03  0.47439610645E+03  0.00000000000E+00 0. -1.
</event>
<event>
 8    1  0.3719512E-009  0.8041553E+02  0.7561462E-02  0.1327876E+00
         -2   -1    0    0    0  501 -0.00000000000E+00  0.00000000000E+00  0.24566152885E+02  0.24566152885E+02  0.00000000000E+00 0.  1.
          2   -1    0    0  501    0  0.00000000000E+00 -0.00000000000E+00 -0.59218098011E+03  0.59218098011E+03  0.00000000000E+00 0. -1.
         25    2    1    2    0    0  0.17368710952E+02  0.39994890777E+02 -0.39935737409E+03  0.42075667398E+03  0.12509437660E+03 0.  0.
         23    2    1    2    0    0 -0.17368710952E+02 -0.39994890777E+02 -0.16825745314E+03  0.19599045901E+03  0.90556203973E+02 0.  0.
          5    1    3    3  502    0 -0.13007708557E+02  0.63187272344E+01  0.33999751149E+01  0.15432401840E+02  0.41800000000E+01 0.  1.
         -5    1    3    3    0  502  0.30376419509E+02  0.33676163542E+02 -0.40275734920E+03  0.40532427214E+03  0.41800000000E+01 0.  1.
        -11    1    4    4    0    0 -0.88423757896E+01 -0.69223885123E+02 -0.11031822048E+03  0.13053828423E+03  0.00000000000E+00 0.  1.
         11    1    4    4    0    0 -0.85263351621E+01  0.29228994346E+02 -0.57939232661E+02  0.65452174778E+02  0.00000000000E+00 0. -1.
</event>
<event>
 8    1  0.3719512E-009  0.1315070E+03  0.7561462E-02  0.1225237E+00
         -2   -1    0    0    0  501 -0.00000000000E+00  0.00000000000E+00  0.29813444087E+03  0.29813444087E+03  0.00000000000E+00 0.  1.
          2   -1    0    0  501    0  0.00000000000E+00 -0.00000000000E+00 -0.63465407772E+02  0.63465407772E+02  0.00000000000E+00 0. -1.
         25    2    1    2    0    0 -0.22606146057E+02 -0.79316684521E+02  0.15009012587E+03  0.21207675929E+03  0.12508929476E+03 0.  0.
         23    2    1    2    0    0  0.22606146057E+02  0.79316684521E+02  0.84578907226E+02  0.14952308935E+03  0.91659088029E+02 0.  0.
          5    1    3    3  502    0 -0.36262086126E+02  0.18455582950E+02  0.12668851157E+02  0.42819617255E+02  0.41800000000E+01 0. -1.
         -5    1    3    3    0  502  0.13655940069E+02 -0.97772267471E+02  0.13742127471E+03  0.16925714203E+03  0.41800000000E+01 0. -1.
        -11    1    4    4    0    0 -0.18495650297E+02 -0.12758427606E+02  0.15650015101E+02  0.27382284922E+02  0.00000000000E+00 0. -1.
         11    1    4    4    0    0  0.41101796354E+02  0.92075112128E+02  0.68928892126E+02  0.12214080443E+03  0.00000000000E+00 0.  1.
</event>
<event>
 8    1  0.3719512E-009  0.1191409E+03  0.7561462E-02  0.1244521E+00
         -1   -1    0    0    0  501 -0.00000000000E+00  0.00000000000E+00  0.34032655073E+02  0.34032655073E+02  0.00000000000E+00 0.  1.
          1   -1    0    0  501    0  0.00000000000E+00 -0.00000000000E+00 -0.60100490055E+03  0.60100490055E+03  0.00000000000E+00 0. -1.
         25    2    1    2    0    0  0.54558222332E+02 -0.31125011184E+02 -0.46397008770E+03  0.48462389472E+03  0.12508681427E+03 0.  0.
         23    2    1    2    0    0 -0.54558222332E+02  0.31125011184E+02 -0.10300215778E+03  0.15041366091E+03  0.89830167179E+02 0.  0.
          5    1    3    3  502    0  0.16594560580E+02  0.48597700832E+02 -0.17712222496E+03  0.18446373882E+03  0.41800000000E+01 0. -1.
         -5    1    3    3    0  502  0.37963661752E+02 -0.79722712016E+02 -0.28684786275E+03  0.30016015589E+03  0.41800000000E+01 0. -1.
        -11    1    4    4    0    0  0.50169836105E+01 -0.19527777933E+02 -0.55189276451E+02  0.58756790847E+02  0.00000000000E+00 0. -1.
         11    1    4    4    0    0 -0.59575205942E+02  0.50652789116E+02 -0.47812881326E+02  0.91656870059E+02  0.00000000000E+00 0.  1.
</event>
<event>
 8    1  0.3719512E-009  0.1027703E+03  0.7561462E-02  0.1274576E+00
          2   -1    0    0  501    0  0.00000000000E+00  0.00000000000E+00  0.17280973620E+03  0.17280973620E+03  0.00000000000E+00 0. -1.
         -2   -1    0    0    0  501 -0.00000000000E+00 -0.00000000000E+00 -0.69590430473E+02  0.69590430473E+02  0.00000000000E+00 0.  1.
         25    2    1    2    0    0 -0.92568313900E+01 -0.24468600149E+00  0.75213725865E+02  0.14625301558E+03  0.12508833362E+03 0.  0.
         23    2    1    2    0    0  0.92568313900E+01  0.24468600149E+00  0.28005579862E+02  0.96147151098E+02  0.91510728127E+02 0.  0.
          5    1    3    3  502    0  0.39242943081E+01 -0.61751356874E+02  0.42926045533E+02  0.75423788997E+02  0.41800000000E+01 0. -1.
         -5    1    3    3    0  502 -0.13181125698E+02  0.61506670872E+02  0.32287680331E+02  0.70829226578E+02  0.41800000000E+01 0. -1.
        -11    1    4    4    0    0  0.42853047137E+02 -0.12358126957E+02 -0.80039254582E+01  0.45311916463E+02  0.00000000000E+00 0.  1.
         11    1    4    4    0    0 -0.33596215747E+02  0.12602812958E+02  0.36009505321E+02  0.50835234635E+02  0.00000000000E+00 0. -1.
</event>
<event>
 8    1  0.3719512E-009  0.1657209E+03  0.7561462E-02  0.1182385E+00
          2   -1    0    0  501    0  0.00000000000E+00  0.00000000000E+00  0.96636079058E+03  0.96636079058E+03  0.00000000000E+00 0. -1.
         -2   -1    0    0    0  501 -0.00000000000E+00 -0.00000000000E+00 -0.35914893213E+02  0.35914893213E+02  0.00000000000E+00 0.  1.
         25    2    1    2    0    0 -0.10972433805E+03 -0.81471536667E+02  0.32295241623E+03  0.37232077707E+03  0.12508979270E+03 0.  0.
         23    2    1    2    0    0  0.10972433805E+03  0.81471536667E+02  0.60749348113E+03  0.62995490672E+03  0.95487241250E+02 0.  0.
          5    1    3    3  502    0 -0.12610161056E+03 -0.74267174439E+02  0.19921827894E+03  0.24722990201E+03  0.41800000000E+01 0. -1.
         -5    1    3    3    0  502  0.16377272512E+02 -0.72043622280E+01  0.12373413730E+03  0.12509087506E+03  0.41800000000E+01 0. -1.
        -11    1    4    4    0    0 -0.16798208049E+02  0.19625751178E+02  0.10019230010E+03  0.10346906254E+03  0.00000000000E+00 0.  1.
         11    1    4    4    0    0  0.12652254610E+03  0.61845785490E+02  0.50730118103E+03  0.52648584419E+03  0.00000000000E+00 0. -1.
</event>
<event>
 8    1  0.3719512E-009  0.1147635E+03  0.7561462E-02  0.1251995E+00
          2   -1    0    0  501    0  0.00000000000E+00  0.00000000000E+00  0.25613026186E+03  0.25613026186E+03  0.00000000000E+00 0. -1.
         -2   -1    0    0    0  501 -0.00000000000E+00 -0.00000000000E+00 -0.64238501482E+02  0.64238501482E+02  0.00000000000E+00 0.  1.
         25    2    1    2    0    0  0.62044203703E+02  0.10943461283E+02  0.14342839270E+03  0.20047258231E+03  0.12509320473E+03 0.  0.
         23    2    1    2    0    0 -0.62044203703E+02 -0.10943461283E+02  0.48463367682E+02  0.11989618103E+03  0.89761649161E+02 0.  0.
          5    1    3    3  502    0 -0.30643402752E+02 -0.21906382213E+02  0.62294018129E+02  0.72917246304E+02  0.41800000000E+01 0.  1.
         -5    1    3    3    0  502  0.92687606455E+02  0.32849843496E+02  0.81134374567E+02  0.12755533601E+03  0.41800000000E+01 0.  1.
        -11    1    4    4    0    0 -0.62334397696E+02 -0.33416774837E+02  0.49236658184E+01  0.70897817045E+02  0.00000000000E+00 0.  1.
         11    1    4    4    0    0  0.29019399358E+00  0.22473313554E+02  0.43539701863E+02  0.48998363983E+02  0.00000000000E+00 0. -1.
</event>
<event>
 8    1  0.3719512E-009  0.1395016E+03  0.7561462E-02  0.1214001E+00
         -1   -1    0    0    0  501 -0.00000000000E+00  0.00000000000E+00  0.31037843107E+03  0.31037843107E+03  0.00000000000E+00 0.  1.
          1   -1    0    0  501    0  0.00000000000E+00 -0.00000000000E+00 -0.71619175983E+02  0.71619175983E+02  0.00000000000E+00 0. -1.
         25    2    1    2    0    0  0.92625722884E+02 -0.42429550431E+00  0.68979006102E+02  0.17025181530E+03  0.12509145760E+03 0.  0.
         23    2    1    2    0    0 -0.92625722884E+02  0.42429550431E+00  0.16978024898E+03  0.21174579175E+03  0.86204656560E+02 0.  0.
          5    1    3    3  502    0  0.12042949005E+03  0.14867056663E+02  0.65772534693E+02  0.13808616936E+03  0.41800000000E+01 0. -1.
         -5    1    3    3    0  502 -0.27803767169E+02 -0.15291352168E+02  0.32064714092E+01  0.32165645941E+02  0.41800000000E+01 0. -1.
        -11    1    4    4    0    0 -0.46446670266E+02 -0.42187975089E+02  0.97795707538E+02  0.11619431498E+03  0.00000000000E+00 0. -1.
         11    1    4    4    0    0 -0.46179052618E+02  0.42612270593E+02  0.71984541445E+02  0.95551476770E+02  0.00000000000E+00 0.  1.
</event>
<event>
 8    1  0.3719512E-009  0.9510010E+02  0.7561462E-02  0.1290951E+00
         -2   -1    0    0    0  501 -0.00000000000E+00  0.00000000000E+00  0.48372011972E+03  0.48372011972E+03  0.00000000000E+00 0.  1.
          2   -1    0    0  501    0  0.00000000000E+00 -0.00000000000E+00 -0.25147116051E+02  0.25147116051E+02  0.00000000000E+00 0. -1.
         25    2    1    2    0    0 -0.47518650171E+01 -0.19569799893E+02  0.27847763625E+03  0.30594653491E+03  0.12509169055E+03 0.  0.
         23    2    1    2    0    0  0.47518650171E+01  0.19569799893E+02  0.18009536743E+03  0.20292070087E+03  0.91306692975E+02 0.  0.
          5    1    3    3  502    0  0.20290092835E+02 -0.51770243090E+02  0.24970083223E+03  0.25585117540E+03  0.41800000000E+01 0. -1.
         -5    1    3    3    0  502 -0.25041957852E+02  0.32200443198E+02  0.28776804019E+02  0.50095359513E+02  0.41800000000E+01 0. -1.
        -11    1    4    4    0    0  0.48027173027E+02  0.86221379470E+01  0.90194067346E+02  0.10254716181E+03  0.00000000000E+00 0. -1.
         11    1    4    4    0    0 -0.43275308010E+02  0.10947661946E+02  0.89901300082E+02  0.10037353905E+03  0.00000000000E+00 0.  1.
</event>
<event>
 8    1  0.3719512E-009  0.8100275E+02  0.7561462E-02  0.1326230E+00
         -2   -1    0    0    0  501 -0.00000000000E+00  0.00000000000E+00  0.82827440404E+02  0.82827440404E+02  0.00000000000E+00 0.  1.
          2   -1    0    0  501    0  0.00000000000E+00 -0.00000000000E+00 -0.17929957378E+03  0.17929957378E+03  0.00000000000E+00 0. -1.
         25    2    1    2    0    0  0.47126675123E+02  0.19482036873E+02 -0.59347646910E+02  0.14754708571E+03  0.12509007171E+03 0.  0.
         23    2    1    2    0    0 -0.47126675123E+02 -0.19482036873E+02 -0.37124486462E+02  0.11457992847E+03  0.95654896599E+02 0.  0.
          5    1    3    3  502    0  0.44376987000E+02 -0.12288114404E+02  0.28283157285E+02  0.54200775980E+02  0.41800000000E+01 0. -1.
         -5    1    3    3    0  502  0.27496881230E+01  0.31770151277E+02 -0.87630804196E+02  0.93346309734E+02  0.41800000000E+01 0. -1.
        -11    1    4    4    0    0 -0.17535928448E+02  0.24784945528E+02 -0.51181535548E+02  0.59509258880E+02  0.00000000000E+00 0. -1.
         11    1    4    4    0    0 -0.29590746675E+02 -0.44266982401E+02  0.14057049086E+02  0.55070669586E+02  0.00000000000E+00 0.  1.
</event>
<event>
 8    1  0.3719512E-009  0.2511719E+03  0.7561462E-02  0.1112566E+00
         -2   -1    0    0    0  501 -0.00000000000E+00  0.00000000000E+00  0.12932746429E+03  0.12932746429E+03  0.00000000000E+00 0.  1.
          2   -1    0    0  501    0  0.00000000000E+00 -0.00000000000E+00 -0.52575580727E+03  0.52575580727E+03  0.00000000000E+00 0. -1.
         25    2    1    2    0    0 -0.56477248550E+02 -0.23062529207E+03 -0.20472065294E+03  0.33754370954E+03  0.12508998826E+03 0.  0.
         23    2    1    2    0    0  0.56477248550E+02  0.23062529207E+03 -0.19170769004E+03  0.31753956202E+03  0.87760071100E+02 0.  0.
          5    1    3    3  502    0 -0.11775163796E+02 -0.18468226286E+03 -0.89455090079E+02  0.20558666844E+03  0.41800000000E+01 0.  1.
         -5    1    3    3    0  502 -0.44702084754E+02 -0.45943029209E+02 -0.11526556286E+03  0.13195704110E+03  0.41800000000E+01 0.  1.
        -11    1    4    4    0    0  0.80198478516E+02  0.17301660808E+03 -0.13993139943E+03  0.23653189885E+03  0.00000000000E+00 0.  1.
         11    1    4    4    0    0 -0.23721229967E+02  0.57608683992E+02 -0.51776290614E+02  0.81007663169E+02  0.00000000000E+00 0. -1.
</event>
<event>
 8    1  0.3719512E-009  0.1555848E+03  0.7561462E-02  0.1193774E+00
         -1   -1    0    0    0  501 -0.00000000000E+00  0.00000000000E+00  0.36252876290E+03  0.36252876290E+03  0.00000000000E+00 0.  1.
          1   -1    0    0  501    0  0.00000000000E+00 -0.00000000000E+00 -0.82507282016E+02  0.82507282016E+02  0.00000000000E+00 0. -1.
         25    2    1    2    0    0  0.12345497038E+03  0.30709505283E+02  0.20125958310E+03  0.26895542685E+03  0.12508956157E+03 0.  0.
         23    2    1    2    0    0 -0.12345497038E+03 -0.30709505283E+02  0.78761897781E+02  0.17608061807E+03  0.92826419146E+02 0.  0.
          5    1    3    3  502    0  0.10548656543E+01  0.50822958475E+02  0.83630029686E+02  0.97956827812E+02  0.41800000000E+01 0.  1.
         -5    1    3    3    0  502  0.12240010472E+03 -0.20113453191E+02  0.11762955341E+03  0.17099859903E+03  0.41800000000E+01 0.  1.
        -11    1    4    4    0    0 -0.49949072933E+02  0.11546004738E+02 -0.11184866833E+02  0.52472100761E+02  0.00000000000E+00 0. -1.
         11    1    4    4    0    0 -0.73505897443E+02 -0.42255510021E+02  0.89946764613E+02  0.12360851731E+03  0.00000000000E+00 0.  1.
</event>
<event>
 8    1  0.3719512E-009  0.1324345E+03  0.7561462E-02  0.1223887E+00
          3   -1    0    0  501    0  0.00000000000E+00  0.00000000000E+00  0.16920847459E+03  0.16920847459E+03  0.00000000000E+00 0. -1.
         -3   -1    0    0    0  501 -0.00000000000E+00 -0.00000000000E+00 -0.17356760029E+03  0.17356760029E+03  0.00000000000E+00 0.  1.
         25    2    1    2    0    0  0.19966737185E+02  0.10045312778E+03  0.81459240671E+02  0.18102982764E+03  0.12508672643E+03 0.  0.
         23    2    1    2    0    0 -0.19966737185E+02 -0.10045312778E+03 -0.85818366366E+02  0.16174624724E+03  0.91145789887E+02 0.  0.
          5    1    3    3  502    0  0.58233660746E+01 -0.12517976214E+02 -0.22546716404E+02  0.26766362128E+02  0.41800000000E+01 0.  1.
         -5    1    3    3    0  502  0.14143371111E+02  0.11297110400E+03  0.10400595708E+03  0.15426346551E+03  0.41800000000E+01 0.  1.
        -11    1    4    4    0    0  0.26088935525E+02 -0.83428842757E+02 -0.47663678269E+02  0.99563198958E+02  0.00000000000E+00 0. -1.
         11    1    4    4    0    0 -0.46055672710E+02 -0.17024285026E+02 -0.38154688097E+02  0.62183048278E+02  0.00000000000E+00 0.  1.
</event>
<event>
 8    1  0.3719512E-009  0.1310079E+03  0.7561462E-02  0.1225968E+00
         -2   -1    0    0    0  501 -0.00000000000E+00  0.00000000000E+00  0.54064321643E+02  0.54064321643E+02  0.00000000000E+00 0.  1.
          2   -1    0    0  501    0  0.00000000000E+00 -0.00000000000E+00 -0.40551378343E+03  0.40551378343E+03  0.00000000000E+00 0. -1.
         25    2    1    2    0    0  0.98899332162E+02 -0.14402418156E+02 -0.20854869440E+03  0.26292240636E+03  0.12508847380E+03 0.  0.
         23    2    1    2    0    0 -0.98899332162E+02  0.14402418156E+02 -0.14290076739E+03  0.19665569872E+03  0.90908343775E+02 0.  0.
          5    1    3    3  502    0  0.11090950149E+03 -0.44649115824E+01 -0.89125920657E+02  0.14241402701E+03  0.41800000000E+01 0.  1.
         -5    1    3    3    0  502 -0.12010169327E+02 -0.99375065737E+01 -0.11942277374E+03  0.12050837935E+03  0.41800000000E+01 0.  1.
        -11    1    4    4    0    0 -0.28074838936E+02 -0.37605852864E+02 -0.43562315375E+02  0.64031805158E+02  0.00000000000E+00 0.  1.
         11    1    4    4    0    0 -0.70824493226E+02  0.52008271020E+02 -0.99338452017E+02  0.13262389356E+03  0.00000000000E+00 0. -1.
</event>
<event>
 8    1  0.3719512E-009  0.1484014E+03  0.7561462E-02  0.1202451E+00
          4   -1    0    0  501    0  0.00000000000E+00  0.00000000000E+00  0.26378207082E+03  0.26378207082E+03  0.00000000000E+00 0. -1.
         -4   -1    0    0    0  501 -0.00000000000E+00 -0.00000000000E+00 -0.15897395957E+03  0.15897395957E+03  0.00000000000E+00 0.  1.
         25    2    1    2    0    0 -0.10265884625E+03  0.63229339591E+02 -0.73835080586E+02  0.18877168774E+03  0.12508534234E+03 0.  0.
         23    2    1    2    0    0  0.10265884625E+03 -0.63229339591E+02  0.17864319184E+03  0.23398434265E+03  0.91096072997E+02 0.  0.
          5    1    3    3  502    0  0.12255911194E+02  0.57006416234E+02 -0.28126627544E+02  0.64873094794E+02  0.41800000000E+01 0. -1.
         -5    1    3    3    0  502 -0.11491475745E+03  0.62229233566E+01 -0.45708453041E+02  0.12389859295E+03  0.41800000000E+01 0. -1.
        -11    1    4    4    0    0  0.76416286601E+02 -0.33233610213E+02  0.17516732476E+03  0.19397812601E+03  0.00000000000E+00 0. -1.
         11    1    4    4    0    0  0.26242559652E+02 -0.29995729378E+02  0.34758670777E+01  0.40006216641E+02  0.00000000000E+00 0.  1.
</event>
<event>
 8    1  0.3719512E-009  0.8596272E+02  0.7561462E-02  0.1312934E+00
         -1   -1    0    0    0  501 -0.00000000000E+00  0.00000000000E+00  0.97647255100E+02  0.97647255100E+02  0.00000000000E+00 0.  1.
          1   -1    0    0  501    0  0.00000000000E+00 -0.00000000000E+00 -0.95337352310E+03  0.95337352310E+03  0.00000000000E+00 0. -1.
         25    2    1    2    0    0 -0.37333862699E+02 -0.51914107336E+02 -0.91462607431E+03  0.92535251249E+03  0.12509006643E+03 0.  0.
         23    2    1    2    0    0  0.37333862699E+02  0.51914107336E+02  0.58899806312E+02  0.12566826571E+03  0.90743782034E+02 0.  0.
          5    1    3    3  502    0 -0.63872432310E+02 -0.49659658662E+02 -0.31933281808E+03  0.32944907104E+03  0.41800000000E+01 0.  1.
         -5    1    3    3    0  502  0.26538569611E+02 -0.22544486744E+01 -0.59529325624E+03  0.59590344146E+03  0.41800000000E+01 0.  1.
        -11    1    4    4    0    0  0.18747988805E+02  0.25260170575E+02  0.80649206092E+02  0.86567070789E+02  0.00000000000E+00 0.  1.
         11    1    4    4    0    0  0.18585873894E+02  0.26653936761E+02 -0.21749399780E+02  0.39101194919E+02  0.00000000000E+00 0. -1.
</event>
<event>
 8    1  0.3719512E-009  0.6380664E+02  0.7561462E-02  0.1382517E+00
          2   -1    0    0  501    0  0.00000000000E+00  0.00000000000E+00  0.39298109172E+02  0.39298109172E+02  0.00000000000E+00 0. -1.
         -2   -1    0    0    0  501 -0.00000000000E+00 -0.00000000000E+00 -0.38886592347E+03  0.38886592347E+03  0.00000000000E+00 0.  1.
         25    2    1    2    0    0 -0.69357460172E+01 -0.16954133982E+02 -0.29671178599E+03  0.32252154472E+03  0.12508683236E+03 0.  0.
         23    2    1    2    0    0  0.69357460172E+01  0.16954133982E+02 -0.52856028306E+02  0.10564248792E+03  0.89616004677E+02 0.  0.
          5    1    3    3  502    0  0.24421079673E+02 -0.31328854577E+02 -0.21958826286E+02  0.45580135074E+02  0.41800000000E+01 0. -1.
         -5    1    3    3    0  502 -0.31356825690E+02  0.14374720595E+02 -0.27475295970E+03  0.27694140964E+03  0.41800000000E+01 0. -1.
        -11    1    4    4    0    0  0.10936222356E+02  0.33844032763E+02 -0.71691348315E+02  0.80029175532E+02  0.00000000000E+00 0.  1.
         11    1    4    4    0    0 -0.40004763384E+01 -0.16889898781E+02  0.18835320009E+02  0.25613312390E+02  0.00000000000E+00 0. -1.
</event>
<event>
 8    1  0.3719512E-009  0.8587309E+02  0.7561462E-02  0.1313165E+00
         -2   -1    0    0    0  501 -0.00000000000E+00  0.00000000000E+00  0.17817829120E+02  0.17817829120E+02  0.00000000000E+00 0.  1.
          2   -1    0    0  501    0  0.00000000000E+00 -0.00000000000E+00 -0.69413358457E+03  0.69413358457E+03  0.00000000000E+00 0. -1.
         25    2    1    2    0    0  0.28554354398E+01 -0.25813701835E+02 -0.42470640978E+03  0.44350651050E+03  0.12509192472E+03 0.  0.
         23    2    1    2    0    0 -0.28554354398E+01  0.25813701835E+02 -0.25160934567E+03  0.26844490319E+03  0.89893840211E+02 0.  0.
          5    1    3    3  502    0  0.37169206466E+02 -0.37181560567E+02 -0.73742222423E+02  0.90660940450E+02  0.41800000000E+01 0.  1.
         -5    1    3    3    0  502 -0.34313771026E+02  0.11367858732E+02 -0.35096418736E+03  0.35284557005E+03  0.41800000000E+01 0.  1.
        -11    1    4    4    0    0  0.37684365188E+02  0.15778438974E+02 -0.61714714121E+02  0.74012002101E+02  0.00000000000E+00 0.  1.
         11    1    4    4    0    0 -0.40539800628E+02  0.10035262862E+02 -0.18989463155E+03  0.19443290109E+03  0.00000000000E+00 0. -1.
</event>
<event>
 8    1  0.3719512E-009  0.8656065E+02  0.7561462E-02  0.1311401E+00
          2   -1    0    0  501    0  0.00000000000E+00  0.00000000000E+00  0.10510832977E+03  0.10510832977E+03  0.00000000000E+00 0. -1.
         -2   -1    0    0    0  501 -0.00000000000E+00 -0.00000000000E+00 -0.12073554593E+03  0.12073554593E+03  0.00000000000E+00 0.  1.
         25    2    1    2    0    0 -0.28057765298E+02 -0.17238835251E+02 -0.37412424654E+01  0.12940245355E+03  0.12508630003E+03 0.  0.
         23    2    1    2    0    0  0.28057765298E+02  0.17238835251E+02 -0.11885973689E+02  0.96441422142E+02  0.89862427631E+02 0.  0.
          5    1    3    3  502    0  0.13274878333E+02  0.18535347729E+02 -0.51638954653E+02  0.56602434116E+02  0.41800000000E+01 0. -1.
         -5    1    3    3    0  502 -0.41332643632E+02 -0.35774182980E+02  0.47897712187E+02  0.72800019439E+02  0.41800000000E+01 0. -1.
        -11    1    4    4    0    0 -0.29950552924E+02 -0.92531288907E+01 -0.89609886061E+01  0.32602995745E+02  0.00000000000E+00 0.  1.
         11    1    4    4    0    0  0.58008318223E+02  0.26491964142E+02 -0.29249850828E+01  0.63838426397E+02  0.00000000000E+00 0. -1.
</event>
<event>
 8    1  0.3719512E-009  0.1070874E+03  0.7561462E-02  0.1266061E+00
          1   -1    0    0  501    0  0.00000000000E+00  0.00000000000E+00  0.60873228044E+03  0.60873228044E+03  0.00000000000E+00 0. -1.
         -1   -1    0    0    0  501 -0.00000000000E+00 -0.00000000000E+00 -0.50647978485E+02  0.50647978485E+02  0.00000000000E+00 0.  1.
         25    2    1    2    0    0 -0.77107245288E+02  0.36366669063E+02  0.50105100912E+03  0.52341882877E+03  0.12508834745E+03 0.  0.
         23    2    1    2    0    0  0.77107245288E+02 -0.36366669063E+02  0.57033292835E+02  0.13596143016E+03  0.89244899606E+02 0.  0.
          5    1    3    3  502    0 -0.56512310335E+02  0.50198572653E+00  0.46486659891E+03  0.46830793330E+03  0.41800000000E+01 0. -1.
         -5    1    3    3    0  502 -0.20594934953E+02  0.35864683337E+02  0.36184410212E+02  0.55110895465E+02  0.41800000000E+01 0. -1.
        -11    1    4    4    0    0  0.92873459651E+02 -0.37438152479E+02  0.29800313369E+02  0.10447561173E+03  0.00000000000E+00 0.  1.
         11    1    4    4    0    0 -0.15766214363E+02  0.10714834152E+01  0.27232979466E+02  0.31485818437E+02  0.00000000000E+00 0. -1.
</event>
<event>
 8    1  0.3719512E-009  0.1107545E+03  0.7561462E-02  0.1259179E+00
         -1   -1    0    0    0  501 -0.00000000000E+00  0.00000000000E+00  0.24493413185E+03  0.24493413185E+03  0.00000000000E+00 0.  1.
          1   -1    0    0  501    0  0.00000000000E+00 -0.00000000000E+00 -0.52341220279E+02  0.52341220279E+02  0.00000000000E+00 0. -1.
         25    2    1    2    0    0 -0.66167475426E+01  0.24072118655E+02  0.13558529643E+03  0.18615566648E+03  0.12508921340E+03 0.  0.
         23    2    1    2    0    0  0.66167475426E+01 -0.24072118655E+02  0.57007615137E+02  0.11111968565E+03  0.92056874326E+02 0.  0.
          5    1    3    3  502    0 -0.48874926546E+02  0.55751581518E+02  0.72605691631E+02  0.10385593938E+03  0.41800000000E+01 0.  1.
         -5    1    3    3    0  502  0.42258179003E+02 -0.31679462863E+02  0.62979604800E+02  0.82299727100E+02  0.41800000000E+01 0.  1.
        -11    1    4    4    0    0 -0.23304872452E+02  0.26636063213E+02  0.13368900585E+02  0.37832848774E+02  0.00000000000E+00 0. -1.
         11    1    4    4    0    0  0.29921619994E+02 -0.50708181868E+02  0.43638714552E+02  0.73286836876E+02  0.00000000000E+00 0.  1.
</event>
<event>
 8    1  0.3719512E-009  0.1145586E+03  0.7561462E-02  0.1252354E+00
          1   -1    0    0  501    0  0.00000000000E+00  0.00000000000E+00  0.11097996373E+03  0.11097996373E+03  0.00000000000E+00 0. -1.
         -1   -1    0    0    0  501 -0.00000000000E+00 -0.00000000000E+00 -0.16397703090E+03  0.16397703090E+03  0.00000000000E+00 0.  1.
         25    2    1    2    0    0  0.30306298155E+02  0.57099046698E+02  0.18774185729E+02  0.14205389883E+03  0.12509223510E+03 0.  0.
         23    2    1    2    0    0 -0.30306298155E+02 -0.57099046698E+02 -0.71771252905E+02  0.13290309580E+03  0.91287169344E+02 0.  0.
          5    1    3    3  502    0  0.52675899785E+02  0.84736853945E+02  0.30441776229E+02  0.10439951616E+03  0.41800000000E+01 0.  1.
         -5    1    3    3    0  502 -0.22369601629E+02 -0.27637807247E+02 -0.11667590499E+02  0.37654382673E+02  0.41800000000E+01 0.  1.
        -11    1    4    4    0    0 -0.38584988523E+02 -0.29746083562E+01 -0.67722217923E+02  0.77999669452E+02  0.00000000000E+00 0.  1.
         11    1    4    4    0    0  0.82786903677E+01 -0.54124438342E+02 -0.40490349823E+01  0.54903426344E+02  0.00000000000E+00 0. -1.
</event>
<event>
 8    1  0.3719512E-009  0.1283534E+03  0.7561462E-02  0.1229920E+00
          1   -1    0    0  501    0  0.00000000000E+00  0.00000000000E+00  0.12319720503E+04  0.12319720503E+04  0.00000000000E+00 0. -1.
         -1   -1    0    0    0  501 -0.00000000000E+00 -0.00000000000E+00 -0.18704291214E+02  0.18704291214E+02  0.00000000000E+00 0.  1.
         25    2    1    2    0    0  0.84188381770E+02  0.48076651574E+02  0.48019138751E+03  0.50559932285E+03  0.12509140087E+03 0.  0.
         23    2    1    2    0    0 -0.84188381770E+02 -0.48076651574E+02  0.73307637157E+03  0.74507701866E+03  0.91322226938E+02 0.  0.
          5    1    3    3  502    0  0.64658213933E+02  0.70357806374E+02  0.45918195248E+03  0.46903778465E+03  0.41800000000E+01 0.  1.
         -5    1    3    3    0  502  0.19530167838E+02 -0.22281154800E+02  0.21009435035E+02  0.36561538199E+02  0.41800000000E+01 0.  1.
        -11    1    4    4    0    0 -0.10104934012E+03 -0.27874732448E+02  0.63187071857E+03  0.64050649866E+03  0.00000000000E+00 0.  1.
         11    1    4    4    0    0  0.16860958353E+02 -0.20201919126E+02  0.10120565300E+03  0.10457052000E+03  0.00000000000E+00 0. -1.
</event>
<event>
 8    1  0.3719512E-009  0.1090975E+03  0.7561462E-02  0.1262250E+00
          1   -1    0    0  501    0  0.00000000000E+00  0.00000000000E+00  0.54232769137E+03  0.54232769137E+03  0.00000000000E+00 0. -1.
         -1   -1    0    0    0  501 -0.00000000000E+00 -0.00000000000E+00 -0.36709462339E+02  0.36709462339E+02  0.00000000000E+00 0.  1.
         25    2    1    2    0    0  0.80075686607E+02 -0.11632725457E+02  0.19383117846E+03  0.24447104485E+03  0.12509248635E+03 0.  0.
         23    2    1    2    0    0 -0.80075686607E+02  0.11632725457E+02  0.31178705058E+03  0.33456610886E+03  0.90420575121E+02 0.  0.
          5    1    3    3  502    0  0.86036800055E+02  0.13693773254E+02  0.19930695779E+03  0.21755593813E+03  0.41800000000E+01 0. -1.
         -5    1    3    3    0  502 -0.59611134477E+01 -0.25326498711E+02 -0.54757793360E+01  0.26915106722E+02  0.41800000000E+01 0. -1.
        -11    1    4    4    0    0 -0.52490605632E+02 -0.25506795806E+02  0.25360285225E+03  0.26023117988E+03  0.00000000000E+00 0. -1.
         11    1    4    4    0    0 -0.27585080975E+02  0.37139521264E+02  0.58184198326E+02  0.74334928983E+02  0.00000000000E+00 0.  1.
</event>
<event>
 8    1  0.3719512E-009  0.1363333E+03  0.7561462E-02  0.1218350E+00
         -2   -1    0    0    0  501 -0.00000000000E+00  0.00000000000E+00  0.35576419664E+02  0.35576419664E+02  0.00000000000E+00 0.  1.
          2   -1    0    0  501    0  0.00000000000E+00 -0.00000000000E+00 -0.78327278413E+03  0.78327278413E+03  0.00000000000E+00 0. -1.
         25    2    1    2    0    0 -0.41120462725E+02 -0.11524080853E+03 -0.31911186245E+03  0.36393711968E+03  0.12508601010E+03 0.  0.
         23    2    1    2    0    0  0.41120462725E+02  0.11524080853E+03 -0.42858450202E+03  0.45491208411E+03  0.91043904206E+02 0.  0.
          5    1    3    3  502    0  0.10773136928E+02 -0.82074174377E+02 -0.27719609455E+03  0.28932227328E+03  0.41800000000E+01 0.  1.
         -5    1    3    3    0  502 -0.51893599653E+02 -0.33166634152E+02 -0.41915767893E+02  0.74614846405E+02  0.41800000000E+01 0.  1.
        -11    1    4    4    0    0  0.41572871297E+02  0.61045355170E+02 -0.11496994963E+03  0.13664892365E+03  0.00000000000E+00 0.  1.
         11    1    4    4    0    0 -0.45240857135E+00  0.54195453359E+02 -0.31361455239E+03  0.31826316046E+03  0.00000000000E+00 0. -1.
</event>
<event>
 8    1  0.3719512E-009  0.1926549E+03  0.7561462E-02  0.1156088E+00
          2   -1    0    0  501    0  0.00000000000E+00  0.00000000000E+00  0.85894867823E+03  0.85894867823E+03  0.00000000000E+00 0. -1.
         -2   -1    0    0    0  501 -0.00000000000E+00 -0.00000000000E+00 -0.48658922204E+02  0.48658922204E+02  0.00000000000E+00 0.  1.
         25    2    1    2    0    0 -0.15723171814E+02 -0.17143405704E+03  0.38519229741E+03  0.44006441367E+03  0.12508688241E+03 0.  0.
         23    2    1    2    0    0  0.15723171814E+02  0.17143405704E+03  0.42509745861E+03  0.46754318676E+03  0.90840123963E+02 0.  0.
          5    1    3    3  502    0 -0.29510579544E+02 -0.18820708887E+03  0.34014503182E+03  0.38988318466E+03  0.41800000000E+01 0.  1.
         -5    1    3    3    0  502  0.13787407730E+02  0.16773031826E+02  0.45047265593E+02  0.50181229020E+02  0.41800000000E+01 0.  1.
        -11    1    4    4    0    0  0.85106007985E+01  0.34930511069E+02  0.22595819855E+02  0.42463419603E+02  0.00000000000E+00 0.  1.
         11    1    4    4    0    0  0.72125710160E+01  0.13650354597E+03  0.40250163876E+03  0.42507976716E+03  0.00000000000E+00 0. -1.
</event>
<event>
 8    1  0.3719512E-009  0.1324609E+03  0.7561462E-02  0.1223849E+00
          1   -1    0    0  501    0  0.00000000000E+00  0.00000000000E+00  0.34174415850E+03  0.34174415850E+03  0.00000000000E+00 0. -1.
         -1   -1    0    0    0  501 -0.00000000000E+00 -0.00000000000E+00 -0.67657437904E+02  0.67657437904E+02  0.00000000000E+00 0.  1.
         25    2    1    2    0    0 -0.27910121428E+02 -0.81930258560E+02  0.61706923044E+02  0.16414856174E+03  0.12508182851E+03 0.  0.
         23    2    1    2    0    0  0.27910121428E+02  0.81930258560E+02  0.21237979755E+03  0.24525303467E+03  0.86904145240E+02 0.  0.
          5    1    3    3  502    0  0.48727725329E+02 -0.35364232715E+02  0.12005990889E+02  0.61535651361E+02  0.41800000000E+01 0.  1.
         -5    1    3    3    0  502 -0.76637846757E+02 -0.46566025846E+02  0.49700932156E+02  0.10261291038E+03  0.41800000000E+01 0.  1.
        -11    1    4    4    0    0  0.17137946197E+02  0.95751013722E+02  0.13800050397E+03  0.16883751042E+03  0.00000000000E+00 0.  1.
         11    1    4    4    0    0  0.10772175231E+02 -0.13820755161E+02  0.74379293585E+02  0.76415524252E+02  0.00000000000E+00 0. -1.
</event>
<event>
 8    1  0.3719512E-009  0.8561548E+02  0.7561462E-02  0.1313831E+00
          3   -1    0    0  501    0  0.00000000000E+00  0.00000000000E+00  0.54447112198E+02  0.54447112198E+02  0.00000000000E+00 0. -1.
         -3   -1    0    0    0  501 -0.00000000000E+00 -0.00000000000E+00 -0.32037455247E+03  0.32037455247E+03  0.00000000000E+00 0.  1.
         25    2    1    2    0    0  0.54202284437E+02  0.25549142907E+02 -0.21689806526E+03  0.25745558036E+03  0.12509180151E+03 0.  0.
         23    2    1    2    0    0 -0.54202284437E+02 -0.25549142907E+02 -0.49029375015E+02  0.11736608431E+03  0.88205848959E+02 0.  0.
          5    1    3    3  502    0 -0.21137652903E+01  0.25959906301E+02  0.63857431235E+01  0.27141017926E+02  0.41800000000E+01 0. -1.
         -5    1    3    3    0  502  0.56316049727E+02 -0.41076339350E+00 -0.22328380838E+03  0.23031456243E+03  0.41800000000E+01 0. -1.
        -11    1    4    4    0    0 -0.63254061140E+02 -0.37387332944E+02 -0.82376042260E+01  0.73937453559E+02  0.00000000000E+00 0.  1.
         11    1    4    4    0    0  0.90517767037E+01  0.11838190036E+02 -0.40791770789E+02  0.43428630751E+02  0.00000000000E+00 0. -1.
</event>
<event>
 8    1  0.3719512E-009  0.1415331E+03  0.7561462E-02  0.1211281E+00
         -1   -1    0    0    0  501 -0.00000000000E+00  0.00000000000E+00  0.15395143413E+03  0.15395143413E+03  0.00000000000E+00 0.  1.
          1   -1    0    0  501    0  0.00000000000E+00 -0.00000000000E+00 -0.34163910768E+03  0.34163910768E+03  0.00000000000E+00 0. -1.
         25    2    1    2    0    0 -0.69719144702E+02 -0.12071081014E+03 -0.25459965319E+03  0.31606716951E+03  0.12508242647E+03 0.  0.
         23    2    1    2    0    0  0.69719144702E+02  0.12071081014E+03  0.66911979643E+02  0.17952337230E+03  0.91211673361E+02 0.  0.
          5    1    3    3  502    0 -0.31490969944E+02 -0.30054143272E+02 -0.19739658283E+03  0.20218263038E+03  0.41800000000E+01 0.  1.
         -5    1    3    3    0  502 -0.38228174757E+02 -0.90656666872E+02 -0.57203070367E+02  0.11388453913E+03  0.41800000000E+01 0.  1.
        -11    1    4    4    0    0  0.36251415537E+02  0.82194862695E+02  0.86650218984E+02  0.12481354507E+03  0.00000000000E+00 0.  1.
         11    1    4    4    0    0  0.33467729165E+02  0.38515947449E+02 -0.19738239341E+02  0.54709827231E+02  0.00000000000E+00 0. -1.
</event>
<event>
 8    1  0.3719512E-009  0.1435157E+03  0.7561462E-02  0.1208675E+00
          4   -1    0    0  501    0  0.00000000000E+00  0.00000000000E+00  0.34677569620E+03  0.34677569620E+03  0.00000000000E+00 0. -1.
         -4   -1    0    0    0  501 -0.00000000000E+00 -0.00000000000E+00 -0.78833123395E+02  0.78833123395E+02  0.00000000000E+00 0.  1.
         25    2    1    2    0    0 -0.85738525789E+02  0.40709508776E+02  0.24806695190E+03  0.29358678959E+03  0.12509049321E+03 0.  0.
         23    2    1    2    0    0  0.85738525789E+02 -0.40709508776E+02  0.19875620908E+02  0.13202203000E+03  0.89590273969E+02 0.  0.
          5    1    3    3  502    0  0.30302051873E+02  0.25450828167E+02  0.67906976944E+02  0.78706981391E+02  0.41800000000E+01 0.  1.
         -5    1    3    3    0  502 -0.11604057766E+03  0.15258680610E+02  0.18015997495E+03  0.21487980820E+03  0.41800000000E+01 0.  1.
        -11    1    4    4    0    0 -0.17446249577E+02  0.36249412111E+01  0.62938582692E+01  0.18897737299E+02  0.00000000000E+00 0.  1.
         11    1    4    4    0    0  0.10318477537E+03 -0.44334449988E+02  0.13581762639E+02  0.11312429270E+03  0.00000000000E+00 0. -1.
</event>
<event>
 8    1  0.3719512E-009  0.6612797E+02  0.7561462E-02  0.1373778E+00
         -2   -1    0    0    0  501 -0.00000000000E+00  0.00000000000E+00  0.85574592023E+02  0.85574592023E+02  0.00000000000E+00 0.  1.
          2   -1    0    0  501    0  0.00000000000E+00 -0.00000000000E+00 -0.69266270555E+03  0.69266270555E+03  0.00000000000E+00 0. -1.
         25    2    1    2    0    0  0.38700230041E+02 -0.49505201891E+02 -0.64447510335E+03  0.65950214525E+03  0.12508576228E+03 0.  0.
         23    2    1    2    0    0 -0.38700230041E+02  0.49505201891E+02  0.37386989822E+02  0.11873515233E+03  0.93550930358E+02 0.  0.
          5    1    3    3  502    0  0.28138753744E+02 -0.43756110120E+02 -0.84071161127E+02  0.98953621300E+02  0.41800000000E+01 0.  1.
         -5    1    3    3    0  502  0.10561476297E+02 -0.57490917712E+01 -0.56040394222E+03  0.56054852395E+03  0.41800000000E+01 0.  1.
        -11    1    4    4    0    0 -0.37144324386E+02  0.29942203444E+02  0.67580329502E+02  0.82724466252E+02  0.00000000000E+00 0.  1.
         11    1    4    4    0    0 -0.15559056552E+01  0.19562998447E+02 -0.30193339679E+02  0.36010686076E+02  0.00000000000E+00 0. -1.
</event>
<event>
 8    1  0.3719512E-009  0.2780555E+03  0.7561462E-02  0.1096756E+00
          2   -1    0    0  501    0  0.00000000000E+00  0.00000000000E+00  0.18624339018E+04  0.18624339018E+04  0.00000000000E+00 0. -1.
         -2   -1    0    0    0  501 -0.00000000000E+00 -0.00000000000E+00 -0.84030962130E+02  0.84030962130E+02  0.00000000000E+00 0.  1.
         25    2    1    2    0    0  0.23195978348E+03 -0.10955499226E+03  0.15895809949E+04  0.16149994350E+04  0.12509115897E+03 0.  0.
         23    2    1    2    0    0 -0.23195978348E+03  0.10955499226E+03  0.18882194475E+03  0.33146542896E+03  0.91694963292E+02 0.  0.
          5    1    3    3  502    0  0.24603471086E+03 -0.94062300760E+02  0.14392316015E+04  0.14631424642E+04  0.41800000000E+01 0.  1.
         -5    1    3    3    0  502 -0.14074927379E+02 -0.15492691505E+02  0.15034939339E+03  0.15185697075E+03  0.41800000000E+01 0.  1.
        -11    1    4    4    0    0 -0.18642718970E+02 -0.15338315512E+02  0.25944490780E+02  0.35439123792E+02  0.00000000000E+00 0.  1.
         11    1    4    4    0    0 -0.21331706451E+03  0.12489330778E+03  0.16287745397E+03  0.29602630517E+03  0.00000000000E+00 0. -1.
</event>
<event>
 8    1  0.3719512E-009  0.1215614E+03  0.7561462E-02  0.1240543E+00
          2   -1    0    0  501    0  0.00000000000E+00  0.00000000000E+00  0.12608557923E+04  0.12608557923E+04  0.00000000000E+00 0.  1.
         -2   -1    0    0    0  501 -0.00000000000E+00 -0.00000000000E+00 -0.13164003050E+02  0.13164003050E+02  0.00000000000E+00 0. -1.
         25    2    1    2    0    0  0.44949243576E+02 -0.51237091187E+02  0.76053514266E+03  0.77376137986E+03  0.12508915111E+03 0.  0.
         23    2    1    2    0    0 -0.44949243576E+02  0.51237091187E+02  0.48715664658E+03  0.50025841548E+03  0.91056081313E+02 0.  0.
          5    1    3    3  502    0 -0.14340375602E+02 -0.76048294487E+02  0.38143542681E+03  0.38922929835E+03  0.41800000000E+01 0. -1.
         -5    1    3    3    0  502  0.59289619179E+02  0.24811203300E+02  0.37909971585E+03  0.38453208151E+03  0.41800000000E+01 0. -1.
        -11    1    4    4    0    0 -0.60199839177E+02  0.58834568857E+02  0.46363391049E+03  0.47121325330E+03  0.00000000000E+00 0.  1.
         11    1    4    4    0    0  0.15250595600E+02 -0.75974776704E+01  0.23522736089E+02  0.29045162182E+02  0.00000000000E+00 0. -1.
</event>
<event>
 8    1  0.3719512E-009  0.1093765E+03  0.7561462E-02  0.1261729E+00
          4   -1    0    0  501    0  0.00000000000E+00  0.00000000000E+00  0.76955952672E+02  0.76955952672E+02  0.00000000000E+00 0. -1.
         -4   -1    0    0    0  501 -0.00000000000E+00 -0.00000000000E+00 -0.16103186437E+03  0.16103186437E+03  0.00000000000E+00 0.  1.
         25    2    1    2    0    0 -0.30626030743E+01  0.27480752752E+02 -0.40496151810E+02  0.13436031030E+03  0.12509269908E+03 0.  0.
         23    2    1    2    0    0  0.30626030743E+01 -0.27480752752E+02 -0.43579759885E+02  0.10362750674E+03  0.89860410483E+02 0.  0.
          5    1    3    3  502    0 -0.49431307599E+01 -0.49938694354E+02 -0.12282558801E+02  0.51832821515E+02  0.41800000000E+01 0.  1.
         -5    1    3    3    0  502  0.18805276856E+01  0.77419447106E+02 -0.28213593008E+02  0.82527488784E+02  0.41800000000E+01 0.  1.
        -11    1    4    4    0    0 -0.19952393897E+02 -0.52907980598E+02 -0.13795815895E+02  0.58203753911E+02  0.00000000000E+00 0. -1.
         11    1    4    4    0    0  0.23014996971E+02  0.25427227846E+02 -0.29783943990E+02  0.45423752829E+02  0.00000000000E+00 0.  1.
</event>
<event>
 8    1  0.3719512E-009  0.1574886E+03  0.7561462E-02  0.1191562E+00
          2   -1    0    0  501    0  0.00000000000E+00  0.00000000000E+00  0.57739415811E+03  0.57739415811E+03  0.00000000000E+00 0.  1.
         -2   -1    0    0    0  501 -0.00000000000E+00 -0.00000000000E+00 -0.61533208758E+02  0.61533208758E+02  0.00000000000E+00 0. -1.
         25    2    1    2    0    0 -0.12688311012E+03  0.77140136454E+02  0.19779212870E+03  0.27716132907E+03  0.12508697723E+03 0.  0.
         23    2    1    2    0    0  0.12688311012E+03 -0.77140136454E+02  0.31806882065E+03  0.36176603779E+03  0.87504097866E+02 0.  0.
          5    1    3    3  502    0 -0.96399942789E+01  0.37043267756E+02  0.13057071270E+03  0.13612977849E+03  0.41800000000E+01 0. -1.
         -5    1    3    3    0  502 -0.11724311584E+03  0.40096868699E+02  0.67221415996E+02  0.14103155059E+03  0.41800000000E+01 0. -1.
        -11    1    4    4    0    0  0.10736087044E+03 -0.48443198803E+02  0.30071999283E+03  0.32296379688E+03  0.00000000000E+00 0.  1.
         11    1    4    4    0    0  0.19522239679E+02 -0.28696937651E+02  0.17348827826E+02  0.38802240909E+02  0.00000000000E+00 0. -1.
</event>
<event>
 8    1  0.3719512E-009  0.1124464E+03  0.7561462E-02  0.1256106E+00
         -2   -1    0    0    0  501 -0.00000000000E+00  0.00000000000E+00  0.10422370219E+03  0.10422370219E+03  0.00000000000E+00 0.  1.
          2   -1    0    0  501    0  0.00000000000E+00 -0.00000000000E+00 -0.14352105279E+03  0.14352105279E+03  0.00000000000E+00 0. -1.
         25    2    1    2    0    0 -0.29846967444E+02  0.39549006078E+02  0.34781559981E+01  0.13459869662E+03  0.12509894570E+03 0.  0.
         23    2    1    2    0    0  0.29846967444E+02 -0.39549006078E+02 -0.42775506595E+02  0.11314605836E+03  0.92289334218E+02 0.  0.
          5    1    3    3  502    0 -0.24813841951E+02 -0.38837241764E+02 -0.22902636851E+02  0.51633915936E+02  0.41800000000E+01 0. -1.
         -5    1    3    3    0  502 -0.50331254928E+01  0.78386247842E+02  0.26380792849E+02  0.82964780686E+02  0.41800000000E+01 0. -1.
        -11    1    4    4    0    0  0.48725833563E+02  0.74649898576E+01 -0.42080301201E+01  0.49473633862E+02  0.00000000000E+00 0.  1.
         11    1    4    4    0    0 -0.18878866119E+02 -0.47013995935E+02 -0.38567476475E+02  0.63672424498E+02  0.00000000000E+00 0. -1.
</event>
<event>
 8    1  0.3719512E-009  0.1045686E+03  0.7561462E-02  0.1270972E+00
         -1   -1    0    0    0  501 -0.00000000000E+00  0.00000000000E+00  0.10452587882E+03  0.10452587882E+03  0.00000000000E+00 0.  1.
          1   -1    0    0  501    0  0.00000000000E+00 -0.00000000000E+00 -0.14466548357E+03  0.14466548357E+03  0.00000000000E+00 0. -1.
         25    2    1    2    0    0 -0.12773479267E+02 -0.23371036148E+02 -0.72989583993E+02  0.14725834888E+03  0.12509266502E+03 0.  0.
         23    2    1    2    0    0  0.12773479267E+02  0.23371036148E+02  0.32849979236E+02  0.10193301351E+03  0.92746164359E+02 0.  0.
          5    1    3    3  502    0 -0.35341552765E+01  0.44709610093E+02 -0.63385031936E+02  0.77759720690E+02  0.41800000000E+01 0. -1.
         -5    1    3    3    0  502 -0.92393239904E+01 -0.68080646241E+02 -0.96045520562E+01  0.69498628193E+02  0.41800000000E+01 0. -1.
        -11    1    4    4    0    0 -0.39664198006E+02  0.66141035744E+01  0.59074072435E+01  0.40643479549E+02  0.00000000000E+00 0.  1.
         11    1    4    4    0    0  0.52437677273E+02  0.16756932574E+02  0.26942571993E+02  0.61289533957E+02  0.00000000000E+00 0. -1.
</event>
<event>
 8    1  0.3719512E-009  0.9944275E+02  0.7561462E-02  0.1281472E+00
          1   -1    0    0  501    0  0.00000000000E+00  0.00000000000E+00  0.22445084471E+03  0.22445084471E+03  0.00000000000E+00 0. -1.
         -1   -1    0    0    0  501 -0.00000000000E+00 -0.00000000000E+00 -0.56920098195E+02  0.56920098195E+02  0.00000000000E+00 0.  1.
         25    2    1    2    0    0  0.26535053861E+02  0.17185407779E+02  0.10120082993E+03  0.16397604255E+03  0.12508831771E+03 0.  0.
         23    2    1    2    0    0 -0.26535053861E+02 -0.17185407779E+02  0.66329916586E+02  0.11739490036E+03  0.91555761545E+02 0.  0.
          5    1    3    3  502    0  0.32344796324E+02  0.68464839840E+02  0.48061403945E+02  0.89783022297E+02  0.41800000000E+01 0. -1.
         -5    1    3    3    0  502 -0.58097424633E+01 -0.51279432061E+02  0.53139425987E+02  0.74193020252E+02  0.41800000000E+01 0. -1.
        -11    1    4    4    0    0 -0.44615906912E+02 -0.25481453141E+02  0.35090262718E+01  0.51499484164E+02  0.00000000000E+00 0.  1.
         11    1    4    4    0    0  0.18080853051E+02  0.82960453616E+01  0.62820890314E+02  0.65895416196E+02  0.00000000000E+00 0. -1.
</event>
<event>
 8    1  0.3719512E-009  0.9164251E+02  0.7561462E-02  0.1298922E+00
         -1   -1    0    0    0  501 -0.00000000000E+00  0.00000000000E+00  0.19527862497E+03  0.19527862497E+03  0.00000000000E+00 0. -1.
          1   -1    0    0  501    0  0.00000000000E+00 -0.00000000000E+00 -0.72323520253E+02  0.72323520253E+02  0.00000000000E+00 0.  1.
         25    2    1    2    0    0 -0.43965474518E+02 -0.95667841318E+01  0.76803703651E+02  0.15352693327E+03  0.12508886456E+03 0.  0.
         23    2    1    2    0    0  0.43965474518E+02  0.95667841318E+01  0.46151401067E+02  0.11407521195E+03  0.94120751450E+02 0.  0.
          5    1    3    3  502    0  0.88891471518E+01 -0.56091512299E+02  0.56280002659E+02  0.80063635868E+02  0.41800000000E+01 0. -1.
         -5    1    3    3    0  502 -0.52854621670E+02  0.46524728167E+02  0.20523700992E+02  0.73463297403E+02  0.41800000000E+01 0. -1.
        -11    1    4    4    0    0  0.18513772531E+02 -0.12316075000E+02 -0.26171831182E+02  0.34342542483E+02  0.00000000000E+00 0.  1.
         11    1    4    4    0    0  0.25451701988E+02  0.21882859132E+02  0.72323232250E+02  0.79732669471E+02  0.00000000000E+00 0. -1.
</event>
<event>
 8    1  0.3719512E-009  0.1031951E+03  0.7561462E-02  0.1273717E+00
         -1   -1    0    0    0  501 -0.00000000000E+00  0.00000000000E+00  0.54105890952E+02  0.54105890952E+02  0.00000000000E+00 0.  1.
          1   -1    0    0  501    0  0.00000000000E+00 -0.00000000000E+00 -0.30784940394E+03  0.30784940394E+03  0.00000000000E+00 0. -1.
         25    2    1    2    0    0  0.57279020820E+02  0.33814115468E+02 -0.10938635337E+03  0.17899094028E+03  0.12509237294E+03 0.  0.
         23    2    1    2    0    0 -0.57279020820E+02 -0.33814115468E+02 -0.14435715962E+03  0.18296435461E+03  0.90623864936E+02 0.  0.
          5    1    3    3  502    0 -0.15349197290E+02  0.29558719637E+02 -0.10003969757E+03  0.10552122656E+03  0.41800000000E+01 0.  1.
         -5    1    3    3    0  502  0.72628218110E+02  0.42553958311E+01 -0.93466557994E+01  0.73469713720E+02  0.41800000000E+01 0.  1.
        -11    1    4    4    0    0  0.49378870560E+01  0.18197993545E+02 -0.17816239963E+01  0.18940007437E+02  0.00000000000E+00 0.  1.
         11    1    4    4    0    0 -0.62216907876E+02 -0.52012109013E+02 -0.14257553562E+03  0.16402434718E+03  0.00000000000E+00 0. -1.
</event>
<event>
 8    1  0.3719512E-009  0.1221681E+03  0.7561462E-02  0.1239563E+00
         -1   -1    0    0    0  501 -0.00000000000E+00  0.00000000000E+00  0.17736938323E+03  0.17736938323E+03  0.00000000000E+00 0.  1.
          1   -1    0    0  501    0  0.00000000000E+00 -0.00000000000E+00 -0.98267490350E+02  0.98267490350E+02  0.00000000000E+00 0. -1.
         25    2    1    2    0    0 -0.57856651025E+02  0.41779814063E+02  0.43862741434E+02  0.15055288007E+03  0.12509710101E+03 0.  0.
         23    2    1    2    0    0  0.57856651025E+02 -0.41779814063E+02  0.35239151446E+02  0.12508399351E+03  0.96494884351E+02 0.  0.
          5    1    3    3  502    0 -0.74727870803E+01 -0.39939258463E+02  0.35461946959E+02  0.54092596494E+02  0.41800000000E+01 0.  1.
         -5    1    3    3    0  502 -0.50383863945E+02  0.81719072526E+02  0.84007944748E+01  0.96460283580E+02  0.41800000000E+01 0.  1.
        -11    1    4    4    0    0 -0.15583220343E+02 -0.28901693216E+02 -0.14039169336E+02  0.35710543298E+02  0.00000000000E+00 0. -1.
         11    1    4    4    0    0  0.73439871368E+02 -0.12878120847E+02  0.49278320782E+02  0.89373450208E+02  0.00000000000E+00 0.  1.
</event>
<event>
 8    1  0.3719512E-009  0.2221151E+03  0.7561462E-02  0.1132316E+00
         -1   -1    0    0    0  501 -0.00000000000E+00  0.00000000000E+00  0.31797454330E+03  0.31797454330E+03  0.00000000000E+00 0.  1.
          1   -1    0    0  501    0  0.00000000000E+00 -0.00000000000E+00 -0.18844614667E+03  0.18844614667E+03  0.00000000000E+00 0. -1.
         25    2    1    2    0    0 -0.18490271903E+03  0.88062509368E+02  0.14662287088E+03  0.28122987627E+03  0.12509179022E+03 0.  0.
         23    2    1    2    0    0  0.18490271903E+03 -0.88062509368E+02 -0.17094474259E+02  0.22519081370E+03  0.92057919081E+02 0.  0.
          5    1    3    3  502    0 -0.18075892704E+03  0.11122174205E+03  0.14540833707E+03  0.25730356099E+03  0.41800000000E+01 0.  1.
         -5    1    3    3    0  502 -0.41437919846E+01 -0.23159232680E+02  0.12145338114E+01  0.23926315277E+02  0.41800000000E+01 0.  1.
        -11    1    4    4    0    0  0.12316186473E+03 -0.38976685686E+02 -0.51589056213E+02  0.13910232806E+03  0.00000000000E+00 0. -1.
         11    1    4    4    0    0  0.61740854298E+02 -0.49085823683E+02  0.34494581953E+02  0.86088485642E+02  0.00000000000E+00 0.  1.
</event>
<event>
 8    1  0.3719512E-009  0.1819750E+03  0.7561462E-02  0.1165905E+00
          1   -1    0    0  501    0  0.00000000000E+00  0.00000000000E+00  0.68224049471E+02  0.68224049471E+02  0.00000000000E+00 0. -1.
         -1   -1    0    0    0  501 -0.00000000000E+00 -0.00000000000E+00 -0.63686863382E+03  0.63686863382E+03  0.00000000000E+00 0.  1.
         25    2    1    2    0    0  0.16787104614E+03  0.35300553234E+02 -0.20944094393E+03  0.29822492287E+03  0.12508308613E+03 0.  0.
         23    2    1    2    0    0 -0.16787104614E+03 -0.35300553234E+02 -0.35920364042E+03  0.40686776042E+03  0.84186115209E+02 0.  0.
          5    1    3    3  502    0  0.60017809354E+02 -0.14198296627E+01 -0.47602904382E+00  0.60181827486E+02  0.41800000000E+01 0.  1.
         -5    1    3    3    0  502  0.10785323678E+03  0.36720382897E+02 -0.20896491489E+03  0.23804309538E+03  0.41800000000E+01 0.  1.
        -11    1    4    4    0    0 -0.16485068612E+03 -0.10939913176E+02 -0.29470176203E+03  0.33785286584E+03  0.00000000000E+00 0.  1.
         11    1    4    4    0    0 -0.30203600170E+01 -0.24360640058E+02 -0.64501878387E+02  0.69014894581E+02  0.00000000000E+00 0. -1.
</event>
<event>
 8    1  0.3719512E-009  0.1477034E+03  0.7561462E-02  0.1203324E+00
          2   -1    0    0  501    0  0.00000000000E+00  0.00000000000E+00  0.69168158363E+03  0.69168158363E+03  0.00000000000E+00 0. -1.
         -2   -1    0    0    0  501 -0.00000000000E+00 -0.00000000000E+00 -0.36116044176E+02  0.36116044176E+02  0.00000000000E+00 0.  1.
         25    2    1    2    0    0  0.94193051082E+02  0.57685838189E+02  0.27841000529E+03  0.32458945121E+03  0.12508474725E+03 0.  0.
         23    2    1    2    0    0 -0.94193051082E+02 -0.57685838189E+02  0.37715553417E+03  0.40320817660E+03  0.90169562042E+02 0.  0.
          5    1    3    3  502    0  0.84220650755E+02  0.88835810017E+02  0.25855474051E+03  0.28609953757E+03  0.41800000000E+01 0.  1.
         -5    1    3    3    0  502  0.99724003264E+01 -0.31149971828E+02  0.19855264773E+02  0.38489913645E+02  0.41800000000E+01 0.  1.
        -11    1    4    4    0    0 -0.10961808247E+02  0.22089782165E+02  0.10071972657E+03  0.10369466253E+03  0.00000000000E+00 0. -1.
         11    1    4    4    0    0 -0.83231242835E+02 -0.79775620354E+02  0.27643580760E+03  0.29951351407E+03  0.00000000000E+00 0.  1.
</event>
<event>
 8    1  0.3719512E-009  0.1723240E+03  0.7561462E-02  0.1175446E+00
         -2   -1    0    0    0  501 -0.00000000000E+00  0.00000000000E+00  0.62527147229E+02  0.62527147229E+02  0.00000000000E+00 0.  1.
          2   -1    0    0  501    0  0.00000000000E+00 -0.00000000000E+00 -0.60388361859E+03  0.60388361859E+03  0.00000000000E+00 0. -1.
         25    2    1    2    0    0  0.34637385206E+01 -0.15988591090E+03 -0.33545343117E+03  0.39211348456E+03  0.12509387795E+03 0.  0.
         23    2    1    2    0    0 -0.34637385206E+01  0.15988591090E+03 -0.20590304019E+03  0.27429728126E+03  0.85249249613E+02 0.  0.
          5    1    3    3  502    0  0.32603519303E+02 -0.12967108488E+03 -0.32060155576E+03  0.34739086010E+03  0.41800000000E+01 0. -1.
         -5    1    3    3    0  502 -0.29139780783E+02 -0.30214826021E+02 -0.14851875416E+02  0.44722624464E+02  0.41800000000E+01 0. -1.
        -11    1    4    4    0    0 -0.17186333227E+02  0.14015824783E+02 -0.73945254733E+00  0.22189190707E+02  0.00000000000E+00 0.  1.
         11    1    4    4    0    0  0.13722594707E+02  0.14587008611E+03 -0.20516358764E+03  0.25210809055E+03  0.00000000000E+00 0. -1.
</event>
<event>
 8    1  0.3719512E-009  0.1235205E+03  0.7561462E-02  0.1237400E+00
         -2   -1    0    0    0  501 -0.00000000000E+00  0.00000000000E+00  0.84322170877E+02  0.84322170877E+02  0.00000000000E+00 0.  1.
          2   -1    0    0  501    0  0.00000000000E+00 -0.00000000000E+00 -0.26875057762E+03  0.26875057762E+03  0.00000000000E+00 0. -1.
         25    2    1    2    0    0  0.55149140250E+02 -0.74757687663E+02 -0.15991109978E+03  0.22327035803E+03  0.12509177994E+03 0.  0.
         23    2    1    2    0    0 -0.55149140250E+02  0.74757687663E+02 -0.24517306963E+02  0.12980239046E+03  0.87277847670E+02 0.  0.
          5    1    3    3  502    0  0.66242286772E+02 -0.88401833349E+01 -0.22903639118E+02  0.70768909013E+02  0.41800000000E+01 0. -1.
         -5    1    3    3    0  502 -0.11093146522E+02 -0.65917504328E+02 -0.13700746066E+03  0.15250144902E+03  0.41800000000E+01 0. -1.
        -11    1    4    4    0    0 -0.79452134781E+01  0.64259222943E+02  0.16020827126E+02  0.66701132317E+02  0.00000000000E+00 0.  1.
         11    1    4    4    0    0 -0.47203926771E+02  0.10498464720E+02 -0.40538134089E+02  0.63101258146E+02  0.00000000000E+00 0. -1.
</event>
<event>
 8    1  0.3719512E-009  0.1169762E+03  0.7561462E-02  0.1248170E+00
         -2   -1    0    0    0  501 -0.00000000000E+00  0.00000000000E+00  0.19982773877E+02  0.19982773877E+02  0.00000000000E+00 0.  1.
          2   -1    0    0  501    0  0.00000000000E+00 -0.00000000000E+00 -0.90913259927E+03  0.90913259927E+03  0.00000000000E+00 0. -1.
         25    2    1    2    0    0  0.57966718550E+02 -0.50857525936E+02 -0.58141000148E+03  0.59969177107E+03  0.12508398006E+03 0.  0.
         23    2    1    2    0    0 -0.57966718550E+02  0.50857525936E+02 -0.30773982391E+03  0.32942360208E+03  0.88710100763E+02 0.  0.
          5    1    3    3  502    0 -0.14666117661E+02 -0.47292850551E+02 -0.89075888213E+02  0.10199850480E+03  0.41800000000E+01 0.  1.
         -5    1    3    3    0  502  0.72632836212E+02 -0.35646753857E+01 -0.49233411327E+03  0.49769326627E+03  0.41800000000E+01 0.  1.
        -11    1    4    4    0    0  0.15346889495E+02 -0.80898714510E+01 -0.18921607224E+02  0.25671000315E+02  0.00000000000E+00 0.  1.
         11    1    4    4    0    0 -0.73313608045E+02  0.58947397387E+02 -0.28881821669E+03  0.30375260176E+03  0.00000000000E+00 0. -1.
</event>
<event>
 8    1  0.3719512E-009  0.1078496E+03  0.7561462E-02  0.1264605E+00
          2   -1    0    0  501    0  0.00000000000E+00  0.00000000000E+00  0.25639061333E+02  0.25639061333E+02  0.00000000000E+00 0. -1.
         -2   -1    0    0    0  501 -0.00000000000E+00 -0.00000000000E+00 -0.54969506003E+03  0.54969506003E+03  0.00000000000E+00 0.  1.
         25    2    1    2    0    0 -0.34495335124E+02  0.32272621867E+02 -0.28401818012E+03  0.31391895116E+03  0.12508929209E+03 0.  0.
         23    2    1    2    0    0  0.34495335124E+02 -0.32272621867E+02 -0.24003781858E+03  0.26141517020E+03  0.92131897811E+02 0.  0.
          5    1    3    3  502    0 -0.54004383778E+02  0.70726184728E+02 -0.21069305042E+03  0.22875248757E+03  0.41800000000E+01 0.  1.
         -5    1    3    3    0  502  0.19509048654E+02 -0.38453562861E+02 -0.73325129691E+02  0.85166463590E+02  0.41800000000E+01 0.  1.
        -11    1    4    4    0    0  0.40811006324E+02  0.87903234644E+01 -0.42568947287E+02  0.59623177514E+02  0.00000000000E+00 0. -1.
         11    1    4    4    0    0 -0.63156712001E+01 -0.41062945331E+02 -0.19746887129E+03  0.20179199268E+03  0.00000000000E+00 0.  1.
</event>
<event>
 8    1  0.3719512E-009  0.7385447E+02  0.7561462E-02  0.1347456E+00
          1   -1    0    0  501    0  0.00000000000E+00  0.00000000000E+00  0.31549942665E+03  0.31549942665E+03  0.00000000000E+00 0. -1.
         -1   -1    0    0    0  501 -0.00000000000E+00 -0.00000000000E+00 -0.42966260687E+02  0.42966260687E+02  0.00000000000E+00 0.  1.
         25    2    1    2    0    0 -0.14832147164E+02 -0.38150056114E+02  0.15956992161E+03  0.20684537358E+03  0.12508808623E+03 0.  0.
         23    2    1    2    0    0  0.14832147164E+02  0.38150056114E+02  0.11296324435E+03  0.15162031376E+03  0.92480298438E+02 0.  0.
          5    1    3    3  502    0  0.15811457357E+00 -0.27649316331E+02  0.17820948693E+03  0.18039014199E+03  0.41800000000E+01 0. -1.
         -5    1    3    3    0  502 -0.14990261737E+02 -0.10500739783E+02 -0.18639565322E+02  0.26455231587E+02  0.41800000000E+01 0. -1.
        -11    1    4    4    0    0  0.54148012560E+02  0.20993695964E+02  0.69189273419E+02  0.90332154245E+02  0.00000000000E+00 0. -1.
         11    1    4    4    0    0 -0.39315865396E+02  0.17156360150E+02  0.43773970929E+02  0.61288159512E+02  0.00000000000E+00 0.  1.
</event>
<event>
 8    1  0.3719512E-009  0.1802656E+03  0.7561462E-02  0.1167546E+00
         -2   -1    0    0    0  501 -0.00000000000E+00  0.00000000000E+00  0.18553802594E+03  0.18553802594E+03  0.00000000000E+00 0.  1.
          2   -1    0    0  501    0  0.00000000000E+00 -0.00000000000E+00 -0.19726933936E+03  0.19726933936E+03  0.00000000000E+00 0. -1.
         25    2    1    2    0    0 -0.14945711616E+03  0.34474014857E+02  0.20805029289E+02  0.19901315219E+03  0.12508996055E+03 0.  0.
         23    2    1    2    0    0  0.14945711616E+03 -0.34474014857E+02 -0.32536342704E+02  0.18379421310E+03  0.95894796006E+02 0.  0.
          5    1    3    3  502    0 -0.12968261669E+03  0.73557490738E+02 -0.26050688598E+01  0.14917286717E+03  0.41800000000E+01 0. -1.
         -5    1    3    3    0  502 -0.19774499474E+02 -0.39083475881E+02  0.23410098148E+02  0.49840285028E+02  0.41800000000E+01 0. -1.
        -11    1    4    4    0    0  0.14408181769E+03 -0.12346552214E+02 -0.52164985976E+02  0.15373091200E+03  0.00000000000E+00 0. -1.
         11    1    4    4    0    0  0.53752984697E+01 -0.22127462643E+02  0.19628643272E+02  0.30063301105E+02  0.00000000000E+00 0.  1.
</event>
<event>
 8    1  0.3719512E-009  0.1186020E+03  0.7561462E-02  0.1245421E+00
         -1   -1    0    0    0  501 -0.00000000000E+00  0.00000000000E+00  0.77300305782E+02  0.77300305782E+02  0.00000000000E+00 0.  1.
          1   -1    0    0  501    0  0.00000000000E+00 -0.00000000000E+00 -0.20965451277E+03  0.20965451277E+03  0.00000000000E+00 0. -1.
         25    2    1    2    0    0 -0.36183550392E+02 -0.47802094169E+02 -0.47751473428E+02  0.14670365005E+03  0.12508984050E+03 0.  0.
         23    2    1    2    0    0  0.36183550392E+02  0.47802094169E+02 -0.84602733556E+02  0.14025116850E+03  0.94437694885E+02 0.  0.
          5    1    3    3  502    0  0.59298171935E+01 -0.75009590900E+02 -0.58324200335E+02  0.95293159269E+02  0.41800000000E+01 0. -1.
         -5    1    3    3    0  502 -0.42113367585E+02  0.27207496731E+02  0.10572726907E+02  0.51410490777E+02  0.41800000000E+01 0. -1.
        -11    1    4    4    0    0  0.32292716299E+02  0.76257189123E+02 -0.58002414085E+02  0.10110518512E+03  0.00000000000E+00 0.  1.
         11    1    4    4    0    0  0.38908340920E+01 -0.28455094955E+02 -0.26600319471E+02  0.39145983380E+02  0.00000000000E+00 0. -1.
</event>
<event>
 8    1  0.3719512E-009  0.4495127E+03  0.7561462E-02  0.1027867E+00
          2   -1    0    0  501    0  0.00000000000E+00  0.00000000000E+00  0.77842003074E+03  0.77842003074E+03  0.00000000000E+00 0. -1.
         -2   -1    0    0    0  501 -0.00000000000E+00 -0.00000000000E+00 -0.26908801124E+03  0.26908801124E+03  0.00000000000E+00 0.  1.
         25    2    1    2    0    0 -0.14142484351E+03 -0.41910760366E+03  0.20837138410E+03  0.50469659982E+03  0.12509138402E+03 0.  0.
         23    2    1    2    0    0  0.14142484351E+03  0.41910760366E+03  0.30096063540E+03  0.54281144215E+03  0.91732152854E+02 0.  0.
          5    1    3    3  502    0  0.71635572878E+01 -0.38610209259E+02 -0.11031563914E+02  0.41002836663E+02  0.41800000000E+01 0. -1.
         -5    1    3    3    0  502 -0.14858840080E+03 -0.38049739440E+03  0.21940294801E+03  0.46369376316E+03  0.41800000000E+01 0. -1.
        -11    1    4    4    0    0  0.40763582335E+01  0.13902772961E+03  0.78977877772E+02  0.15994633936E+03  0.00000000000E+00 0.  1.
         11    1    4    4    0    0  0.13734848528E+03  0.28007987405E+03  0.22198275762E+03  0.38286510280E+03  0.00000000000E+00 0. -1.
</event>
<event>
 8    1  0.3719512E-009  0.1369759E+03  0.7561462E-02  0.1217457E+00
          1   -1    0    0  501    0  0.00000000000E+00  0.00000000000E+00  0.19026458127E+03  0.19026458127E+03  0.00000000000E+00 0. -1.
         -1   -1    0    0    0  501 -0.00000000000E+00 -0.00000000000E+00 -0.13744545477E+03  0.13744545477E+03  0.00000000000E+00 0.  1.
         25    2    1    2    0    0  0.52620225683E+02  0.10759837321E+03  0.35072912690E+02  0.17670383094E+03  0.12509131303E+03 0.  0.
         23    2    1    2    0    0 -0.52620225683E+02 -0.10759837321E+03  0.17746213803E+02  0.15100620510E+03  0.90231080055E+02 0.  0.
          5    1    3    3  502    0  0.11807214989E+02  0.31687726714E+00  0.58205662597E+02  0.59538914127E+02  0.41800000000E+01 0.  1.
         -5    1    3    3    0  502  0.40813010694E+02  0.10728149594E+03 -0.23132749908E+02  0.11716491681E+03  0.41800000000E+01 0.  1.
        -11    1    4    4    0    0 -0.40807362710E+02 -0.25860977460E+01  0.19535908360E+02  0.45316448100E+02  0.00000000000E+00 0. -1.
         11    1    4    4    0    0 -0.11812862973E+02 -0.10501227546E+03 -0.17896945568E+01  0.10568975700E+03  0.00000000000E+00 0.  1.
</event>
<event>
 8    1  0.3719512E-009  0.8024996E+02  0.7561462E-02  0.1328344E+00
         -1   -1    0    0    0  501 -0.00000000000E+00  0.00000000000E+00  0.92872589796E+02  0.92872589796E+02  0.00000000000E+00 0. -1.
          1   -1    0    0  501    0  0.00000000000E+00 -0.00000000000E+00 -0.14420011509E+03  0.14420011509E+03  0.00000000000E+00 0.  1.
         25    2    1    2    0    0  0.18844121794E+02 -0.36014011870E+02 -0.35558827074E+02  0.13625249627E+03  0.12509277589E+03 0.  0.
         23    2    1    2    0    0 -0.18844121794E+02  0.36014011870E+02 -0.15768698223E+02  0.10082020862E+03  0.90906284960E+02 0.  0.
          5    1    3    3  502    0  0.88033992782E+01  0.16237752837E+02  0.39702417653E+02  0.43987712188E+02  0.41800000000E+01 0.  1.
         -5    1    3    3    0  502  0.10040722516E+02 -0.52251764708E+02 -0.75261244727E+02  0.92264784082E+02  0.41800000000E+01 0.  1.
        -11    1    4    4    0    0  0.26851337368E+02 -0.43733819756E+01 -0.27537535128E+02  0.38709645171E+02  0.00000000000E+00 0.  1.
         11    1    4    4    0    0 -0.45695459162E+02  0.40387393846E+02  0.11768836906E+02  0.62110563448E+02  0.00000000000E+00 0. -1.
</event>
<event>
 8    1  0.3719512E-009  0.9554877E+02  0.7561462E-02  0.1289945E+00
         -2   -1    0    0    0  501 -0.00000000000E+00  0.00000000000E+00  0.96958138660E+02  0.96958138660E+02  0.00000000000E+00 0.  1.
          2   -1    0    0  501    0  0.00000000000E+00 -0.00000000000E+00 -0.14671845096E+03  0.14671845096E+03  0.00000000000E+00 0. -1.
         25    2    1    2    0    0  0.21719642007E+02 -0.42913357732E+02 -0.32049942906E+02  0.13779879279E+03  0.12509200348E+03 0.  0.
         23    2    1    2    0    0 -0.21719642007E+02  0.42913357732E+02 -0.17710369389E+02  0.10587779682E+03  0.92645299694E+02 0.  0.
          5    1    3    3  502    0  0.34133468714E+02 -0.58545540945E+02 -0.68235740420E+02  0.96261429044E+02  0.41800000000E+01 0. -1.
         -5    1    3    3    0  502 -0.12413826707E+02  0.15632183213E+02  0.36185797514E+02  0.41537363749E+02  0.41800000000E+01 0. -1.
        -11    1    4    4    0    0  0.45501210702E+01 -0.27383975663E+02  0.32789302805E+01  0.27952407923E+02  0.00000000000E+00 0.  1.
         11    1    4    4    0    0 -0.26269763077E+02  0.70297333395E+02 -0.20989299670E+02  0.77925388900E+02  0.00000000000E+00 0. -1.
</event>
<event>
 8    1  0.3719512E-009  0.1238077E+03  0.7561462E-02  0.1236945E+00
          1   -1    0    0  501    0  0.00000000000E+00  0.00000000000E+00  0.89850727455E+03  0.89850727455E+03  0.00000000000E+00 0. -1.
         -1   -1    0    0    0  501 -0.00000000000E+00 -0.00000000000E+00 -0.28008674384E+02  0.28008674384E+02  0.00000000000E+00 0.  1.
         25    2    1    2    0    0 -0.64129174824E+02  0.48132886423E+02  0.70773097144E+03  0.72315965547E+03  0.12508970198E+03 0.  0.
         23    2    1    2    0    0  0.64129174824E+02 -0.48132886423E+02  0.16276762872E+03  0.20335629347E+03  0.91821322755E+02 0.  0.
          5    1    3    3  502    0 -0.58480124368E+02  0.79493350827E+02  0.34084747828E+03  0.35487123527E+03  0.41800000000E+01 0.  1.
         -5    1    3    3    0  502 -0.56490504557E+01 -0.31360464404E+02  0.36688349316E+03  0.36828842020E+03  0.41800000000E+01 0.  1.
        -11    1    4    4    0    0 -0.21074137850E+02 -0.83455941669E+01  0.11947738782E+02  0.25622581644E+02  0.00000000000E+00 0.  1.
         11    1    4    4    0    0  0.85203312674E+02 -0.39787292256E+02  0.15081988994E+03  0.17773371182E+03  0.00000000000E+00 0. -1.
</event>
<event>
 8    1  0.3719512E-009  0.9488620E+02  0.7561462E-02  0.1291433E+00
          2   -1    0    0  501    0  0.00000000000E+00  0.00000000000E+00  0.10857179289E+03  0.10857179289E+03  0.00000000000E+00 0. -1.
         -2   -1    0    0    0  501 -0.00000000000E+00 -0.00000000000E+00 -0.19846637034E+03  0.19846637034E+03  0.00000000000E+00 0.  1.
         25    2    1    2    0    0 -0.43626304414E+02  0.57933340321E+02 -0.11764614230E+03  0.18640753584E+03  0.12509048030E+03 0.  0.
         23    2    1    2    0    0  0.43626304414E+02 -0.57933340321E+02  0.27751564850E+02  0.12063062739E+03  0.92315072198E+02 0.  0.
          5    1    3    3  502    0 -0.29835153297E+02  0.55657326877E+02  0.44488481334E+01  0.63443983616E+02  0.41800000000E+01 0. -1.
         -5    1    3    3    0  502 -0.13791151117E+02  0.22760134441E+01 -0.12209499044E+03  0.12296355222E+03  0.41800000000E+01 0. -1.
        -11    1    4    4    0    0  0.57203202767E+02 -0.51964512625E+01 -0.40273567102E+01  0.57579763064E+02  0.00000000000E+00 0.  1.
         11    1    4    4    0    0 -0.13576898352E+02 -0.52736889058E+02  0.31778921561E+02  0.63050864324E+02  0.00000000000E+00 0. -1.
</event>
<event>
 8    1  0.3719512E-009  0.9762518E+02  0.7561462E-02  0.1285371E+00
          1   -1    0    0  501    0  0.00000000000E+00  0.00000000000E+00  0.67477210500E+02  0.67477210500E+02  0.00000000000E+00 0. -1.
         -1   -1    0    0    0  501 -0.00000000000E+00 -0.00000000000E+00 -0.29211139073E+03  0.29211139073E+03  0.00000000000E+00 0.  1.
         25    2    1    2    0    0  0.53745017257E+02  0.71128782484E+02 -0.12322295431E+03  0.19692484133E+03  0.12509063149E+03 0.  0.
         23    2    1    2    0    0 -0.53745017257E+02 -0.71128782484E+02 -0.10141122593E+03  0.16266375990E+03  0.90705189844E+02 0.  0.
          5    1    3    3  502    0  0.38687365181E+02  0.75019893732E+01 -0.12525603713E+03  0.13137556587E+03  0.41800000000E+01 0.  1.
         -5    1    3    3    0  502  0.15057652076E+02  0.63626793111E+02  0.20330828246E+01  0.65549275461E+02  0.41800000000E+01 0.  1.
        -11    1    4    4    0    0 -0.86371030415E+01 -0.20781595833E+02 -0.91639667851E+02  0.94362614409E+02  0.00000000000E+00 0.  1.
         11    1    4    4    0    0 -0.45107914216E+02 -0.50347186652E+02 -0.97715580741E+01  0.68301145494E+02  0.00000000000E+00 0. -1.
</event>
<event>
 8    1  0.3719512E-009  0.1116722E+03  0.7561462E-02  0.1257504E+00
          1   -1    0    0  501    0  0.00000000000E+00  0.00000000000E+00  0.16494630353E+03  0.16494630353E+03  0.00000000000E+00 0. -1.
         -1   -1    0    0    0  501 -0.00000000000E+00 -0.00000000000E+00 -0.93510474258E+02  0.93510474258E+02  0.00000000000E+00 0.  1.
         25    2    1    2    0    0  0.10398883174E+02  0.51286527492E+02  0.99409639862E+01  0.13596187178E+03  0.12509341765E+03 0.  0.
         23    2    1    2    0    0 -0.10398883174E+02 -0.51286527492E+02  0.61494865289E+02  0.12249490601E+03  0.92113727905E+02 0.  0.
          5    1    3    3  502    0 -0.57566399470E+01  0.82079974092E+02  0.38338915674E+02  0.90871370109E+02  0.41800000000E+01 0.  1.
         -5    1    3    3    0  502  0.16155523121E+02 -0.30793446599E+02 -0.28397951688E+02  0.45090501670E+02  0.41800000000E+01 0.  1.
        -11    1    4    4    0    0 -0.31745098775E+02  0.15851299694E+02  0.21321225851E+02  0.41395768745E+02  0.00000000000E+00 0.  1.
         11    1    4    4    0    0  0.21346215601E+02 -0.67137827186E+02  0.40173639439E+02  0.81099137267E+02  0.00000000000E+00 0. -1.
</event>
<event>
 8    1  0.3719512E-009  0.1879530E+03  0.7561462E-02  0.1160321E+00
          2   -1    0    0  501    0  0.00000000000E+00  0.00000000000E+00  0.83765866133E+03  0.83765866133E+03  0.00000000000E+00 0. -1.
         -2   -1    0    0    0  501 -0.00000000000E+00 -0.00000000000E+00 -0.46931368123E+02  0.46931368123E+02  0.00000000000E+00 0.  1.
         25    2    1    2    0    0 -0.74952997847E+02 -0.13492656495E+03  0.27968785839E+03  0.34306842924E+03  0.12509004433E+03 0.  0.
         23    2    1    2    0    0  0.74952997847E+02  0.13492656495E+03  0.51103943481E+03  0.54152160021E+03  0.90891197309E+02 0.  0.
          5    1    3    3  502    0 -0.10642146679E+02 -0.13188466888E+03  0.16568451802E+03  0.21207464036E+03  0.41800000000E+01 0. -1.
         -5    1    3    3    0  502 -0.64310851168E+02 -0.30418960796E+01  0.11400334037E+03  0.13099378888E+03  0.41800000000E+01 0. -1.
        -11    1    4    4    0    0  0.93477121058E+02  0.87288740265E+02  0.37365943902E+03  0.39494135351E+03  0.00000000000E+00 0. -1.
         11    1    4    4    0    0 -0.18524123210E+02  0.47637824690E+02  0.13737999579E+03  0.14658024671E+03  0.00000000000E+00 0.  1.
</event>
<event>
 8    1  0.3719512E-009  0.1237699E+03  0.7561462E-02  0.1237004E+00
         -2   -1    0    0    0  501 -0.00000000000E+00  0.00000000000E+00  0.10676804621E+03  0.10676804621E+03  0.00000000000E+00 0.  1.
          2   -1    0    0  501    0  0.00000000000E+00 -0.00000000000E+00 -0.16482065285E+03  0.16482065285E+03  0.00000000000E+00 0. -1.
         25    2    1    2    0    0  0.63499585773E+02 -0.11339430876E+02 -0.74629653317E+02  0.15930481464E+03  0.12509060207E+03 0.  0.
         23    2    1    2    0    0 -0.63499585773E+02  0.11339430876E+02  0.16577046680E+02  0.11228388443E+03  0.90399624662E+02 0.  0.
          5    1    3    3  502    0  0.44002045776E+02 -0.65369321658E+02 -0.23616029862E+02  0.82368182649E+02  0.41800000000E+01 0. -1.
         -5    1    3    3    0  502  0.19497539997E+02  0.54029890781E+02 -0.51013623456E+02  0.76936631989E+02  0.41800000000E+01 0. -1.
        -11    1    4    4    0    0 -0.77811484033E+02  0.33452022175E+02  0.13452865691E+02  0.85759223587E+02  0.00000000000E+00 0. -1.
         11    1    4    4    0    0  0.14311898259E+02 -0.22112591299E+02  0.31241809887E+01  0.26524660838E+02  0.00000000000E+00 0.  1.
</event>
<event>
 8    1  0.3719512E-009  0.1406470E+03  0.7561462E-02  0.1212461E+00
         -2   -1    0    0    0  501 -0.00000000000E+00  0.00000000000E+00  0.35535774139E+02  0.35535774139E+02  0.00000000000E+00 0.  1.
          2   -1    0    0  501    0  0.00000000000E+00 -0.00000000000E+00 -0.88256684053E+03  0.88256684053E+03  0.00000000000E+00 0. -1.
         25    2    1    2    0    0  0.11274846055E+03  0.30823744322E+02 -0.25365615156E+03  0.30602965267E+03  0.12510150485E+03 0.  0.
         23    2    1    2    0    0 -0.11274846055E+03 -0.30823744322E+02 -0.59337491483E+03  0.61207296201E+03  0.94218908374E+02 0.  0.
          5    1    3    3  502    0  0.38191529728E+02 -0.40493989926E+02 -0.39819413980E+02  0.68566860019E+02  0.41800000000E+01 0.  1.
         -5    1    3    3    0  502  0.74556930826E+02  0.71317734248E+02 -0.21383673758E+03  0.23746279265E+03  0.41800000000E+01 0.  1.
        -11    1    4    4    0    0 -0.95281347232E+02 -0.11189684866E+02 -0.56619909096E+03  0.57426923545E+03  0.00000000000E+00 0. -1.
         11    1    4    4    0    0 -0.17467113322E+02 -0.19634059456E+02 -0.27175823871E+02  0.37803726557E+02  0.00000000000E+00 0.  1.
</event>
<event>
 8    1  0.3719512E-009  0.1743780E+03  0.7561462E-02  0.1173358E+00
          2   -1    0    0  501    0  0.00000000000E+00  0.00000000000E+00  0.31659233690E+03  0.31659233690E+03  0.00000000000E+00 0. -1.
         -2   -1    0    0    0  501 -0.00000000000E+00 -0.00000000000E+00 -0.10573089795E+03  0.10573089795E+03  0.00000000000E+00 0.  1.
         25    2    1    2    0    0 -0.11301277200E+03  0.89275214808E+02  0.76461809555E+02  0.20550783072E+03  0.12508041235E+03 0.  0.
         23    2    1    2    0    0  0.11301277200E+03 -0.89275214808E+02  0.13439962939E+03  0.21681540413E+03  0.90574325686E+02 0.  0.
          5    1    3    3  502    0 -0.67183479208E+02 -0.12302159409E+02  0.63302685025E+02  0.93218374455E+02  0.41800000000E+01 0.  1.
         -5    1    3    3    0  502 -0.45829292793E+02  0.10157737422E+03  0.13159124531E+02  0.11228945627E+03  0.41800000000E+01 0.  1.
        -11    1    4    4    0    0  0.48613363228E+02  0.10807340736E+02  0.52397896025E+02  0.72288292316E+02  0.00000000000E+00 0.  1.
         11    1    4    4    0    0  0.64399408773E+02 -0.10008255554E+03  0.82001733367E+02  0.14452711181E+03  0.00000000000E+00 0. -1.
</event>
<event>
 8    1  0.3719512E-009  0.1019427E+03  0.7561462E-02  0.1276263E+00
         -1   -1    0    0    0  501 -0.00000000000E+00  0.00000000000E+00  0.10114459340E+04  0.10114459340E+04  0.00000000000E+00 0.  1.
          1   -1    0    0  501    0  0.00000000000E+00 -0.00000000000E+00 -0.14749091592E+02  0.14749091592E+02  0.00000000000E+00 0. -1.
         25    2    1    2    0    0 -0.22862919435E+02 -0.42495563846E+02  0.43428852560E+03  0.45451383150E+03  0.12509082109E+03 0.  0.
         23    2    1    2    0    0  0.22862919435E+02  0.42495563846E+02  0.56240831677E+03  0.57168119406E+03  0.90485837766E+02 0.  0.
          5    1    3    3  502    0 -0.33733096112E+02  0.19055909061E+02  0.33401894003E+03  0.33628436500E+03  0.41800000000E+01 0.  1.
         -5    1    3    3    0  502  0.10870176676E+02 -0.61551472907E+02  0.10026958557E+03  0.11822946650E+03  0.41800000000E+01 0.  1.
        -11    1    4    4    0    0 -0.12726542478E+02  0.60893988698E+02  0.36220750208E+03  0.36751097576E+03  0.00000000000E+00 0.  1.
         11    1    4    4    0    0  0.35589461914E+02 -0.18398424852E+02  0.20020081469E+03  0.20417021829E+03  0.00000000000E+00 0. -1.
</event>
<event>
 8    1  0.3719512E-009  0.1109836E+03  0.7561462E-02  0.1258759E+00
          1   -1    0    0  501    0  0.00000000000E+00  0.00000000000E+00  0.81195365609E+02  0.81195365609E+02  0.00000000000E+00 0. -1.
         -1   -1    0    0    0  501 -0.00000000000E+00 -0.00000000000E+00 -0.16046606486E+03  0.16046606486E+03  0.00000000000E+00 0.  1.
         25    2    1    2    0    0  0.56906338906E+01  0.15916255430E+02 -0.68725314683E+02  0.14372399960E+03  0.12509080175E+03 0.  0.
         23    2    1    2    0    0 -0.56906338906E+01 -0.15916255430E+02 -0.10545384569E+02  0.97937430871E+02  0.95889648705E+02 0.  0.
          5    1    3    3  502    0  0.23135303618E+02 -0.51369137143E+02 -0.27962151318E+02  0.63034790637E+02  0.41800000000E+01 0. -1.
         -5    1    3    3    0  502 -0.17444669727E+02  0.67285392573E+02 -0.40763163365E+02  0.80689208964E+02  0.41800000000E+01 0. -1.
        -11    1    4    4    0    0  0.40808234953E+02 -0.25827702408E+02  0.33333782305E+01  0.48409644308E+02  0.00000000000E+00 0. -1.
         11    1    4    4    0    0 -0.46498868843E+02  0.99114469780E+01 -0.13878762799E+02  0.49527786562E+02  0.00000000000E+00 0.  1.
</event>
<event>
 8    1  0.3719512E-009  0.1113898E+03  0.7561462E-02  0.1258018E+00
          1   -1    0    0  501    0  0.00000000000E+00  0.00000000000E+00  0.18314871761E+02  0.18314871761E+02  0.00000000000E+00 0. -1.
         -1   -1    0    0    0  501 -0.00000000000E+00 -0.00000000000E+00 -0.87921365032E+03  0.87921365032E+03  0.00000000000E+00 0.  1.
         25    2    1    2    0    0  0.66386143163E+02 -0.16978367821E+02 -0.55999649831E+03  0.57787511604E+03  0.12509271218E+03 0.  0.
         23    2    1    2    0    0 -0.66386143163E+02  0.16978367821E+02 -0.30090228025E+03  0.31965340604E+03  0.83311060226E+02 0.  0.
          5    1    3    3  502    0 -0.98730999764E+01  0.28230859759E+02 -0.32952195873E+03  0.33090278516E+03  0.41800000000E+01 0.  1.
         -5    1    3    3    0  502  0.76259243140E+02 -0.45209227580E+02 -0.23047453958E+03  0.24697233087E+03  0.41800000000E+01 0.  1.
        -11    1    4    4    0    0 -0.23403932332E+02 -0.31369798471E+02 -0.15824783813E+03  0.16301590897E+03  0.00000000000E+00 0.  1.
         11    1    4    4    0    0 -0.42982210831E+02  0.48348166293E+02 -0.14265444212E+03  0.15663749707E+03  0.00000000000E+00 0. -1.
</event>
<event>
 8    1  0.3719512E-009  0.1931634E+03  0.7561462E-02  0.1155639E+00
          2   -1    0    0  501    0  0.00000000000E+00  0.00000000000E+00  0.31836518259E+03  0.31836518259E+03  0.00000000000E+00 0.  1.
         -2   -1    0    0    0  501 -0.00000000000E+00 -0.00000000000E+00 -0.17665685450E+03  0.17665685450E+03  0.00000000000E+00 0. -1.
         25    2    1    2    0    0 -0.61197278137E+02 -0.17777157110E+03 -0.25950327292E+02  0.22730612289E+03  0.12508723226E+03 0.  0.
         23    2    1    2    0    0  0.61197278137E+02  0.17777157110E+03  0.16765865538E+03  0.26771591420E+03  0.90634141739E+02 0.  0.
          5    1    3    3  502    0 -0.67457281915E+02 -0.14567118940E+03 -0.67557898610E+02  0.17421860511E+03  0.41800000000E+01 0.  1.
         -5    1    3    3    0  502  0.62600037779E+01 -0.32100381703E+02  0.41607571318E+02  0.53087517777E+02  0.41800000000E+01 0.  1.
        -11    1    4    4    0    0  0.50066061886E+02  0.80060893164E+02  0.13368456840E+03  0.16367015915E+03  0.00000000000E+00 0.  1.
         11    1    4    4    0    0  0.11131216252E+02  0.97710677935E+02  0.33974086978E+02  0.10404575505E+03  0.00000000000E+00 0. -1.
</event>
<event>
 8    1  0.3719512E-009  0.2627129E+03  0.7561462E-02  0.1105524E+00
         -2   -1    0    0    0  501 -0.00000000000E+00  0.00000000000E+00  0.44978297203E+03  0.44978297203E+03  0.00000000000E+00 0.  1.
          2   -1    0    0  501    0  0.00000000000E+00 -0.00000000000E+00 -0.16808136645E+03  0.16808136645E+03  0.00000000000E+00 0. -1.
         25    2    1    2    0    0 -0.14008200183E+03  0.20715458470E+03  0.10648283806E+03  0.29920183215E+03  0.12508857806E+03 0.  0.
         23    2    1    2    0    0  0.14008200183E+03 -0.20715458470E+03  0.17521876752E+03  0.31866250633E+03  0.91149258097E+02 0.  0.
          5    1    3    3  502    0 -0.11659082297E+03  0.20444534912E+03  0.12713456495E+03  0.26752942040E+03  0.41800000000E+01 0.  1.
         -5    1    3    3    0  502 -0.23491178868E+02  0.27092355835E+01 -0.20651726895E+02  0.31672411746E+02  0.41800000000E+01 0.  1.
        -11    1    4    4    0    0  0.15290901048E+03 -0.18139667818E+03  0.15945090830E+03  0.28585050725E+03  0.00000000000E+00 0.  1.
         11    1    4    4    0    0 -0.12827008646E+02 -0.25757906523E+02  0.15767859227E+02  0.32811999084E+02  0.00000000000E+00 0. -1.
</event>
<event>
 8    1  0.3719512E-009  0.1446912E+03  0.7561462E-02  0.1207152E+00
          1   -1    0    0  501    0  0.00000000000E+00  0.00000000000E+00  0.73897132716E+03  0.73897132716E+03  0.00000000000E+00 0. -1.
         -1   -1    0    0    0  501 -0.00000000000E+00 -0.00000000000E+00 -0.39384950612E+02  0.39384950612E+02  0.00000000000E+00 0.  1.
         25    2    1    2    0    0 -0.77077475743E+02 -0.58835742075E+02  0.16952956326E+03  0.23192773091E+03  0.12509043822E+03 0.  0.
         23    2    1    2    0    0  0.77077475743E+02  0.58835742075E+02  0.53005681329E+03  0.54642854687E+03  0.90671658741E+02 0.  0.
          5    1    3    3  502    0 -0.86807974601E+02  0.96040806996E+01  0.78166280075E+02  0.11728300201E+03  0.41800000000E+01 0.  1.
         -5    1    3    3    0  502  0.97304988579E+01 -0.68439822775E+02  0.91363283182E+02  0.11464472889E+03  0.41800000000E+01 0.  1.
        -11    1    4    4    0    0  0.87261950071E+01  0.63578713290E+02  0.26489471755E+03  0.27255753640E+03  0.00000000000E+00 0.  1.
         11    1    4    4    0    0  0.68351280736E+02 -0.47429712155E+01  0.26516209574E+03  0.27387101047E+03  0.00000000000E+00 0. -1.
</event>
<event>
 8    1  0.3719512E-009  0.9649162E+02  0.7561462E-02  0.1287851E+00
          2   -1    0    0  501    0  0.00000000000E+00  0.00000000000E+00  0.45412963391E+03  0.45412963391E+03  0.00000000000E+00 0.  1.
         -2   -1    0    0    0  501 -0.00000000000E+00 -0.00000000000E+00 -0.34293377055E+02  0.34293377055E+02  0.00000000000E+00 0. -1.
         25    2    1    2    0    0 -0.47341040546E+01  0.33428706070E+02  0.32569888315E+03  0.35052467579E+03  0.12509154935E+03 0.  0.
         23    2    1    2    0    0  0.47341040546E+01 -0.33428706070E+02  0.94137373701E+02  0.13789833517E+03  0.94943222959E+02 0.  0.
          5    1    3    3  502    0 -0.57046336722E+02 -0.13938760018E+02  0.14793359177E+03  0.15921806913E+03  0.41800000000E+01 0. -1.
         -5    1    3    3    0  502  0.52312232667E+02  0.47367466088E+02  0.17776529138E+03  0.19130660666E+03  0.41800000000E+01 0. -1.
        -11    1    4    4    0    0  0.29246239134E+02 -0.20379323121E+02 -0.40351292194E+01  0.35873968030E+02  0.00000000000E+00 0. -1.
         11    1    4    4    0    0 -0.24512135080E+02 -0.13049382949E+02  0.98172502921E+02  0.10202436714E+03  0.00000000000E+00 0.  1.
</event>
<event>
 8    1  0.3719512E-009  0.1129449E+03  0.7561462E-02  0.1255212E+00
          1   -1    0    0  501    0  0.00000000000E+00  0.00000000000E+00  0.14792274925E+03  0.14792274925E+03  0.00000000000E+00 0. -1.
         -1   -1    0    0    0  501 -0.00000000000E+00 -0.00000000000E+00 -0.12457425063E+03  0.12457425063E+03  0.00000000000E+00 0.  1.
         25    2    1    2    0    0 -0.48120250904E+02 -0.27118915836E+02 -0.48487228624E+02  0.14508335806E+03  0.12508866976E+03 0.  0.
         23    2    1    2    0    0  0.48120250904E+02  0.27118915836E+02  0.71835727242E+02  0.12741364182E+03  0.89570476557E+02 0.  0.
          5    1    3    3  502    0 -0.79108051843E+02  0.43370533321E+00 -0.62722182423E+02  0.10104363678E+03  0.41800000000E+01 0. -1.
         -5    1    3    3    0  502  0.30987800939E+02 -0.27552621169E+02  0.14234953799E+02  0.44039721275E+02  0.41800000000E+01 0. -1.
        -11    1    4    4    0    0 -0.26546943532E+02  0.10166259094E+02  0.23331188488E+02  0.36775499876E+02  0.00000000000E+00 0.  1.
         11    1    4    4    0    0  0.74667194437E+02  0.16952656742E+02  0.48504538754E+02  0.90638141946E+02  0.00000000000E+00 0. -1.
</event>
<event>
 8    1  0.3719512E-009  0.2644933E+03  0.7561462E-02  0.1104473E+00
          1   -1    0    0  501    0  0.00000000000E+00  0.00000000000E+00  0.22425745615E+04  0.22425745615E+04  0.00000000000E+00 0. -1.
         -1   -1    0    0    0  501 -0.00000000000E+00 -0.00000000000E+00 -0.32186837426E+02  0.32186837426E+02  0.00000000000E+00 0.  1.
         25    2    1    2    0    0 -0.24269884874E+03 -0.64526818376E+01  0.12825046750E+04  0.13112629477E+04  0.12509159895E+03 0.  0.
         23    2    1    2    0    0  0.24269884874E+03  0.64526818376E+01  0.92788304900E+03  0.96349845124E+03  0.91749357598E+02 0.  0.
          5    1    3    3  502    0 -0.25193200067E+03 -0.23733656499E+02  0.11883012285E+04  0.12149527980E+04  0.41800000000E+01 0.  1.
         -5    1    3    3    0  502  0.92331519316E+01  0.17280974661E+02  0.94203446552E+02  0.96310149632E+02  0.41800000000E+01 0.  1.
        -11    1    4    4    0    0  0.54771895154E+02 -0.32864267130E+02  0.16793828725E+03  0.17967550996E+03  0.00000000000E+00 0. -1.
         11    1    4    4    0    0  0.18792695359E+03  0.39316948968E+02  0.75994476175E+03  0.78382294128E+03  0.00000000000E+00 0.  1.
</event>
<event>
 8    1  0.3719512E-009  0.4532825E+03  0.7561462E-02  0.1026748E+00
          2   -1    0    0  501    0  0.00000000000E+00  0.00000000000E+00  0.36359797975E+04  0.36359797975E+04  0.00000000000E+00 0. -1.
         -2   -1    0    0    0  501 -0.00000000000E+00 -0.00000000000E+00 -0.69714759454E+02  0.69714759454E+02  0.00000000000E+00 0.  1.
         25    2    1    2    0    0 -0.41878181511E+03  0.13934127610E+03  0.25861371087E+04  0.26265084568E+04  0.12508928419E+03 0.  0.
         23    2    1    2    0    0  0.41878181511E+03 -0.13934127610E+03  0.98012792937E+03  0.10791861001E+04  0.95904540458E+02 0.  0.
          5    1    3    3  502    0 -0.40718991686E+03  0.15477305422E+03  0.25237004588E+04  0.25610231950E+04  0.41800000000E+01 0.  1.
         -5    1    3    3    0  502 -0.11591898247E+02 -0.15431778112E+02  0.62436649811E+02  0.65485261856E+02  0.41800000000E+01 0.  1.
        -11    1    4    4    0    0  0.12813217727E+03 -0.89493333115E+02  0.36326016299E+03  0.39545525353E+03  0.00000000000E+00 0.  1.
         11    1    4    4    0    0  0.29064963784E+03 -0.49847942990E+02  0.61686776637E+03  0.68373084659E+03  0.00000000000E+00 0. -1.
</event>
<event>
 8    1  0.3719512E-009  0.7785299E+02  0.7561462E-02  0.1335257E+00
         -1   -1    0    0    0  501 -0.00000000000E+00  0.00000000000E+00  0.35624281688E+02  0.35624281688E+02  0.00000000000E+00 0.  1.
          1   -1    0    0  501    0  0.00000000000E+00 -0.00000000000E+00 -0.36466771174E+03  0.36466771174E+03  0.00000000000E+00 0. -1.
         25    2    1    2    0    0  0.23024661690E+02  0.27673578545E+02 -0.18357969091E+03  0.22504329035E+03  0.12508803947E+03 0.  0.
         23    2    1    2    0    0 -0.23024661690E+02 -0.27673578545E+02 -0.14546373914E+03  0.17524870308E+03  0.90864990681E+02 0.  0.
          5    1    3    3  502    0 -0.11393541365E+02 -0.20777439241E+01 -0.17867035365E+03  0.17909410230E+03  0.41800000000E+01 0. -1.
         -5    1    3    3    0  502  0.34418203055E+02  0.29751322469E+02 -0.49093372655E+01  0.45949188051E+02  0.41800000000E+01 0. -1.
        -11    1    4    4    0    0 -0.47456927481E+02 -0.46820849479E+02 -0.97237074734E+02  0.11789571924E+03  0.00000000000E+00 0.  1.
         11    1    4    4    0    0  0.24432265791E+02  0.19147270934E+02 -0.48226664402E+02  0.57352983839E+02  0.00000000000E+00 0. -1.
</event>
<event>
 8    1  0.3719512E-009  0.9597102E+02  0.7561462E-02  0.1289004E+00
          3   -1    0    0  501    0  0.00000000000E+00  0.00000000000E+00  0.22148237821E+02  0.22148237821E+02  0.00000000000E+00 0. -1.
         -3   -1    0    0    0  501 -0.00000000000E+00 -0.00000000000E+00 -0.57433776394E+03  0.57433776394E+03  0.00000000000E+00 0.  1.
         25    2    1    2    0    0  0.15587499842E+02  0.17797282860E+02 -0.40788641139E+03  0.42729053207E+03  0.12508461444E+03 0.  0.
         23    2    1    2    0    0 -0.15587499842E+02 -0.17797282860E+02 -0.14430311473E+03  0.16919546970E+03  0.85111718437E+02 0.  0.
          5    1    3    3  502    0 -0.42974906407E+02  0.39694735102E+02 -0.13309431569E+03  0.14544443559E+03  0.41800000000E+01 0.  1.
         -5    1    3    3    0  502  0.58562406248E+02 -0.21897452242E+02 -0.27479209570E+03  0.28184609647E+03  0.41800000000E+01 0.  1.
        -11    1    4    4    0    0 -0.22922191290E+02  0.21034201378E+02 -0.11724317213E+03  0.12130056015E+03  0.00000000000E+00 0.  1.
         11    1    4    4    0    0  0.73346914486E+01 -0.38831484238E+02 -0.27059942601E+02  0.47894909546E+02  0.00000000000E+00 0. -1.
</event>
<event>
 8    1  0.3719512E-009  0.1571325E+03  0.7561462E-02  0.1191973E+00
          1   -1    0    0  501    0  0.00000000000E+00  0.00000000000E+00  0.59003045521E+03  0.59003045521E+03  0.00000000000E+00 0. -1.
         -1   -1    0    0    0  501 -0.00000000000E+00 -0.00000000000E+00 -0.77404352975E+02  0.77404352975E+02  0.00000000000E+00 0.  1.
         25    2    1    2    0    0 -0.13077323164E+02  0.14826544067E+03  0.98242377989E+02  0.21783887748E+03  0.12509418225E+03 0.  0.
         23    2    1    2    0    0  0.13077323164E+02 -0.14826544067E+03  0.41438372425E+03  0.44959593070E+03  0.90933891952E+02 0.  0.
          5    1    3    3  502    0 -0.15442599194E+02  0.12015620260E+03  0.60837567155E+01  0.12136915337E+03  0.41800000000E+01 0. -1.
         -5    1    3    3    0  502  0.23652760301E+01  0.28109238066E+02  0.92158621274E+02  0.96469724113E+02  0.41800000000E+01 0. -1.
        -11    1    4    4    0    0 -0.10666635412E+02 -0.13841543772E+03  0.39074369402E+03  0.41467245498E+03  0.00000000000E+00 0. -1.
         11    1    4    4    0    0  0.23743958575E+02 -0.98500029553E+01  0.23640030234E+02  0.34923475722E+02  0.00000000000E+00 0.  1.
</event>
<event>
 8    1  0.3719512E-009  0.1199229E+03  0.7561462E-02  0.1243224E+00
          2   -1    0    0  501    0  0.00000000000E+00  0.00000000000E+00  0.61720927934E+03  0.61720927934E+03  0.00000000000E+00 0. -1.
         -2   -1    0    0    0  501 -0.00000000000E+00 -0.00000000000E+00 -0.23931380616E+02  0.23931380616E+02  0.00000000000E+00 0.  1.
         25    2    1    2    0    0 -0.50419524980E+02  0.22511781705E+02  0.29899754253E+03  0.32877959787E+03  0.12509030627E+03 0.  0.
         23    2    1    2    0    0  0.50419524980E+02 -0.22511781705E+02  0.29428035619E+03  0.31236106209E+03  0.88992113417E+02 0.  0.
          5    1    3    3  502    0  0.22030267109E+02 -0.35685833955E+02  0.11753173666E+03  0.12485989323E+03  0.41800000000E+01 0.  1.
         -5    1    3    3    0  502 -0.72449792090E+02  0.58197615660E+02  0.18146580587E+03  0.20391970464E+03  0.41800000000E+01 0.  1.
        -11    1    4    4    0    0  0.60710362346E+02 -0.47867747597E+02  0.21285070783E+03  0.22645638251E+03  0.00000000000E+00 0. -1.
         11    1    4    4    0    0 -0.10290837366E+02  0.25355965892E+02  0.81429648367E+02  0.85904679577E+02  0.00000000000E+00 0.  1.
</event>
<event>
 8    1  0.3719512E-009  0.1013547E+03  0.7561462E-02  0.1277473E+00
         -3   -1    0    0    0  501 -0.00000000000E+00  0.00000000000E+00  0.26739657602E+03  0.26739657602E+03  0.00000000000E+00 0.  1.
          3   -1    0    0  501    0  0.00000000000E+00 -0.00000000000E+00 -0.53168419298E+02  0.53168419298E+02  0.00000000000E+00 0. -1.
         25    2    1    2    0    0  0.33414481703E+02  0.15817080796E+02  0.78275907132E+02  0.15212566495E+03  0.12509353567E+03 0.  0.
         23    2    1    2    0    0 -0.33414481703E+02 -0.15817080796E+02  0.13595224959E+03  0.16843933037E+03  0.92315146177E+02 0.  0.
          5    1    3    3  502    0  0.42797696592E+01 -0.50561899903E+02  0.88758566807E+01  0.51682447523E+02  0.41800000000E+01 0.  1.
         -5    1    3    3    0  502  0.29134712044E+02  0.66378980699E+02  0.69400050451E+02  0.10044321743E+03  0.41800000000E+01 0.  1.
        -11    1    4    4    0    0 -0.30484562173E+02 -0.42520614026E+02  0.32581460047E+02  0.61634914511E+02  0.00000000000E+00 0. -1.
         11    1    4    4    0    0 -0.29299195306E+01  0.26703533230E+02  0.10337078955E+03  0.10680441586E+03  0.00000000000E+00 0.  1.
</event>
<event>
 8    1  0.3719512E-009  0.2153902E+03  0.7561462E-02  0.1137367E+00
         -2   -1    0    0    0  501 -0.00000000000E+00  0.00000000000E+00  0.19135624342E+02  0.19135624342E+02  0.00000000000E+00 0.  1.
          2   -1    0    0  501    0  0.00000000000E+00 -0.00000000000E+00 -0.29018253804E+04  0.29018253804E+04  0.00000000000E+00 0. -1.
         25    2    1    2    0    0 -0.10226627362E+03  0.16911958155E+03 -0.19021041485E+04  0.19164309796E+04  0.12509070418E+03 0.  0.
         23    2    1    2    0    0  0.10226627362E+03 -0.16911958155E+03 -0.98058560756E+03  0.10045300251E+04  0.92046803683E+02 0.  0.
          5    1    3    3  502    0 -0.67126579071E+02  0.38124402469E+02 -0.11182277676E+04  0.11208970783E+04  0.41800000000E+01 0.  1.
         -5    1    3    3    0  502 -0.35139694546E+02  0.13099517908E+03 -0.78387638097E+03  0.79553390130E+03  0.41800000000E+01 0.  1.
        -11    1    4    4    0    0  0.73945054788E+02 -0.37051733721E+02 -0.34977710235E+03  0.35942276420E+03  0.00000000000E+00 0. -1.
         11    1    4    4    0    0  0.28321218829E+02 -0.13206784782E+03 -0.63080850521E+03  0.64510726094E+03  0.00000000000E+00 0.  1.
</event>
<event>
 8    1  0.3719512E-009  0.1043353E+03  0.7561462E-02  0.1271435E+00
          2   -1    0    0  501    0  0.00000000000E+00  0.00000000000E+00  0.37740206521E+03  0.37740206521E+03  0.00000000000E+00 0. -1.
         -2   -1    0    0    0  501 -0.00000000000E+00 -0.00000000000E+00 -0.38165419869E+02  0.38165419869E+02  0.00000000000E+00 0.  1.
         25    2    1    2    0    0 -0.29705545911E+02  0.25378950150E+02  0.13418516719E+03  0.18756010095E+03  0.12508645732E+03 0.  0.
         23    2    1    2    0    0  0.29705545911E+02 -0.25378950150E+02  0.20505147815E+03  0.22800738413E+03  0.91731935312E+02 0.  0.
          5    1    3    3  502    0 -0.31712592527E+01  0.62734802234E+02  0.12596551198E+03  0.14082079003E+03  0.41800000000E+01 0. -1.
         -5    1    3    3    0  502 -0.26534286658E+02 -0.37355852084E+02  0.82196552085E+01  0.46739310918E+02  0.41800000000E+01 0. -1.
        -11    1    4    4    0    0 -0.18666779061E+02  0.24117524208E+02  0.62746796810E+02  0.69765780468E+02  0.00000000000E+00 0.  1.
         11    1    4    4    0    0  0.48372324972E+02 -0.49496474358E+02  0.14230468134E+03  0.15824160366E+03  0.00000000000E+00 0. -1.
</event>
<event>
 8    1  0.3719512E-009  0.2040587E+03  0.7561462E-02  0.1146359E+00
          2   -1    0    0  501    0  0.00000000000E+00  0.00000000000E+00  0.69587739046E+03  0.69587739046E+03  0.00000000000E+00 0. -1.
         -2   -1    0    0    0  501 -0.00000000000E+00 -0.00000000000E+00 -0.10871767412E+03  0.10871767412E+03  0.00000000000E+00 0.  1.
         25    2    1    2    0    0  0.66347600516E+02  0.17302393284E+03  0.55154199093E+03  0.59513430774E+03  0.12508793330E+03 0.  0.
         23    2    1    2    0    0 -0.66347600516E+02 -0.17302393284E+03  0.35617725406E+02  0.20946075685E+03  0.90916999886E+02 0.  0.
          5    1    3    3  502    0  0.93827429767E+02  0.17072254240E+03  0.46387207565E+03  0.50313472155E+03  0.41800000000E+01 0. -1.
         -5    1    3    3    0  502 -0.27479829251E+02  0.23013904383E+01  0.87669915279E+02  0.91999586188E+02  0.41800000000E+01 0. -1.
        -11    1    4    4    0    0 -0.44853966593E+02 -0.12324903152E+03 -0.18971871852E+02  0.13252220195E+03  0.00000000000E+00 0.  1.
         11    1    4    4    0    0 -0.21493633924E+02 -0.49774901317E+02  0.54589597258E+02  0.76938554894E+02  0.00000000000E+00 0. -1.
</event>
<event>
 8    1  0.3719512E-009  0.9756104E+02  0.7561462E-02  0.1285510E+00
          2   -1    0    0  501    0  0.00000000000E+00  0.00000000000E+00  0.50357566401E+03  0.50357566401E+03  0.00000000000E+00 0.  1.
         -2   -1    0    0    0  501 -0.00000000000E+00 -0.00000000000E+00 -0.27719658377E+02  0.27719658377E+02  0.00000000000E+00 0. -1.
         25    2    1    2    0    0  0.44348807431E+02 -0.12890736252E+02  0.27935531305E+03  0.30954887524E+03  0.12509247552E+03 0.  0.
         23    2    1    2    0    0 -0.44348807431E+02  0.12890736252E+02  0.19650069259E+03  0.22174644715E+03  0.91793119765E+02 0.  0.
          5    1    3    3  502    0 -0.13200114367E+01 -0.64079994656E+02  0.14678273114E+03  0.16022056893E+03  0.41800000000E+01 0.  1.
         -5    1    3    3    0  502  0.45668818867E+02  0.51189258404E+02  0.13257258191E+03  0.14932830631E+03  0.41800000000E+01 0.  1.
        -11    1    4    4    0    0 -0.20086530636E+02 -0.15095063416E+02  0.36724849523E+01  0.25393243161E+02  0.00000000000E+00 0. -1.
         11    1    4    4    0    0 -0.24262276795E+02  0.27985799668E+02  0.19282820763E+03  0.19635320399E+03  0.00000000000E+00 0.  1.
</event>
<event>
 8    1  0.3719512E-009  0.1119882E+03  0.7561462E-02  0.1256932E+00
          1   -1    0    0  501    0  0.00000000000E+00  0.00000000000E+00  0.90620975927E+02  0.90620975927E+02  0.00000000000E+00 0. -1.
         -1   -1    0    0    0  501 -0.00000000000E+00 -0.00000000000E+00 -0.17813531674E+03  0.17813531674E+03  0.00000000000E+00 0.  1.
         25    2    1    2    0    0  0.56069556239E+02 -0.98886547485E+01 -0.82320612847E+02  0.16020631882E+03  0.12509116940E+03 0.  0.
         23    2    1    2    0    0 -0.56069556239E+02  0.98886547485E+01 -0.51937279645E+01  0.10854997384E+03  0.92274272586E+02 0.  0.
          5    1    3    3  502    0  0.93638793524E+02 -0.11473128259E+02 -0.77310130590E+02  0.12204173473E+03  0.41800000000E+01 0. -1.
         -5    1    3    3    0  502 -0.37569237285E+02  0.15844735100E+01 -0.50104822567E+01  0.38164584092E+02  0.41800000000E+01 0. -1.
        -11    1    4    4    0    0  0.43300622850E+01  0.28251412973E+02 -0.29340329202E+02  0.40960306298E+02  0.00000000000E+00 0.  1.
         11    1    4    4    0    0 -0.60399618524E+02 -0.18362758224E+02  0.24146601237E+02  0.67589667544E+02  0.00000000000E+00 0. -1.
</event>
<event>
 8    1  0.3719512E-009  0.1193420E+03  0.7561462E-02  0.1244186E+00
          2   -1    0    0  501    0  0.00000000000E+00  0.00000000000E+00  0.46697496097E+03  0.46697496097E+03  0.00000000000E+00 0. -1.
         -2   -1    0    0    0  501 -0.00000000000E+00 -0.00000000000E+00 -0.48835973466E+02  0.48835973466E+02  0.00000000000E+00 0.  1.
         25    2    1    2    0    0  0.31989558413E+02  0.67388071988E+02  0.97911608400E+02  0.17549945086E+03  0.12509552390E+03 0.  0.
         23    2    1    2    0    0 -0.31989558413E+02 -0.67388071988E+02  0.32022737911E+03  0.34031148358E+03  0.87760169946E+02 0.  0.
          5    1    3    3  502    0  0.42324814229E+02 -0.24190352690E+02  0.55423550300E+02  0.73931085415E+02  0.41800000000E+01 0.  1.
         -5    1    3    3    0  502 -0.10335255816E+02  0.91578424677E+02  0.42488058100E+02  0.10156836545E+03  0.41800000000E+01 0.  1.
        -11    1    4    4    0    0  0.87282427777E+01  0.79867758061E+01  0.37007414114E+01  0.12396221068E+02  0.00000000000E+00 0.  1.
         11    1    4    4    0    0 -0.40717801190E+02 -0.75374847794E+02  0.31652663770E+03  0.32791526251E+03  0.00000000000E+00 0. -1.
</event>
<event>
 8    1  0.3719512E-009  0.1273618E+03  0.7561462E-02  0.1231424E+00
         -2   -1    0    0    0  501 -0.00000000000E+00  0.00000000000E+00  0.74708589762E+03  0.74708589762E+03  0.00000000000E+00 0.  1.
          2   -1    0    0  501    0  0.00000000000E+00 -0.00000000000E+00 -0.32623612486E+02  0.32623612486E+02  0.00000000000E+00 0. -1.
         25    2    1    2    0    0 -0.10164780868E+03  0.44928763119E+02  0.37522759427E+03  0.41084448135E+03  0.12508624858E+03 0.  0.
         23    2    1    2    0    0  0.10164780868E+03 -0.44928763119E+02  0.33923469086E+03  0.36886502875E+03  0.92899748085E+02 0.  0.
          5    1    3    3  502    0 -0.59494140325E+02 -0.18444235306E+01  0.45248385690E+02  0.74885535578E+02  0.41800000000E+01 0.  1.
         -5    1    3    3    0  502 -0.42153668350E+02  0.46773186650E+02  0.32997920858E+03  0.33595894577E+03  0.41800000000E+01 0.  1.
        -11    1    4    4    0    0  0.11325972825E+01  0.14922319925E+02  0.67819887149E+01  0.16430270220E+02  0.00000000000E+00 0. -1.
         11    1    4    4    0    0  0.10051521139E+03 -0.59851083045E+02  0.33245270214E+03  0.35243475853E+03  0.00000000000E+00 0.  1.
</event>
<event>
 8    1  0.3719512E-009  0.6922462E+02  0.7561462E-02  0.1362750E+00
          2   -1    0    0  501    0  0.00000000000E+00  0.00000000000E+00  0.40690524269E+03  0.40690524269E+03  0.00000000000E+00 0. -1.
         -2   -1    0    0    0  501 -0.00000000000E+00 -0.00000000000E+00 -0.31581391975E+02  0.31581391975E+02  0.00000000000E+00 0.  1.
         25    2    1    2    0    0  0.14294805868E+02  0.22633969967E+02  0.25883359628E+03  0.28871936700E+03  0.12508958490E+03 0.  0.
         23    2    1    2    0    0 -0.14294805868E+02 -0.22633969967E+02  0.11649025444E+03  0.14976726766E+03  0.90241991404E+02 0.  0.
          5    1    3    3  502    0  0.26835183654E+02  0.75109164106E+01 -0.91717217935E+00  0.28193164985E+02  0.41800000000E+01 0. -1.
         -5    1    3    3    0  502 -0.12540377786E+02  0.15123053557E+02  0.25975076846E+03  0.26052620202E+03  0.41800000000E+01 0. -1.
        -11    1    4    4    0    0 -0.49311434666E+02 -0.24612784031E+02  0.49169217800E+02  0.73858098443E+02  0.00000000000E+00 0.  1.
         11    1    4    4    0    0  0.35016628798E+02  0.19788140634E+01  0.67321036637E+02  0.75909169218E+02  0.00000000000E+00 0. -1.
</event>
<event>
 8    1  0.3719512E-009  0.6512876E+02  0.7561462E-02  0.1377488E+00
         -4   -1    0    0    0  501 -0.00000000000E+00  0.00000000000E+00  0.11332223829E+03  0.11332223829E+03  0.00000000000E+00 0.  1.
          4   -1    0    0  501    0  0.00000000000E+00 -0.00000000000E+00 -0.11149089992E+03  0.11149089992E+03  0.00000000000E+00 0. -1.
         25    2    1    2    0    0  0.25506503824E+02 -0.48703164973E+01  0.22507807003E+02  0.12972417876E+03  0.12508980557E+03 0.  0.
         23    2    1    2    0    0 -0.25506503824E+02  0.48703164973E+01 -0.20676468627E+02  0.95088959447E+02  0.89107194624E+02 0.  0.
          5    1    3    3  502    0  0.11105525247E+02 -0.16287408748E+02 -0.50474026446E+02  0.54348064551E+02  0.41800000000E+01 0.  1.
         -5    1    3    3    0  502  0.14400978577E+02  0.11417092251E+02  0.72981833450E+02  0.75376114208E+02  0.41800000000E+01 0.  1.
        -11    1    4    4    0    0 -0.33470813549E+02  0.41760667023E+02 -0.35263941938E+01  0.53634728730E+02  0.00000000000E+00 0.  1.
         11    1    4    4    0    0  0.79643097251E+01 -0.36890350526E+02 -0.17150074433E+02  0.41454230718E+02  0.00000000000E+00 0. -1.
</event>
<event>
 8    1  0.3719512E-009  0.3390937E+03  0.7561462E-02  0.1067183E+00
          2   -1    0    0  501    0  0.00000000000E+00  0.00000000000E+00  0.15283744785E+03  0.15283744785E+03  0.00000000000E+00 0. -1.
         -2   -1    0    0    0  501 -0.00000000000E+00 -0.00000000000E+00 -0.87406998582E+03  0.87406998582E+03  0.00000000000E+00 0.  1.
         25    2    1    2    0    0  0.19854760500E+03  0.26272851122E+03 -0.20474039370E+03  0.40744970150E+03  0.12509679604E+03 0.  0.
         23    2    1    2    0    0 -0.19854760500E+03 -0.26272851122E+03 -0.51649214427E+03  0.61945773218E+03  0.92283935783E+02 0.  0.
          5    1    3    3  502    0 -0.13335881619E+02  0.30951338744E+02 -0.28128866768E+01  0.34076617204E+02  0.41800000000E+01 0. -1.
         -5    1    3    3    0  502  0.21188348662E+03  0.23177717247E+03 -0.20192750702E+03  0.37337308429E+03  0.41800000000E+01 0. -1.
        -11    1    4    4    0    0 -0.55993743155E+02 -0.57229289390E+02 -0.20436396152E+03  0.21948831314E+03  0.00000000000E+00 0.  1.
         11    1    4    4    0    0 -0.14255386185E+03 -0.20549922183E+03 -0.31212818275E+03  0.39996941904E+03  0.00000000000E+00 0. -1.
</event>
<event>
 8    1  0.3719512E-009  0.1834518E+03  0.7561462E-02  0.1164504E+00
         -2   -1    0    0    0  501 -0.00000000000E+00  0.00000000000E+00  0.16903651702E+03  0.16903651702E+03  0.00000000000E+00 0.  1.
          2   -1    0    0  501    0  0.00000000000E+00 -0.00000000000E+00 -0.22821547386E+03  0.22821547386E+03  0.00000000000E+00 0. -1.
         25    2    1    2    0    0 -0.99355717527E+02  0.12321222251E+03 -0.71479566556E+02  0.21403551156E+03  0.12509620853E+03 0.  0.
         23    2    1    2    0    0  0.99355717527E+02 -0.12321222251E+03  0.12300609712E+02  0.18321647932E+03  0.91455797597E+02 0.  0.
          5    1    3    3  502    0  0.92973706107E+01 -0.11521470140E+02 -0.33383660097E+02  0.36757673158E+02  0.41800000000E+01 0. -1.
         -5    1    3    3    0  502 -0.10865308814E+03  0.13473369266E+03 -0.38095906459E+02  0.17727783840E+03  0.41800000000E+01 0. -1.
        -11    1    4    4    0    0  0.90055241651E+02 -0.46954785942E+02  0.26799692422E+02  0.10503771697E+03  0.00000000000E+00 0. -1.
         11    1    4    4    0    0  0.93004758759E+01 -0.76257436573E+02 -0.14499082710E+02  0.78178762357E+02  0.00000000000E+00 0.  1.
</event>
<event>
 8    1  0.3719512E-009  0.2063867E+03  0.7561462E-02  0.1144460E+00
          2   -1    0    0  501    0  0.00000000000E+00  0.00000000000E+00  0.46483229342E+03  0.46483229342E+03  0.00000000000E+00 0. -1.
         -2   -1    0    0    0  501 -0.00000000000E+00 -0.00000000000E+00 -0.17493666428E+03  0.17493666428E+03  0.00000000000E+00 0.  1.
         25    2    1    2    0    0  0.16587132188E+03 -0.10306374813E+03 -0.50373798548E+02  0.23731638570E+03  0.12508443443E+03 0.  0.
         23    2    1    2    0    0 -0.16587132188E+03  0.10306374813E+03  0.34026942769E+03  0.40245257201E+03  0.89718212730E+02 0.  0.
          5    1    3    3  502    0  0.66857865478E+02 -0.59585070732E+02  0.38217240788E+02  0.97459656904E+02  0.41800000000E+01 0. -1.
         -5    1    3    3    0  502  0.99013456404E+02 -0.43478677401E+02 -0.88591039336E+02  0.13985672879E+03  0.41800000000E+01 0. -1.
        -11    1    4    4    0    0 -0.41378700986E+02  0.77433404966E+02  0.13743099030E+03  0.16308098048E+03  0.00000000000E+00 0.  1.
         11    1    4    4    0    0 -0.12449262090E+03  0.25630343167E+02  0.20283843739E+03  0.23937159153E+03  0.00000000000E+00 0. -1.
</event>
<event>
 8    1  0.3719512E-009  0.1199340E+03  0.7561462E-02  0.1243206E+00
         -2   -1    0    0    0  501 -0.00000000000E+00  0.00000000000E+00  0.50654127800E+02  0.50654127800E+02  0.00000000000E+00 0.  1.
          2   -1    0    0  501    0  0.00000000000E+00 -0.00000000000E+00 -0.60948542534E+03  0.60948542534E+03  0.00000000000E+00 0. -1.
         25    2    1    2    0    0  0.63747369153E+02  0.89997702796E+02 -0.45032021212E+03  0.48020919064E+03  0.12509700132E+03 0.  0.
         23    2    1    2    0    0 -0.63747369153E+02 -0.89997702796E+02 -0.10851108542E+03  0.17993036251E+03  0.91852959186E+02 0.  0.
          5    1    3    3  502    0  0.39184382378E+02  0.88164221201E+02 -0.44407905907E+03  0.45445795056E+03  0.41800000000E+01 0.  1.
         -5    1    3    3    0  502  0.24562986776E+02  0.18334815958E+01 -0.62411530580E+01  0.25751240079E+02  0.41800000000E+01 0.  1.
        -11    1    4    4    0    0 -0.31444303636E+02 -0.77573758788E+02 -0.11741192129E+03  0.14419428402E+03  0.00000000000E+00 0. -1.
         11    1    4    4    0    0 -0.32303065517E+02 -0.12423944008E+02  0.89008358696E+01  0.35736078488E+02  0.00000000000E+00 0.  1.
</event>
<event>
 8    1  0.3719512E-009  0.1354940E+03  0.7561462E-02  0.1219524E+00
          3   -1    0    0  501    0  0.00000000000E+00  0.00000000000E+00  0.12887682678E+03  0.12887682678E+03  0.00000000000E+00 0.  1.
         -3   -1    0    0    0  501 -0.00000000000E+00 -0.00000000000E+00 -0.20641280208E+03  0.20641280208E+03  0.00000000000E+00 0. -1.
         25    2    1    2    0    0 -0.20734992051E+02 -0.98311836378E+02  0.29827935012E+02  0.16319549348E+03  0.12509159172E+03 0.  0.
         23    2    1    2    0    0  0.20734992051E+02  0.98311836378E+02 -0.10736391031E+03  0.17209413538E+03  0.89410430759E+02 0.  0.
          5    1    3    3  502    0 -0.28196159522E+02  0.14674672156E+02  0.37848907915E+02  0.49602234275E+02  0.41800000000E+01 0.  1.
         -5    1    3    3    0  502  0.74611674708E+01 -0.11298650853E+03 -0.80209729031E+01  0.11359325921E+03  0.41800000000E+01 0.  1.
        -11    1    4    4    0    0  0.49238893967E+02  0.68630658258E+02 -0.98936320051E+02  0.13008855198E+03  0.00000000000E+00 0. -1.
         11    1    4    4    0    0 -0.28503901917E+02  0.29681178120E+02 -0.84275902592E+01  0.42005583398E+02  0.00000000000E+00 0.  1.
</event>
<event>
 8    1  0.3719512E-009  0.6700360E+02  0.7561462E-02  0.1370589E+00
          1   -1    0    0  501    0  0.00000000000E+00  0.00000000000E+00  0.39816172843E+03  0.39816172843E+03  0.00000000000E+00 0. -1.
         -1   -1    0    0    0  501 -0.00000000000E+00 -0.00000000000E+00 -0.39262544993E+02  0.39262544993E+02  0.00000000000E+00 0.  1.
         25    2    1    2    0    0 -0.82378373837E+01 -0.78075710198E+01  0.32758814864E+03  0.35084182513E+03  0.12508865256E+03 0.  0.
         23    2    1    2    0    0  0.82378373837E+01  0.78075710198E+01  0.31311034794E+02  0.86582448295E+02  0.79920706471E+02 0.  0.
          5    1    3    3  502    0 -0.46681831827E+02 -0.72701473238E+01  0.29902531989E+03  0.30276337757E+03  0.41800000000E+01 0. -1.
         -5    1    3    3    0  502  0.38443994443E+02 -0.53742369598E+00  0.28562828755E+02  0.48078447557E+02  0.41800000000E+01 0. -1.
        -11    1    4    4    0    0  0.20486927341E+02  0.21386908069E+02 -0.17540096229E+02  0.34420473622E+02  0.00000000000E+00 0.  1.
         11    1    4    4    0    0 -0.12249089958E+02 -0.13579337049E+02  0.48851131024E+02  0.52161974673E+02  0.00000000000E+00 0. -1.
</event>
<event>
 8    1  0.3719512E-009  0.9801488E+02  0.7561462E-02  0.1284527E+00
          2   -1    0    0  501    0  0.00000000000E+00  0.00000000000E+00  0.86227617053E+03  0.86227617053E+03  0.00000000000E+00 0. -1.
         -2   -1    0    0    0  501 -0.00000000000E+00 -0.00000000000E+00 -0.24496738280E+02  0.24496738280E+02  0.00000000000E+00 0.  1.
         25    2    1    2    0    0 -0.54275471805E+01  0.77744784470E+02  0.63735091650E+03  0.65417068760E+03  0.12509751384E+03 0.  0.
         23    2    1    2    0    0  0.54275471805E+01 -0.77744784470E+02  0.20042851575E+03  0.23260222121E+03  0.88648144965E+02 0.  0.
          5    1    3    3  502    0 -0.52945666351E+01  0.39256817768E+02  0.43204162432E+02  0.58763953480E+02  0.41800000000E+01 0. -1.
         -5    1    3    3    0  502 -0.13298054544E+00  0.38487966702E+02  0.59414675407E+03  0.59540673412E+03  0.41800000000E+01 0. -1.
        -11    1    4    4    0    0  0.32272362934E+02 -0.83942178105E+02  0.14339513389E+03  0.16926298798E+03  0.00000000000E+00 0.  1.
         11    1    4    4    0    0 -0.26844815754E+02  0.61973936349E+01  0.57033381854E+02  0.63339233232E+02  0.00000000000E+00 0. -1.
</event>
<event>
 8    1  0.3719512E-009  0.1963755E+03  0.7561462E-02  0.1152834E+00
          1   -1    0    0  501    0  0.00000000000E+00  0.00000000000E+00  0.23479416203E+03  0.23479416203E+03  0.00000000000E+00 0.  1.
         -1   -1    0    0    0  501 -0.00000000000E+00 -0.00000000000E+00 -0.25597480674E+03  0.25597480674E+03  0.00000000000E+00 0. -1.
         25    2    1    2    0    0  0.24330085184E+02  0.19373285915E+03 -0.11102544747E+03  0.25709679155E+03  0.12509091286E+03 0.  0.
         23    2    1    2    0    0 -0.24330085184E+02 -0.19373285915E+03  0.89844802759E+02  0.23367217722E+03  0.91685462675E+02 0.  0.
          5    1    3    3  502    0 -0.22127520891E+01  0.90617244744E+02 -0.11967600834E+03  0.15018721879E+03  0.41800000000E+01 0. -1.
         -5    1    3    3    0  502  0.26542837273E+02  0.10311561440E+03  0.86505608645E+01  0.10690957276E+03  0.41800000000E+01 0. -1.
        -11    1    4    4    0    0 -0.58911236292E+01 -0.81624978411E+02  0.87819453722E+02  0.12003998871E+03  0.00000000000E+00 0.  1.
         11    1    4    4    0    0 -0.18438961555E+02 -0.11210788073E+03  0.20253490367E+01  0.11363218851E+03  0.00000000000E+00 0. -1.
</event>
<event>
 8    1  0.3719512E-009  0.7840042E+02  0.7561462E-02  0.1333653E+00
          2   -1    0    0  501    0  0.00000000000E+00  0.00000000000E+00  0.37008770774E+03  0.37008770774E+03  0.00000000000E+00 0. -1.
         -2   -1    0    0    0  501 -0.00000000000E+00 -0.00000000000E+00 -0.48302141234E+02  0.48302141234E+02  0.00000000000E+00 0.  1.
         25    2    1    2    0    0 -0.71978837993E+01 -0.50330826390E+02  0.86098083953E+02  0.16014148657E+03  0.12508962404E+03 0.  0.
         23    2    1    2    0    0  0.71978837993E+01  0.50330826390E+02  0.23568748256E+03  0.25824836241E+03  0.92512840386E+02 0.  0.
          5    1    3    3  502    0  0.94815726404E+01  0.71825736999E+01  0.98114865381E+02  0.98921629553E+02  0.41800000000E+01 0. -1.
         -5    1    3    3    0  502 -0.16679456440E+02 -0.57513400090E+02 -0.12016781428E+02  0.61219857015E+02  0.41800000000E+01 0. -1.
        -11    1    4    4    0    0  0.27845612135E+02 -0.19896684388E+01  0.17547758905E+02  0.32973637019E+02  0.00000000000E+00 0.  1.
         11    1    4    4    0    0 -0.20647728335E+02  0.52320494829E+02  0.21813972365E+03  0.22527472539E+03  0.00000000000E+00 0. -1.
</event>
<event>
 8    1  0.3719512E-009  0.1557799E+03  0.7561462E-02  0.1193545E+00
         -3   -1    0    0    0  501 -0.00000000000E+00  0.00000000000E+00  0.31404898288E+03  0.31404898288E+03  0.00000000000E+00 0.  1.
          3   -1    0    0  501    0  0.00000000000E+00 -0.00000000000E+00 -0.10940101789E+03  0.10940101789E+03  0.00000000000E+00 0. -1.
         25    2    1    2    0    0  0.85646431020E+02 -0.11987514205E+03  0.14650176863E+03  0.24251889930E+03  0.12508911815E+03 0.  0.
         23    2    1    2    0    0 -0.85646431020E+02  0.11987514205E+03  0.58146196367E+02  0.18093110147E+03  0.87462692039E+02 0.  0.
          5    1    3    3  502    0  0.95651746691E+02 -0.98401055660E+02  0.54987644934E+02  0.14789569938E+03  0.41800000000E+01 0. -1.
         -5    1    3    3    0  502 -0.10005315671E+02 -0.21474086391E+02  0.91514123691E+02  0.94623199919E+02  0.41800000000E+01 0. -1.
        -11    1    4    4    0    0 -0.98783290423E+01  0.35313676104E+02  0.56526976820E+02  0.67379048769E+02  0.00000000000E+00 0.  1.
         11    1    4    4    0    0 -0.75768101978E+02  0.84561465947E+02  0.16192195464E+01  0.11355205270E+03  0.00000000000E+00 0. -1.
</event>
<event>
 8    1  0.3719512E-009  0.1465820E+03  0.7561462E-02  0.1204737E+00
         -2   -1    0    0    0  501 -0.00000000000E+00  0.00000000000E+00  0.49892767425E+02  0.49892767425E+02  0.00000000000E+00 0.  1.
          2   -1    0    0  501    0  0.00000000000E+00 -0.00000000000E+00 -0.47312805173E+03  0.47312805173E+03  0.00000000000E+00 0. -1.
         25    2    1    2    0    0 -0.76740397811E+02 -0.75717152538E+02 -0.19580843067E+03  0.25614571994E+03  0.12509001750E+03 0.  0.
         23    2    1    2    0    0  0.76740397811E+02  0.75717152538E+02 -0.22742685364E+03  0.26687509922E+03  0.88753416737E+02 0.  0.
          5    1    3    3  502    0  0.97661729668E+01  0.25209837609E+02 -0.60617940672E+02  0.66505046260E+02  0.41800000000E+01 0.  1.
         -5    1    3    3    0  502 -0.86506570778E+02 -0.10092699015E+03 -0.13519049000E+03  0.18964067368E+03  0.41800000000E+01 0.  1.
        -11    1    4    4    0    0  0.12803226364E+02 -0.16323487055E+02 -0.74155093159E+02  0.77002316046E+02  0.00000000000E+00 0. -1.
         11    1    4    4    0    0  0.63937171448E+02  0.92040639594E+02 -0.15327176048E+03  0.18987278317E+03  0.00000000000E+00 0.  1.
</event>
<event>
 8    1  0.3719512E-009  0.1406063E+03  0.7561462E-02  0.1212516E+00
          3   -1    0    0  501    0  0.00000000000E+00  0.00000000000E+00  0.11932696858E+03  0.11932696858E+03  0.00000000000E+00 0. -1.
         -3   -1    0    0    0  501 -0.00000000000E+00 -0.00000000000E+00 -0.66942614315E+03  0.66942614315E+03  0.00000000000E+00 0.  1.
         25    2    1    2    0    0  0.90814084991E+02  0.80655768004E+02 -0.60321695891E+03  0.62790612391E+03  0.12507137956E+03 0.  0.
         23    2    1    2    0    0 -0.90814084991E+02 -0.80655768004E+02  0.53117784350E+02  0.16084698782E+03  0.91091731406E+02 0.  0.
          5    1    3    3  502    0  0.11370525562E+02  0.48339108122E+02 -0.60237994051E+02  0.78179578874E+02  0.41800000000E+01 0.  1.
         -5    1    3    3    0  502  0.79443559429E+02  0.32316659881E+02 -0.54297896486E+03  0.54972654504E+03  0.41800000000E+01 0.  1.
        -11    1    4    4    0    0 -0.39684185460E+02  0.10451752152E+02  0.36771319956E+02  0.55101757413E+02  0.00000000000E+00 0. -1.
         11    1    4    4    0    0 -0.51129899531E+02 -0.91107520156E+02  0.16346464394E+02  0.10574523040E+03  0.00000000000E+00 0.  1.
</event>
<event>
 8    1  0.3719512E-009  0.1213539E+03  0.7561462E-02  0.1240880E+00
         -2   -1    0    0    0  501 -0.00000000000E+00  0.00000000000E+00  0.28169090958E+03  0.28169090958E+03  0.00000000000E+00 0. -1.
          2   -1    0    0  501    0  0.00000000000E+00 -0.00000000000E+00 -0.74178354055E+02  0.74178354055E+02  0.00000000000E+00 0.  1.
         25    2    1    2    0    0 -0.75806336011E+02 -0.50302668959E+02  0.15056057043E+03  0.21585218983E+03  0.12508686344E+03 0.  0.
         23    2    1    2    0    0  0.75806336011E+02  0.50302668959E+02  0.56951985094E+02  0.14001707380E+03  0.89912698023E+02 0.  0.
          5    1    3    3  502    0 -0.37826838175E+02 -0.88169759874E+02  0.12097875516E+03  0.15446069999E+03  0.41800000000E+01 0. -1.
         -5    1    3    3    0  502 -0.37979497835E+02  0.37867090915E+02  0.29581815273E+02  0.61391489842E+02  0.41800000000E+01 0. -1.
        -11    1    4    4    0    0  0.24376558095E+02  0.62538879209E+01 -0.23795494606E+02  0.34634567447E+02  0.00000000000E+00 0.  1.
         11    1    4    4    0    0  0.51429777916E+02  0.44048781038E+02  0.80747479700E+02  0.10538250635E+03  0.00000000000E+00 0. -1.
</event>
<event>
 8    1  0.3719512E-009  0.1101412E+03  0.7561462E-02  0.1260309E+00
          2   -1    0    0  501    0  0.00000000000E+00  0.00000000000E+00  0.64128107249E+02  0.64128107249E+02  0.00000000000E+00 0. -1.
         -2   -1    0    0    0  501 -0.00000000000E+00 -0.00000000000E+00 -0.23391244944E+03  0.23391244944E+03  0.00000000000E+00 0.  1.
         25    2    1    2    0    0  0.52763392951E+02  0.42311688374E+01 -0.12139015695E+03  0.18216527616E+03  0.12508692661E+03 0.  0.
         23    2    1    2    0    0 -0.52763392951E+02 -0.42311688374E+01 -0.48394185241E+02  0.11587528053E+03  0.91012114837E+02 0.  0.
          5    1    3    3  502    0  0.63184223849E+02  0.42353334931E+02 -0.28864378304E+02  0.81465795633E+02  0.41800000000E+01 0.  1.
         -5    1    3    3    0  502 -0.10420830898E+02 -0.38122166094E+02 -0.92525778641E+02  0.10069948052E+03  0.41800000000E+01 0.  1.
        -11    1    4    4    0    0  0.12624054090E+02 -0.31178905525E+02 -0.22922535105E+02  0.40705448125E+02  0.00000000000E+00 0.  1.
         11    1    4    4    0    0 -0.65387447041E+02  0.26947736687E+02 -0.25471650135E+02  0.75169832404E+02  0.00000000000E+00 0. -1.
</event>
<event>
 8    1  0.3719512E-009  0.2261604E+03  0.7561462E-02  0.1129372E+00
         -2   -1    0    0    0  501 -0.00000000000E+00  0.00000000000E+00  0.93574847544E+02  0.93574847544E+02  0.00000000000E+00 0.  1.
          2   -1    0    0  501    0  0.00000000000E+00 -0.00000000000E+00 -0.66323587327E+03  0.66323587327E+03  0.00000000000E+00 0. -1.
         25    2    1    2    0    0  0.16783531149E+03  0.13393418329E+03 -0.39795001439E+03  0.46916829040E+03  0.12509042140E+03 0.  0.
         23    2    1    2    0    0 -0.16783531149E+03 -0.13393418329E+03 -0.17171101133E+03  0.28764243041E+03  0.84536614116E+02 0.  0.
          5    1    3    3  502    0  0.71107515913E+02  0.40341105291E+00 -0.19527589864E+03  0.20786195070E+03  0.41800000000E+01 0. -1.
         -5    1    3    3    0  502  0.96727795575E+02  0.13353077224E+03 -0.20267411575E+03  0.26130633970E+03  0.41800000000E+01 0. -1.
        -11    1    4    4    0    0 -0.11636582406E+03 -0.77713853173E+02 -0.59645423268E+02  0.15211188152E+03  0.00000000000E+00 0.  1.
         11    1    4    4    0    0 -0.51469487432E+02 -0.56220330115E+02 -0.11206558807E+03  0.13553054889E+03  0.00000000000E+00 0. -1.
</event>
<event>
 8    1  0.3719512E-009  0.8232216E+02  0.7561462E-02  0.1322588E+00
          1   -1    0    0  501    0  0.00000000000E+00  0.00000000000E+00  0.12265011076E+03  0.12265011076E+03  0.00000000000E+00 0. -1.
         -1   -1    0    0    0  501 -0.00000000000E+00 -0.00000000000E+00 -0.16947089996E+03  0.16947089996E+03  0.00000000000E+00 0.  1.
         25    2    1    2    0    0 -0.55754653122E+02 -0.51502756781E+02 -0.85922518475E+02  0.16967754916E+03  0.12508667477E+03 0.  0.
         23    2    1    2    0    0  0.55754653122E+02  0.51502756781E+02  0.39101729283E+02  0.12244346157E+03  0.87762980501E+02 0.  0.
          5    1    3    3  502    0 -0.10548012313E+02  0.50695101130E+01  0.30259059025E+02  0.32711520137E+02  0.41800000000E+01 0. -1.
         -5    1    3    3    0  502 -0.45206640808E+02 -0.56572266894E+02 -0.11618157750E+03  0.13696602902E+03  0.41800000000E+01 0. -1.
        -11    1    4    4    0    0  0.27332076603E+02  0.41213824721E+02 -0.22113242547E+02  0.54172107726E+02  0.00000000000E+00 0.  1.
         11    1    4    4    0    0  0.28422576519E+02  0.10288932060E+02  0.61214971830E+02  0.68271353839E+02  0.00000000000E+00 0. -1.
</event>
<event>
 8    1  0.3719512E-009  0.7243908E+02  0.7561462E-02  0.1351990E+00
         -3   -1    0    0    0  501 -0.00000000000E+00  0.00000000000E+00  0.51417599218E+02  0.51417599218E+02  0.00000000000E+00 0.  1.
          3   -1    0    0  501    0  0.00000000000E+00 -0.00000000000E+00 -0.32952355408E+03  0.32952355408E+03  0.00000000000E+00 0. -1.
         25    2    1    2    0    0 -0.57830919629E+02  0.16996664944E+00 -0.89762072632E+02  0.16447711615E+03  0.12510414822E+03 0.  0.
         23    2    1    2    0    0  0.57830919629E+02 -0.16996664944E+00 -0.18834388223E+03  0.21646403714E+03  0.89659451534E+02 0.  0.
          5    1    3    3  502    0 -0.36293321773E+02 -0.12177963316E+02 -0.11947777583E+03  0.12553055132E+03  0.41800000000E+01 0. -1.
         -5    1    3    3    0  502 -0.21537597855E+02  0.12347929965E+02  0.29715703202E+02  0.38946564837E+02  0.41800000000E+01 0. -1.
        -11    1    4    4    0    0  0.63316499962E+02  0.14993774151E+02 -0.18943834783E+03  0.20030147294E+03  0.00000000000E+00 0. -1.
         11    1    4    4    0    0 -0.54855803332E+01 -0.15163740800E+02  0.10944656081E+01  0.16162564203E+02  0.00000000000E+00 0.  1.
</event>
<event>
 8    1  0.3719512E-009  0.1359341E+03  0.7561462E-02  0.1218907E+00
          3   -1    0    0  501    0  0.00000000000E+00  0.00000000000E+00  0.10173457290E+04  0.10173457290E+04  0.00000000000E+00 0. -1.
         -3   -1    0    0    0  501 -0.00000000000E+00 -0.00000000000E+00 -0.28461465118E+02  0.28461465118E+02  0.00000000000E+00 0.  1.
         25    2    1    2    0    0  0.69676083640E+00 -0.11938127787E+03  0.68376032524E+03  0.70528544717E+03  0.12508798756E+03 0.  0.
         23    2    1    2    0    0 -0.69676083640E+00  0.11938127787E+03  0.30512393865E+03  0.34052174696E+03  0.92747330070E+02 0.  0.
          5    1    3    3  502    0  0.73348529483E+01 -0.25365504790E+02  0.16557673916E+02  0.31445792510E+02  0.41800000000E+01 0.  1.
         -5    1    3    3    0  502 -0.66380921119E+01 -0.94015773076E+02  0.66720265133E+03  0.67383965466E+03  0.41800000000E+01 0.  1.
        -11    1    4    4    0    0 -0.33335901912E+02  0.11263311518E+03  0.24733478415E+03  0.27381014671E+03  0.00000000000E+00 0.  1.
         11    1    4    4    0    0  0.32639141076E+02  0.67481626813E+01  0.57789154506E+02  0.66711600253E+02  0.00000000000E+00 0. -1.
</event>
<event>
 8    1  0.3719512E-009  0.7654758E+02  0.7561462E-02  0.1339145E+00
          1   -1    0    0  501    0  0.00000000000E+00  0.00000000000E+00  0.36060848097E+03  0.36060848097E+03  0.00000000000E+00 0. -1.
         -1   -1    0    0    0  501 -0.00000000000E+00 -0.00000000000E+00 -0.38359865305E+02  0.38359865305E+02  0.00000000000E+00 0.  1.
         25    2    1    2    0    0 -0.29358665564E+01  0.20210589295E+02  0.21825680992E+03  0.25238787157E+03  0.12508603203E+03 0.  0.
         23    2    1    2    0    0  0.29358665564E+01 -0.20210589295E+02  0.10399180575E+03  0.14658047470E+03  0.10126427144E+03 0.  0.
          5    1    3    3  502    0  0.51517504546E+02  0.61476676147E+01  0.40652833840E+02  0.66045229888E+02  0.41800000000E+01 0. -1.
         -5    1    3    3    0  502 -0.54453371102E+02  0.14062921680E+02  0.17760397608E+03  0.18634264168E+03  0.41800000000E+01 0. -1.
        -11    1    4    4    0    0 -0.18221967415E+02 -0.60935776975E+01 -0.15328611303E+02  0.24579221105E+02  0.00000000000E+00 0.  1.
         11    1    4    4    0    0  0.21157833971E+02 -0.14117011597E+02  0.11932041705E+03  0.12200125360E+03  0.00000000000E+00 0. -1.
</event>
<event>
 8    1  0.3719512E-009  0.1068857E+03  0.7561462E-02  0.1266448E+00
         -1   -1    0    0    0  501 -0.00000000000E+00  0.00000000000E+00  0.20990832356E+03  0.20990832356E+03  0.00000000000E+00 0.  1.
          1   -1    0    0  501    0  0.00000000000E+00 -0.00000000000E+00 -0.59130745122E+02  0.59130745122E+02  0.00000000000E+00 0. -1.
         25    2    1    2    0    0 -0.11321635269E+02 -0.17888275836E+02  0.64490335394E+02  0.14231969868E+03  0.12509086072E+03 0.  0.
         23    2    1    2    0    0  0.11321635269E+02  0.17888275836E+02  0.86287243045E+02  0.12671937000E+03  0.90355633930E+02 0.  0.
          5    1    3    3  502    0 -0.64787054849E+02 -0.22092256872E+02  0.54523288905E+02  0.87611025121E+02  0.41800000000E+01 0. -1.
         -5    1    3    3    0  502  0.53465419580E+02  0.42039810351E+01  0.99670464900E+01  0.54708673564E+02  0.41800000000E+01 0. -1.
        -11    1    4    4    0    0  0.34475281233E+02 -0.25051604717E+02  0.51266785694E+02  0.66666417560E+02  0.00000000000E+00 0.  1.
         11    1    4    4    0    0 -0.23153645964E+02  0.42939880554E+02  0.35020457351E+02  0.60052952438E+02  0.00000000000E+00 0. -1.
</event>
<event>
 8    1  0.3719512E-009  0.1004968E+03  0.7561462E-02  0.1279255E+00
          4   -1    0    0  501    0  0.00000000000E+00  0.00000000000E+00  0.36260069718E+03  0.36260069718E+03  0.00000000000E+00 0.  1.
         -4   -1    0    0    0  501 -0.00000000000E+00 -0.00000000000E+00 -0.37883932834E+02  0.37883932834E+02  0.00000000000E+00 0. -1.
         25    2    1    2    0    0 -0.16874592442E+02 -0.36489258365E+02  0.21611288710E+03  0.25292010847E+03  0.12509030119E+03 0.  0.
         23    2    1    2    0    0  0.16874592442E+02  0.36489258365E+02  0.10860387724E+03  0.14756452154E+03  0.91456372219E+02 0.  0.
          5    1    3    3  502    0  0.38525046159E+02 -0.16771838569E+02  0.17748749371E+03  0.18244110440E+03  0.41800000000E+01 0.  1.
         -5    1    3    3    0  502 -0.55399638601E+02 -0.19717419796E+02  0.38625393392E+02  0.70479004074E+02  0.41800000000E+01 0.  1.
        -11    1    4    4    0    0 -0.37376019062E+02  0.23098432516E+02  0.50856587420E+02  0.67207863153E+02  0.00000000000E+00 0. -1.
         11    1    4    4    0    0  0.54250611504E+02  0.13390825849E+02  0.57747289824E+02  0.80356658389E+02  0.00000000000E+00 0.  1.
</event>
<event>
 8    1  0.3719512E-009  0.1433142E+03  0.7561462E-02  0.1208938E+00
          1   -1    0    0  501    0  0.00000000000E+00  0.00000000000E+00  0.94896779728E+03  0.94896779728E+03  0.00000000000E+00 0. -1.
         -1   -1    0    0    0  501 -0.00000000000E+00 -0.00000000000E+00 -0.31248600860E+02  0.31248600860E+02  0.00000000000E+00 0.  1.
         25    2    1    2    0    0  0.25651384406E+02  0.12979135410E+03  0.52905698340E+03  0.55951085942E+03  0.12508925215E+03 0.  0.
         23    2    1    2    0    0 -0.25651384406E+02 -0.12979135410E+03  0.38866221302E+03  0.42070553872E+03  0.91820724013E+02 0.  0.
          5    1    3    3  502    0  0.51528254054E+02  0.63956484345E+02  0.42954934420E+03  0.43735077953E+03  0.41800000000E+01 0. -1.
         -5    1    3    3    0  502 -0.25876869648E+02  0.65834869760E+02  0.99507639203E+02  0.12216007989E+03  0.41800000000E+01 0. -1.
        -11    1    4    4    0    0 -0.27406622691E+02 -0.10004228127E+03  0.37276825230E+03  0.38693119664E+03  0.00000000000E+00 0. -1.
         11    1    4    4    0    0  0.17552382854E+01 -0.29749072834E+02  0.15893960726E+02  0.33774342088E+02  0.00000000000E+00 0.  1.
</event>
<event>
 8    1  0.3719512E-009  0.1154749E+03  0.7561462E-02  0.1250754E+00
          1   -1    0    0  501    0  0.00000000000E+00  0.00000000000E+00  0.73603022596E+03  0.73603022596E+03  0.00000000000E+00 0. -1.
         -1   -1    0    0    0  501 -0.00000000000E+00 -0.00000000000E+00 -0.29935654262E+02  0.29935654262E+02  0.00000000000E+00 0.  1.
         25    2    1    2    0    0  0.20134536794E+02  0.68419535018E+02  0.56679485950E+03  0.58480126466E+03  0.12509785792E+03 0.  0.
         23    2    1    2    0    0 -0.20134536794E+02 -0.68419535018E+02  0.13929971220E+03  0.18116461555E+03  0.91266509556E+02 0.  0.
          5    1    3    3  502    0 -0.51636754289E+02  0.34463324057E+02  0.19857264852E+03  0.20809287407E+03  0.41800000000E+01 0.  1.
         -5    1    3    3    0  502  0.71771291083E+02  0.33956210961E+02  0.36822221098E+03  0.37670839060E+03  0.41800000000E+01 0.  1.
        -11    1    4    4    0    0 -0.32065604536E+02 -0.16723780844E+02  0.46785463871E+01  0.36466102565E+02  0.00000000000E+00 0.  1.
         11    1    4    4    0    0  0.11931067742E+02 -0.51695754174E+02  0.13462116581E+03  0.14469851299E+03  0.00000000000E+00 0. -1.
</event>
<event>
 8    1  0.3719512E-009  0.1793434E+03  0.7561462E-02  0.1168440E+00
          2   -1    0    0  501    0  0.00000000000E+00  0.00000000000E+00  0.25439743594E+03  0.25439743594E+03  0.00000000000E+00 0. -1.
         -2   -1    0    0    0  501 -0.00000000000E+00 -0.00000000000E+00 -0.13413095714E+03  0.13413095714E+03  0.00000000000E+00 0.  1.
         25    2    1    2    0    0 -0.11797824724E+03 -0.90838142392E+02  0.75876668136E+02  0.20874584109E+03  0.12508845859E+03 0.  0.
         23    2    1    2    0    0  0.11797824724E+03  0.90838142392E+02  0.44389810670E+02  0.17978255199E+03  0.90448193864E+02 0.  0.
          5    1    3    3  502    0  0.11198103366E+02  0.20379417594E+02  0.13328769677E+02  0.27126494089E+02  0.41800000000E+01 0.  1.
         -5    1    3    3    0  502 -0.12917635060E+03 -0.11121755999E+03  0.62547898460E+02  0.18161934700E+03  0.41800000000E+01 0.  1.
        -11    1    4    4    0    0  0.30371481251E+02  0.67303152365E+02 -0.92207108161E+01  0.74412113931E+02  0.00000000000E+00 0.  1.
         11    1    4    4    0    0  0.87606765987E+02  0.23534990027E+02  0.53610521486E+02  0.10537043806E+03  0.00000000000E+00 0. -1.
</event>
<event>
 8    1  0.3719512E-009  0.1389884E+03  0.7561462E-02  0.1214697E+00
          1   -1    0    0  501    0  0.00000000000E+00  0.00000000000E+00  0.93372895384E+03  0.93372895384E+03  0.00000000000E+00 0. -1.
         -1   -1    0    0    0  501 -0.00000000000E+00 -0.00000000000E+00 -0.43590921696E+02  0.43590921696E+02  0.00000000000E+00 0.  1.
         25    2    1    2    0    0  0.10184788570E+03  0.52279141203E+02  0.77510744679E+03  0.79343939262E+03  0.12509362601E+03 0.  0.
         23    2    1    2    0    0 -0.10184788570E+03 -0.52279141203E+02  0.11503058535E+03  0.18388048291E+03  0.86451697517E+02 0.  0.
          5    1    3    3  502    0  0.96623704581E+02  0.58035901408E+01  0.68513278893E+03  0.69194958835E+03  0.41800000000E+01 0.  1.
         -5    1    3    3    0  502  0.52241811183E+01  0.46475551062E+02  0.89974657862E+02  0.10148980428E+03  0.41800000000E+01 0.  1.
        -11    1    4    4    0    0 -0.57557286843E+02 -0.66185321864E+02  0.10421753378E+03  0.13621538990E+03  0.00000000000E+00 0. -1.
         11    1    4    4    0    0 -0.44290598856E+02  0.13906180661E+02  0.10813051576E+02  0.47665093014E+02  0.00000000000E+00 0.  1.
</event>
<event>
 8    1  0.3719512E-009  0.1362957E+03  0.7561462E-02  0.1218402E+00
         -1   -1    0    0    0  501 -0.00000000000E+00  0.00000000000E+00  0.25565730529E+02  0.25565730529E+02  0.00000000000E+00 0.  1.
          1   -1    0    0  501    0  0.00000000000E+00 -0.00000000000E+00 -0.10102979014E+04  0.10102979014E+04  0.00000000000E+00 0. -1.
         25    2    1    2    0    0 -0.35093400502E+02 -0.89086004369E+02 -0.76197806612E+03  0.77809032563E+03  0.12508444612E+03 0.  0.
         23    2    1    2    0    0  0.35093400502E+02  0.89086004369E+02 -0.22275410473E+03  0.25777330627E+03  0.87520416591E+02 0.  0.
          5    1    3    3  502    0 -0.48921155914E+02 -0.10958589211E+03 -0.71324596557E+03  0.72328391870E+03  0.41800000000E+01 0. -1.
         -5    1    3    3    0  502  0.13827755412E+02  0.20499887738E+02 -0.48732100547E+02  0.54806406932E+02  0.41800000000E+01 0. -1.
        -11    1    4    4    0    0  0.53471727021E+02  0.94231264225E+02 -0.20416054737E+03  0.23112828873E+03  0.00000000000E+00 0. -1.
         11    1    4    4    0    0 -0.18378326520E+02 -0.51452598556E+01 -0.18593557351E+02  0.26645017538E+02  0.00000000000E+00 0.  1.
</event>
<event>
 8    1  0.3719512E-009  0.1367205E+03  0.7561462E-02  0.1217811E+00
         -2   -1    0    0    0  501 -0.00000000000E+00  0.00000000000E+00  0.41504824456E+02  0.41504824456E+02  0.00000000000E+00 0.  1.
          2   -1    0    0  501    0  0.00000000000E+00 -0.00000000000E+00 -0.67970372073E+03  0.67970372073E+03  0.00000000000E+00 0. -1.
         25    2    1    2    0    0 -0.82140740597E+02 -0.10027366918E+02 -0.54592591693E+03  0.56615266609E+03  0.12508431232E+03 0.  0.
         23    2    1    2    0    0  0.82140740597E+02  0.10027366918E+02 -0.92272979347E+02  0.15505587910E+03  0.93168522437E+02 0.  0.
          5    1    3    3  502    0 -0.24610585620E+02 -0.65041024541E+02 -0.22947562434E+03  0.23981774406E+03  0.41800000000E+01 0.  1.
         -5    1    3    3    0  502 -0.57530154978E+02  0.55013657623E+02 -0.31645029259E+03  0.32633492203E+03  0.41800000000E+01 0.  1.
        -11    1    4    4    0    0  0.18776469963E+01  0.38765624049E+02 -0.35754129079E+02  0.52769848515E+02  0.00000000000E+00 0.  1.
         11    1    4    4    0    0  0.80263093601E+02 -0.28738257131E+02 -0.56518850268E+02  0.10228603059E+03  0.00000000000E+00 0. -1.
</event>
<event>
 8    1  0.3719512E-009  0.1477910E+03  0.7561462E-02  0.1203214E+00
         -1   -1    0    0    0  501 -0.00000000000E+00  0.00000000000E+00  0.63758588249E+03  0.63758588249E+03  0.00000000000E+00 0.  1.
          1   -1    0    0  501    0  0.00000000000E+00 -0.00000000000E+00 -0.47915661063E+02  0.47915661063E+02  0.00000000000E+00 0. -1.
         25    2    1    2    0    0 -0.51512517090E+02  0.12241213536E+03  0.24711001742E+03  0.30716349329E+03  0.12509108921E+03 0.  0.
         23    2    1    2    0    0  0.51512517090E+02 -0.12241213536E+03  0.34256020401E+03  0.37833805026E+03  0.90299039884E+02 0.  0.
          5    1    3    3  502    0 -0.21623229524E+02  0.12343256157E+03  0.11008740799E+03  0.16685284267E+03  0.41800000000E+01 0.  1.
         -5    1    3    3    0  502 -0.29889287566E+02 -0.10204262085E+01  0.13702260943E+03  0.14031065062E+03  0.41800000000E+01 0.  1.
        -11    1    4    4    0    0  0.57862893464E+02 -0.90154951683E+02  0.32249540594E+03  0.33982247808E+03  0.00000000000E+00 0.  1.
         11    1    4    4    0    0 -0.63503763736E+01 -0.32257183682E+02  0.20064798065E+02  0.38515572183E+02  0.00000000000E+00 0. -1.
</event>
<event>
 8    1  0.3719512E-009  0.1014662E+03  0.7561462E-02  0.1277243E+00
         -1   -1    0    0    0  501 -0.00000000000E+00  0.00000000000E+00  0.21583905253E+02  0.21583905253E+02  0.00000000000E+00 0.  1.
          1   -1    0    0  501    0  0.00000000000E+00 -0.00000000000E+00 -0.67174204395E+03  0.67174204395E+03  0.00000000000E+00 0. -1.
         25    2    1    2    0    0 -0.30072182303E+02 -0.39156593453E+02 -0.29081084764E+03  0.32039620847E+03  0.12508079923E+03 0.  0.
         23    2    1    2    0    0  0.30072182303E+02  0.39156593453E+02 -0.35934729106E+03  0.37292974074E+03  0.86651837695E+02 0.  0.
          5    1    3    3  502    0 -0.64377171206E+01  0.34196181019E+02 -0.23574461969E+02  0.42238023807E+02  0.41800000000E+01 0. -1.
         -5    1    3    3    0  502 -0.23634465182E+02 -0.73352774472E+02 -0.26723638567E+03  0.27815818466E+03  0.41800000000E+01 0. -1.
        -11    1    4    4    0    0  0.24840304655E+02 -0.19646333584E+02 -0.60299624907E+02  0.68110674072E+02  0.00000000000E+00 0.  1.
         11    1    4    4    0    0  0.52318776477E+01  0.58802927037E+02 -0.29904766615E+03  0.30481906667E+03  0.00000000000E+00 0. -1.
</event>
<event>
 8    1  0.3719512E-009  0.1150707E+03  0.7561462E-02  0.1251458E+00
         -2   -1    0    0    0  501 -0.00000000000E+00  0.00000000000E+00  0.52025402762E+02  0.52025402762E+02  0.00000000000E+00 0. -1.
          2   -1    0    0  501    0  0.00000000000E+00 -0.00000000000E+00 -0.48008351670E+03  0.48008351670E+03  0.00000000000E+00 0.  1.
         25    2    1    2    0    0 -0.86305987049E+02 -0.26939645660E+02 -0.11029370446E+03  0.18970125719E+03  0.12508955923E+03 0.  0.
         23    2    1    2    0    0  0.86305987049E+02  0.26939645660E+02 -0.31776440948E+03  0.34240766227E+03  0.89968435231E+02 0.  0.
          5    1    3    3  502    0 -0.92228591699E+02 -0.71887265145E+01 -0.13083944911E+03  0.16029418192E+03  0.41800000000E+01 0. -1.
         -5    1    3    3    0  502  0.59226046495E+01 -0.19750919145E+02  0.20545744649E+02  0.29407075273E+02  0.41800000000E+01 0. -1.
        -11    1    4    4    0    0  0.87640084767E+02 -0.18689449496E+01 -0.16395654455E+03  0.18591940704E+03  0.00000000000E+00 0. -1.
         11    1    4    4    0    0 -0.13340977173E+01  0.28808590609E+02 -0.15380786493E+03  0.15648825523E+03  0.00000000000E+00 0.  1.
</event>
<event>
 8    1  0.3719512E-009  0.1629799E+03  0.7561462E-02  0.1185373E+00
         -2   -1    0    0    0  501 -0.00000000000E+00  0.00000000000E+00  0.36168778984E+02  0.36168778984E+02  0.00000000000E+00 0.  1.
          2   -1    0    0  501    0  0.00000000000E+00 -0.00000000000E+00 -0.94630703764E+03  0.94630703764E+03  0.00000000000E+00 0. -1.
         25    2    1    2    0    0 -0.12852260531E+03 -0.71480935094E+02 -0.40412311797E+03  0.44787352369E+03  0.12509042562E+03 0.  0.
         23    2    1    2    0    0  0.12852260531E+03  0.71480935094E+02 -0.50601514068E+03  0.53460229294E+03  0.90114953581E+02 0.  0.
          5    1    3    3  502    0 -0.13167820492E+03 -0.73314153835E+02 -0.41172482721E+03  0.43846199441E+03  0.41800000000E+01 0. -1.
         -5    1    3    3    0  502  0.31555996123E+01  0.18332187402E+01  0.76017092388E+01  0.94115292707E+01  0.41800000000E+01 0. -1.
        -11    1    4    4    0    0  0.12357571410E+03  0.29078461669E+02 -0.41669907413E+03  0.43560834752E+03  0.00000000000E+00 0.  1.
         11    1    4    4    0    0  0.49468912047E+01  0.42402473425E+02 -0.89316066558E+02  0.98993945424E+02  0.00000000000E+00 0. -1.
</event>
<event>
 8    1  0.3719512E-009  0.1086195E+03  0.7561462E-02  0.1263148E+00
         -2   -1    0    0    0  501 -0.00000000000E+00  0.00000000000E+00  0.40446424929E+02  0.40446424929E+02  0.00000000000E+00 0.  1.
          2   -1    0    0  501    0  0.00000000000E+00 -0.00000000000E+00 -0.37956552494E+03  0.37956552494E+03  0.00000000000E+00 0. -1.
         25    2    1    2    0    0 -0.11514544997E+02 -0.46592059812E+01 -0.92614674519E+02  0.15613668019E+03  0.12508753742E+03 0.  0.
         23    2    1    2    0    0  0.11514544997E+02  0.46592059812E+01 -0.24650442549E+03  0.26387526967E+03  0.93335058861E+02 0.  0.
          5    1    3    3  502    0 -0.31249721842E+02 -0.58724985856E+02 -0.60920207248E+02  0.90299020649E+02  0.41800000000E+01 0.  1.
         -5    1    3    3    0  502  0.19735176844E+02  0.54065779875E+02 -0.31694467270E+02  0.65837659543E+02  0.41800000000E+01 0.  1.
        -11    1    4    4    0    0 -0.38195462124E+02  0.16770704183E+02 -0.13261208779E+03  0.13901840048E+03  0.00000000000E+00 0.  1.
         11    1    4    4    0    0  0.49710007122E+02 -0.12111498202E+02 -0.11389233770E+03  0.12485686919E+03  0.00000000000E+00 0. -1.
</event>
<event>
 8    1  0.3719512E-009  0.1985597E+03  0.7561462E-02  0.1150960E+00
         -2   -1    0    0    0  501 -0.00000000000E+00  0.00000000000E+00  0.14630603565E+03  0.14630603565E+03  0.00000000000E+00 0.  1.
          2   -1    0    0  501    0  0.00000000000E+00 -0.00000000000E+00 -0.38131111882E+03  0.38131111882E+03  0.00000000000E+00 0. -1.
         25    2    1    2    0    0 -0.17472758584E+03  0.33723207296E+01  0.73600125759E+01  0.21504380286E+03  0.12509422673E+03 0.  0.
         23    2    1    2    0    0  0.17472758584E+03 -0.33723207296E+01 -0.24236509575E+03  0.31257335161E+03  0.91761422735E+02 0.  0.
          5    1    3    3  502    0 -0.13953630641E+02 -0.40325665469E+02 -0.17935463720E+02  0.46475976186E+02  0.41800000000E+01 0.  1.
         -5    1    3    3    0  502 -0.16077395520E+03  0.43697986199E+02  0.25295476296E+02  0.16856782667E+03  0.41800000000E+01 0.  1.
        -11    1    4    4    0    0  0.18220423523E+02  0.22501078832E+02 -0.88537690537E+01  0.30276585151E+02  0.00000000000E+00 0.  1.
         11    1    4    4    0    0  0.15650716231E+03 -0.25873399562E+02 -0.23351132669E+03  0.28229676646E+03  0.00000000000E+00 0. -1.
</event>
<event>
 8    1  0.3719512E-009  0.9785823E+02  0.7561462E-02  0.1284865E+00
         -2   -1    0    0    0  501 -0.00000000000E+00  0.00000000000E+00  0.14117812024E+03  0.14117812024E+03  0.00000000000E+00 0.  1.
          2   -1    0    0  501    0  0.00000000000E+00 -0.00000000000E+00 -0.11653560601E+03  0.11653560601E+03  0.00000000000E+00 0. -1.
         25    2    1    2    0    0 -0.29058225743E+02 -0.29420133658E+02  0.68169213758E+02  0.14833756133E+03  0.12508823145E+03 0.  0.
         23    2    1    2    0    0  0.29058225743E+02  0.29420133658E+02 -0.43526699532E+02  0.10937616492E+03  0.91425637172E+02 0.  0.
          5    1    3    3  502    0 -0.57782059694E+02  0.29350801041E+02  0.23721182716E+02  0.69140457430E+02  0.41800000000E+01 0. -1.
         -5    1    3    3    0  502  0.28723833951E+02 -0.58770934699E+02  0.44448031042E+02  0.79197103898E+02  0.41800000000E+01 0. -1.
        -11    1    4    4    0    0  0.39726200759E+01  0.38381297445E+02 -0.64710590468E+02  0.75341663258E+02  0.00000000000E+00 0. -1.
         11    1    4    4    0    0  0.25085605667E+02 -0.89611637866E+01  0.21183890936E+02  0.34034501660E+02  0.00000000000E+00 0.  1.
</event>
<event>
 8    1  0.3719512E-009  0.1199289E+03  0.7561462E-02  0.1243214E+00
         -2   -1    0    0    0  501 -0.00000000000E+00  0.00000000000E+00  0.18626989205E+03  0.18626989205E+03  0.00000000000E+00 0. -1.
          2   -1    0    0  501    0  0.00000000000E+00 -0.00000000000E+00 -0.12342798631E+03  0.12342798631E+03  0.00000000000E+00 0.  1.
         25    2    1    2    0    0  0.81133658928E+02  0.31076016121E+02  0.96081666060E+02  0.18007940067E+03  0.12509402306E+03 0.  0.
         23    2    1    2    0    0 -0.81133658928E+02 -0.31076016121E+02 -0.33239760327E+02  0.12961847769E+03  0.90264493032E+02 0.  0.
          5    1    3    3  502    0  0.10773597815E+03 -0.40564990070E+01  0.71676164930E+02  0.12953162236E+03  0.41800000000E+01 0.  1.
         -5    1    3    3    0  502 -0.26602319221E+02  0.35132515128E+02  0.24405501130E+02  0.50547778315E+02  0.41800000000E+01 0.  1.
        -11    1    4    4    0    0 -0.33498334796E+02 -0.19179194567E+02  0.30475287513E+02  0.49180515322E+02  0.00000000000E+00 0. -1.
         11    1    4    4    0    0 -0.47635324132E+02 -0.11896821554E+02 -0.63715047840E+02  0.80437962365E+02  0.00000000000E+00 0.  1.
</event>
<event>
 8    1  0.3719512E-009  0.1471829E+03  0.7561462E-02  0.1203978E+00
         -2   -1    0    0    0  501 -0.00000000000E+00  0.00000000000E+00  0.84501704405E+02  0.84501704405E+02  0.00000000000E+00 0.  1.
          2   -1    0    0  501    0  0.00000000000E+00 -0.00000000000E+00 -0.30734656965E+03  0.30734656965E+03  0.00000000000E+00 0. -1.
         25    2    1    2    0    0 -0.10719640615E+03 -0.50578788028E+02 -0.11230813916E+03  0.20569214145E+03  0.12508739202E+03 0.  0.
         23    2    1    2    0    0  0.10719640615E+03  0.50578788028E+02 -0.11053672608E+03  0.18615613260E+03  0.91577587886E+02 0.  0.
          5    1    3    3  502    0  0.33236330956E+01  0.30495803508E+02 -0.40252520469E+02  0.50781673590E+02  0.41800000000E+01 0.  1.
         -5    1    3    3    0  502 -0.11052003924E+03 -0.81074591536E+02 -0.72055618693E+02  0.15491046786E+03  0.41800000000E+01 0.  1.
        -11    1    4    4    0    0  0.52940388452E+02  0.48780813113E+02 -0.11048767399E+03  0.13187030963E+03  0.00000000000E+00 0. -1.
         11    1    4    4    0    0  0.54256017697E+02  0.17979749141E+01 -0.49052093174E-01  0.54285822977E+02  0.00000000000E+00 0.  1.
</event>
<event>
 8    1  0.3719512E-009  0.1304457E+03  0.7561462E-02  0.1226796E+00
         -2   -1    0    0    0  501 -0.00000000000E+00  0.00000000000E+00  0.79974749472E+02  0.79974749472E+02  0.00000000000E+00 0.  1.
          2   -1    0    0  501    0  0.00000000000E+00 -0.00000000000E+00 -0.28244940315E+03  0.28244940315E+03  0.00000000000E+00 0. -1.
         25    2    1    2    0    0  0.22064361116E+02  0.96071240579E+02 -0.13825862147E+03  0.21090108072E+03  0.12508916876E+03 0.  0.
         23    2    1    2    0    0 -0.22064361116E+02 -0.96071240579E+02 -0.64216032204E+02  0.15152307190E+03  0.95493576887E+02 0.  0.
          5    1    3    3  502    0 -0.39581458454E+02 -0.23491643388E+01 -0.55062402531E+02  0.67981990254E+02  0.41800000000E+01 0. -1.
         -5    1    3    3    0  502  0.61645819570E+02  0.98420404918E+02 -0.83196218940E+02  0.14291909047E+03  0.41800000000E+01 0. -1.
        -11    1    4    4    0    0  0.94777262319E+01 -0.32387392598E+02  0.21626118629E+02  0.40080662429E+02  0.00000000000E+00 0.  1.
         11    1    4    4    0    0 -0.31542087347E+02 -0.63683847981E+02 -0.85842150833E+02  0.11144240947E+03  0.00000000000E+00 0. -1.
</event>
<event>
 8    1  0.3719512E-009  0.8927453E+02  0.7561462E-02  0.1304618E+00
          2   -1    0    0  501    0  0.00000000000E+00  0.00000000000E+00  0.35182022135E+02  0.35182022135E+02  0.00000000000E+00 0. -1.
         -2   -1    0    0    0  501 -0.00000000000E+00 -0.00000000000E+00 -0.36307994799E+03  0.36307994799E+03  0.00000000000E+00 0.  1.
         25    2    1    2    0    0  0.15890629442E+02  0.11308210518E+02 -0.15189067450E+03  0.19773484925E+03  0.12509158997E+03 0.  0.
         23    2    1    2    0    0 -0.15890629442E+02 -0.11308210518E+02 -0.17600725136E+03  0.20052712087E+03  0.94086056060E+02 0.  0.
          5    1    3    3  502    0  0.49789127721E+02  0.34772608093E+02 -0.14290952887E+03  0.15533414742E+03  0.41800000000E+01 0. -1.
         -5    1    3    3    0  502 -0.33898498279E+02 -0.23464397576E+02 -0.89811456252E+01  0.42400701833E+02  0.41800000000E+01 0. -1.
        -11    1    4    4    0    0  0.21048297260E+02 -0.28551780005E+02 -0.23221909085E+02  0.42396839747E+02  0.00000000000E+00 0. -1.
         11    1    4    4    0    0 -0.36938926702E+02  0.17243569487E+02 -0.15278534228E+03  0.15813028113E+03  0.00000000000E+00 0.  1.
</event>
<event>
 8    1  0.3719512E-009  0.1151764E+03  0.7561462E-02  0.1251273E+00
         -1   -1    0    0    0  501 -0.00000000000E+00  0.00000000000E+00  0.81102004033E+02  0.81102004033E+02  0.00000000000E+00 0.  1.
          1   -1    0    0  501    0  0.00000000000E+00 -0.00000000000E+00 -0.33243214117E+03  0.33243214117E+03  0.00000000000E+00 0. -1.
         25    2    1    2    0    0  0.10016164368E+03  0.95891639106E+01 -0.46197548294E+02  0.16705125354E+03  0.12509037098E+03 0.  0.
         23    2    1    2    0    0 -0.10016164368E+03 -0.95891639106E+01 -0.20513258885E+03  0.24648289167E+03  0.92466912718E+02 0.  0.
          5    1    3    3  502    0  0.90035121593E+02 -0.15682762183E+02  0.21487868583E+02  0.93975917373E+02  0.41800000000E+01 0. -1.
         -5    1    3    3    0  502  0.10126522091E+02  0.25271926093E+02 -0.67685416877E+02  0.73075336167E+02  0.41800000000E+01 0. -1.
        -11    1    4    4    0    0 -0.39425096298E+02  0.19494334990E+02 -0.17857523381E+02  0.47468499620E+02  0.00000000000E+00 0.  1.
         11    1    4    4    0    0 -0.60736547385E+02 -0.29083498901E+02 -0.18727506547E+03  0.19901439205E+03  0.00000000000E+00 0. -1.
</event>
<event>
 8    1  0.3719512E-009  0.1338442E+03  0.7561462E-02  0.1221861E+00
         -1   -1    0    0    0  501 -0.00000000000E+00  0.00000000000E+00  0.13396735288E+03  0.13396735288E+03  0.00000000000E+00 0.  1.
          1   -1    0    0  501    0  0.00000000000E+00 -0.00000000000E+00 -0.17212137557E+03  0.17212137557E+03  0.00000000000E+00 0. -1.
         25    2    1    2    0    0 -0.93148751409E+02  0.18250431111E+02 -0.65720815983E+02  0.17022436919E+03  0.12508933643E+03 0.  0.
         23    2    1    2    0    0  0.93148751409E+02 -0.18250431111E+02  0.27566793301E+02  0.13586435926E+03  0.93217100896E+02 0.  0.
          5    1    3    3  502    0  0.22207844239E+02 -0.14568975665E+02 -0.38848441274E+02  0.47245287459E+02  0.41800000000E+01 0. -1.
         -5    1    3    3    0  502 -0.11535659565E+03  0.32819406776E+02 -0.26872374709E+02  0.12297908173E+03  0.41800000000E+01 0. -1.
        -11    1    4    4    0    0  0.10517154598E+03 -0.23353411482E+02  0.42688997898E+02  0.11588264087E+03  0.00000000000E+00 0.  1.
         11    1    4    4    0    0 -0.12022794576E+02  0.51029803710E+01 -0.15122204597E+02  0.19981718393E+02  0.00000000000E+00 0. -1.
</event>
<event>
 8    1  0.3719512E-009  0.1005107E+03  0.7561462E-02  0.1279226E+00
          2   -1    0    0  501    0  0.00000000000E+00  0.00000000000E+00  0.25033476004E+03  0.25033476004E+03  0.00000000000E+00 0. -1.
         -2   -1    0    0    0  501 -0.00000000000E+00 -0.00000000000E+00 -0.66761564071E+02  0.66761564071E+02  0.00000000000E+00 0.  1.
         25    2    1    2    0    0  0.35920675511E+02  0.56450135602E+02  0.85074233797E+02  0.16541460861E+03  0.12508978673E+03 0.  0.
         23    2    1    2    0    0 -0.35920675511E+02 -0.56450135602E+02  0.98498962174E+02  0.15168171551E+03  0.93959483455E+02 0.  0.
          5    1    3    3  502    0  0.50286016613E+02  0.68645368466E+02  0.75569658762E+01  0.85530405189E+02  0.41800000000E+01 0. -1.
         -5    1    3    3    0  502 -0.14365341101E+02 -0.12195232864E+02  0.77517267921E+02  0.79884203416E+02  0.41800000000E+01 0. -1.
        -11    1    4    4    0    0  0.17519001138E+02  0.16353163377E+01 -0.78308770535E+01  0.19259083463E+02  0.00000000000E+00 0.  1.
         11    1    4    4    0    0 -0.53439676649E+02 -0.58085451940E+02  0.10632983923E+03  0.13242263204E+03  0.00000000000E+00 0. -1.
</event>
<event>
 8    1  0.3719512E-009  0.6659200E+02  0.7561462E-02  0.1372081E+00
          1   -1    0    0  501    0  0.00000000000E+00  0.00000000000E+00  0.29396173750E+02  0.29396173750E+02  0.00000000000E+00 0. -1.
         -1   -1    0    0    0  501 -0.00000000000E+00 -0.00000000000E+00 -0.46585361969E+03  0.46585361969E+03  0.00000000000E+00 0.  1.
         25    2    1    2    0    0  0.40537574677E+02 -0.14164395614E+02 -0.26542683976E+03  0.29655390376E+03  0.12509550554E+03 0.  0.
         23    2    1    2    0    0 -0.40537574677E+02  0.14164395614E+02 -0.17103060618E+03  0.19869588968E+03  0.91567806909E+02 0.  0.
          5    1    3    3  502    0  0.39981705844E+02 -0.16595716090E+02 -0.14888680458E+02  0.45968465283E+02  0.41800000000E+01 0.  1.
         -5    1    3    3    0  502  0.55586883302E+00  0.24313204762E+01 -0.25053815930E+03  0.25058543848E+03  0.41800000000E+01 0.  1.
        -11    1    4    4    0    0 -0.20499737623E+02 -0.29996162984E+02 -0.13059764976E+03  0.13555720254E+03  0.00000000000E+00 0.  1.
         11    1    4    4    0    0 -0.20037837053E+02  0.44160558598E+02 -0.40432956414E+02  0.63138687141E+02  0.00000000000E+00 0. -1.
</event>
<event>
 8    1  0.3719512E-009  0.1483930E+03  0.7561462E-02  0.1202462E+00
         -1   -1    0    0    0  501 -0.00000000000E+00  0.00000000000E+00  0.39348506440E+02  0.39348506440E+02  0.00000000000E+00 0.  1.
          1   -1    0    0  501    0  0.00000000000E+00 -0.00000000000E+00 -0.62980238251E+03  0.62980238251E+03  0.00000000000E+00 0. -1.
         25    2    1    2    0    0 -0.21624823303E+02 -0.10894979402E+03 -0.36978858626E+03  0.40586819168E+03  0.12509076660E+03 0.  0.
         23    2    1    2    0    0  0.21624823303E+02  0.10894979402E+03 -0.22066528981E+03  0.26328269727E+03  0.91032510437E+02 0.  0.
          5    1    3    3  502    0 -0.55493960993E+02 -0.10994871649E+03 -0.33578285333E+03  0.35768127846E+03  0.41800000000E+01 0.  1.
         -5    1    3    3    0  502  0.33869137691E+02  0.99892247634E+00 -0.34005732931E+02  0.48186913226E+02  0.41800000000E+01 0.  1.
        -11    1    4    4    0    0 -0.26810327565E+02  0.88855395956E+01 -0.22689254726E+02  0.36229114784E+02  0.00000000000E+00 0.  1.
         11    1    4    4    0    0  0.48435150868E+02  0.10006425442E+03 -0.19797603508E+03  0.22705358249E+03  0.00000000000E+00 0. -1.
</event>
<event>
 8    1  0.3719512E-009  0.8699705E+02  0.7561462E-02  0.1310291E+00
         -3   -1    0    0    0  501 -0.00000000000E+00  0.00000000000E+00  0.21181408388E+02  0.21181408388E+02  0.00000000000E+00 0. -1.
          3   -1    0    0  501    0  0.00000000000E+00 -0.00000000000E+00 -0.60484551229E+03  0.60484551229E+03  0.00000000000E+00 0.  1.
         25    2    1    2    0    0 -0.66080681217E+01 -0.11163789558E+01 -0.42374773194E+03  0.44187553326E+03  0.12508770405E+03 0.  0.
         23    2    1    2    0    0  0.66080681217E+01  0.11163789558E+01 -0.15991637196E+03  0.18415138742E+03  0.91069065002E+02 0.  0.
          5    1    3    3  502    0  0.14886988204E+02  0.59126714517E+02 -0.20043542242E+03  0.20954575097E+03  0.41800000000E+01 0. -1.
         -5    1    3    3    0  502 -0.21495056326E+02 -0.60243093473E+02 -0.22331230952E+03  0.23232978229E+03  0.41800000000E+01 0. -1.
        -11    1    4    4    0    0  0.26234019799E+02  0.88473753350E+01 -0.16067617235E+03  0.16304395790E+03  0.00000000000E+00 0.  1.
         11    1    4    4    0    0 -0.19625951678E+02 -0.77309963793E+01  0.75980039201E+00  0.21107429519E+02  0.00000000000E+00 0. -1.
</event>
<event>
 8    1  0.3719512E-009  0.1322538E+03  0.7561462E-02  0.1224149E+00
         -2   -1    0    0    0  501 -0.00000000000E+00  0.00000000000E+00  0.19683962581E+02  0.19683962581E+02  0.00000000000E+00 0.  1.
          2   -1    0    0  501    0  0.00000000000E+00 -0.00000000000E+00 -0.11695731658E+04  0.11695731658E+04  0.00000000000E+00 0. -1.
         25    2    1    2    0    0 -0.78388559552E+02  0.36357794932E+02 -0.85880391448E+03  0.87215565523E+03  0.12507864689E+03 0.  0.
         23    2    1    2    0    0  0.78388559552E+02 -0.36357794932E+02 -0.29108528871E+03  0.31710147311E+03  0.91411396603E+02 0.  0.
          5    1    3    3  502    0 -0.10233430301E+03  0.59091976723E+02 -0.69783486271E+03  0.70778184442E+03  0.41800000000E+01 0. -1.
         -5    1    3    3    0  502  0.23945743459E+02 -0.22734181791E+02 -0.16096905177E+03  0.16437381081E+03  0.41800000000E+01 0. -1.
        -11    1    4    4    0    0  0.33917479648E+02 -0.55115807708E+02 -0.93535779880E+02  0.11374132847E+03  0.00000000000E+00 0.  1.
         11    1    4    4    0    0  0.44471079905E+02  0.18758012776E+02 -0.19754950883E+03  0.20336014464E+03  0.00000000000E+00 0. -1.
</event>
<event>
 8    1  0.3719512E-009  0.9171832E+02  0.7561462E-02  0.1298743E+00
          2   -1    0    0  501    0  0.00000000000E+00  0.00000000000E+00  0.80038805001E+02  0.80038805001E+02  0.00000000000E+00 0. -1.
         -2   -1    0    0    0  501 -0.00000000000E+00 -0.00000000000E+00 -0.20259691371E+03  0.20259691371E+03  0.00000000000E+00 0.  1.
         25    2    1    2    0    0 -0.69839905643E+00  0.66460203980E+02 -0.69430450865E+02  0.15775140920E+03  0.12508986019E+03 0.  0.
         23    2    1    2    0    0  0.69839905643E+00 -0.66460203980E+02 -0.53127657842E+02  0.12488430951E+03  0.91411685577E+02 0.  0.
          5    1    3    3  502    0 -0.20740617861E+02 -0.13501480424E+02 -0.70885302123E+02  0.75197484400E+02  0.41800000000E+01 0. -1.
         -5    1    3    3    0  502  0.20042218805E+02  0.79961684404E+02  0.14548512582E+01  0.82553924798E+02  0.41800000000E+01 0. -1.
        -11    1    4    4    0    0 -0.13853793037E+02 -0.89947818447E+01  0.23051254310E+02  0.28358314605E+02  0.00000000000E+00 0. -1.
         11    1    4    4    0    0  0.14552192094E+02 -0.57465422136E+02 -0.76178912152E+02  0.96525994907E+02  0.00000000000E+00 0.  1.
</event>
<event>
 8    1  0.3719512E-009  0.1647394E+03  0.7561462E-02  0.1183448E+00
         -3   -1    0    0    0  501 -0.00000000000E+00  0.00000000000E+00  0.21732112029E+03  0.21732112029E+03  0.00000000000E+00 0.  1.
          3   -1    0    0  501    0  0.00000000000E+00 -0.00000000000E+00 -0.17153037651E+03  0.17153037651E+03  0.00000000000E+00 0. -1.
         25    2    1    2    0    0 -0.10200669193E+03  0.12071878792E+03  0.87313098967E+01  0.20174294577E+03  0.12508233066E+03 0.  0.
         23    2    1    2    0    0  0.10200669193E+03 -0.12071878792E+03  0.37059433879E+02  0.18710855103E+03  0.93047392617E+02 0.  0.
          5    1    3    3  502    0 -0.95681362557E+02  0.68937370104E+02 -0.45413713909E+02  0.12644034937E+03  0.41800000000E+01 0. -1.
         -5    1    3    3    0  502 -0.63253293737E+01  0.51781417814E+02  0.54145023805E+02  0.75302596405E+02  0.41800000000E+01 0. -1.
        -11    1    4    4    0    0  0.61879447401E+02 -0.86806575588E+02 -0.21164676038E+02  0.10868482455E+03  0.00000000000E+00 0. -1.
         11    1    4    4    0    0  0.40127244530E+02 -0.33912212330E+02  0.58224109917E+02  0.78423726476E+02  0.00000000000E+00 0.  1.
</event>
<event>
 8    1  0.3719512E-009  0.1190289E+03  0.7561462E-02  0.1244708E+00
          3   -1    0    0  501    0  0.00000000000E+00  0.00000000000E+00  0.45796877310E+02  0.45796877310E+02  0.00000000000E+00 0. -1.
         -3   -1    0    0    0  501 -0.00000000000E+00 -0.00000000000E+00 -0.45630662479E+03  0.45630662479E+03  0.00000000000E+00 0.  1.
         25    2    1    2    0    0  0.12392056301E+02 -0.99514951599E+02 -0.20846888095E+03  0.26299075612E+03  0.12509226526E+03 0.  0.
         23    2    1    2    0    0 -0.12392056301E+02  0.99514951599E+02 -0.20204086653E+03  0.23911274599E+03  0.79357450140E+02 0.  0.
          5    1    3    3  502    0  0.35486181919E+02 -0.51939522265E+02 -0.19945489840E+03  0.20918105071E+03  0.41800000000E+01 0. -1.
         -5    1    3    3    0  502 -0.23094125618E+02 -0.47575429334E+02 -0.90139825498E+01  0.53809705406E+02  0.41800000000E+01 0. -1.
        -11    1    4    4    0    0 -0.31316727086E+02  0.98111769581E+02 -0.13720723268E+03  0.17155897361E+03  0.00000000000E+00 0. -1.
         11    1    4    4    0    0  0.18924670785E+02  0.14031820187E+01 -0.64833633850E+02  0.67553772377E+02  0.00000000000E+00 0.  1.
</event>
<event>
 8    1  0.3719512E-009  0.1248724E+03  0.7561462E-02  0.1235269E+00
          2   -1    0    0  501    0  0.00000000000E+00  0.00000000000E+00  0.13174956319E+04  0.13174956319E+04  0.00000000000E+00 0. -1.
         -2   -1    0    0    0  501 -0.00000000000E+00 -0.00000000000E+00 -0.13537343959E+02  0.13537343959E+02  0.00000000000E+00 0.  1.
         25    2    1    2    0    0  0.46295996157E+02  0.47730832520E+02  0.91071385723E+03  0.92166628467E+03  0.12508980334E+03 0.  0.
         23    2    1    2    0    0 -0.46295996157E+02 -0.47730832520E+02  0.39324443072E+03  0.40936669121E+03  0.92294929129E+02 0.  0.
          5    1    3    3  502    0 -0.41140173175E+02  0.32721230843E+02  0.35778405823E+03  0.36164913593E+03  0.41800000000E+01 0. -1.
         -5    1    3    3    0  502  0.87436169332E+02  0.15009601677E+02  0.55292979901E+03  0.56001714874E+03  0.41800000000E+01 0. -1.
        -11    1    4    4    0    0 -0.71635483697E+02 -0.32795385640E+02  0.22087683194E+03  0.23450747265E+03  0.00000000000E+00 0.  1.
         11    1    4    4    0    0  0.25339487541E+02 -0.14935446880E+02  0.17236759879E+03  0.17485921855E+03  0.00000000000E+00 0. -1.
</event>
<event>
 8    1  0.3719512E-009  0.8128370E+02  0.7561462E-02  0.1325447E+00
          1   -1    0    0  501    0  0.00000000000E+00  0.00000000000E+00  0.16731173215E+03  0.16731173215E+03  0.00000000000E+00 0. -1.
         -1   -1    0    0    0  501 -0.00000000000E+00 -0.00000000000E+00 -0.86287816311E+02  0.86287816311E+02  0.00000000000E+00 0.  1.
         25    2    1    2    0    0  0.17150496557E+02  0.49239121991E+01 -0.55958150419E+01  0.12648065507E+03  0.12509060123E+03 0.  0.
         23    2    1    2    0    0 -0.17150496557E+02 -0.49239121991E+01  0.86619730879E+02  0.12711889339E+03  0.91311832945E+02 0.  0.
          5    1    3    3  502    0 -0.37496909532E+02 -0.77615332267E+01  0.38907805207E+02  0.54749879713E+02  0.41800000000E+01 0.  1.
         -5    1    3    3    0  502  0.54647406089E+02  0.12685445426E+02 -0.44503620249E+02  0.71730775356E+02  0.41800000000E+01 0.  1.
        -11    1    4    4    0    0 -0.47154667321E+00  0.29519329899E+02  0.83681999684E+02  0.88737197753E+02  0.00000000000E+00 0. -1.
         11    1    4    4    0    0 -0.16678949884E+02 -0.34443242098E+02  0.29377311950E+01  0.38381695638E+02  0.00000000000E+00 0.  1.
</event>
<event>
 8    1  0.3719512E-009  0.9833532E+02  0.7561462E-02  0.1283836E+00
          2   -1    0    0  501    0  0.00000000000E+00  0.00000000000E+00  0.49488085420E+03  0.49488085420E+03  0.00000000000E+00 0. -1.
         -2   -1    0    0    0  501 -0.00000000000E+00 -0.00000000000E+00 -0.37698791846E+02  0.37698791846E+02  0.00000000000E+00 0.  1.
         25    2    1    2    0    0  0.72817566941E+01 -0.17840226732E+02  0.41052542004E+03  0.42959305457E+03  0.12509106426E+03 0.  0.
         23    2    1    2    0    0 -0.72817566941E+01  0.17840226732E+02  0.46656642307E+02  0.10298659148E+03  0.89766909730E+02 0.  0.
          5    1    3    3  502    0  0.55301453009E+02  0.59811928887E+01  0.10052191468E+03  0.11496152880E+03  0.41800000000E+01 0.  1.
         -5    1    3    3    0  502 -0.48019696315E+02 -0.23821419621E+02  0.31000350536E+03  0.31463152576E+03  0.41800000000E+01 0.  1.
        -11    1    4    4    0    0  0.18432758518E+02 -0.28608093356E+02  0.28422374737E+01  0.34150664794E+02  0.00000000000E+00 0.  1.
         11    1    4    4    0    0 -0.25714515212E+02  0.46448320088E+02  0.43814404833E+02  0.68835926684E+02  0.00000000000E+00 0. -1.
</event>
<event>
 8    1  0.3719512E-009  0.1129769E+03  0.7561462E-02  0.1255154E+00
          3   -1    0    0  501    0  0.00000000000E+00  0.00000000000E+00  0.19716097071E+02  0.19716097071E+02  0.00000000000E+00 0.  1.
         -3   -1    0    0    0  501 -0.00000000000E+00 -0.00000000000E+00 -0.75597001640E+03  0.75597001640E+03  0.00000000000E+00 0. -1.
         25    2    1    2    0    0 -0.36295989258E+02  0.36386571304E+01 -0.55795331515E+03  0.57296620941E+03  0.12509091322E+03 0.  0.
         23    2    1    2    0    0  0.36295989258E+02 -0.36386571304E+01 -0.17830060417E+03  0.20271990406E+03  0.89295102847E+02 0.  0.
          5    1    3    3  502    0 -0.37246578428E+02  0.61571296342E+02 -0.32153082792E+03  0.32951157467E+03  0.41800000000E+01 0. -1.
         -5    1    3    3    0  502  0.95058916944E+00 -0.57932639211E+02 -0.23642248723E+03  0.24345463474E+03  0.41800000000E+01 0. -1.
        -11    1    4    4    0    0 -0.17547510001E+02  0.28210645303E+02 -0.73654733599E+02  0.80800837849E+02  0.00000000000E+00 0.  1.
         11    1    4    4    0    0  0.53843499259E+02 -0.31849302433E+02 -0.10464587058E+03  0.12191906621E+03  0.00000000000E+00 0. -1.
</event>
<event>
 8    1  0.3719512E-009  0.1085548E+03  0.7561462E-02  0.1263270E+00
          2   -1    0    0  501    0  0.00000000000E+00  0.00000000000E+00  0.75835768460E+03  0.75835768460E+03  0.00000000000E+00 0. -1.
         -2   -1    0    0    0  501 -0.00000000000E+00 -0.00000000000E+00 -0.36745262553E+02  0.36745262553E+02  0.00000000000E+00 0.  1.
         25    2    1    2    0    0  0.81388467777E+02  0.27447385960E+02  0.59846358920E+03  0.61740052547E+03  0.12508916645E+03 0.  0.
         23    2    1    2    0    0 -0.81388467777E+02 -0.27447385960E+02  0.12314883284E+03  0.17770242169E+03  0.95053006050E+02 0.  0.
          5    1    3    3  502    0  0.45689570395E+02  0.34571249254E+02  0.56457412500E+03  0.56748931544E+03  0.41800000000E+01 0.  1.
         -5    1    3    3    0  502  0.35698897382E+02 -0.71238632940E+01  0.33889464199E+02  0.49911210025E+02  0.41800000000E+01 0.  1.
        -11    1    4    4    0    0 -0.22331832670E+02  0.32132636254E+02  0.64152620237E+02  0.75145031415E+02  0.00000000000E+00 0. -1.
         11    1    4    4    0    0 -0.59056635107E+02 -0.59580022215E+02  0.58996212608E+02  0.10255739027E+03  0.00000000000E+00 0.  1.
</event>
<event>
 8    1  0.3719512E-009  0.1186841E+03  0.7561462E-02  0.1245284E+00
          1   -1    0    0  501    0  0.00000000000E+00  0.00000000000E+00  0.11008211848E+03  0.11008211848E+03  0.00000000000E+00 0.  1.
         -1   -1    0    0    0  501 -0.00000000000E+00 -0.00000000000E+00 -0.14173021795E+03  0.14173021795E+03  0.00000000000E+00 0. -1.
         25    2    1    2    0    0 -0.16970351481E+02  0.59217384262E+02 -0.21555398081E+02  0.14109015895E+03  0.12508839410E+03 0.  0.
         23    2    1    2    0    0  0.16970351481E+02 -0.59217384262E+02 -0.10092701394E+02  0.11072217747E+03  0.91448600509E+02 0.  0.
          5    1    3    3  502    0  0.49807536633E+02  0.47153993384E+02 -0.24727438657E+02  0.73028819106E+02  0.41800000000E+01 0.  1.
         -5    1    3    3    0  502 -0.66777888115E+02  0.12063390878E+02  0.31720405756E+01  0.68061339848E+02  0.41800000000E+01 0.  1.
        -11    1    4    4    0    0  0.76120327570E+01 -0.78692031401E+02 -0.26726358337E+02  0.83454640846E+02  0.00000000000E+00 0. -1.
         11    1    4    4    0    0  0.93583187242E+01  0.19474647139E+02  0.16633656943E+02  0.27267536629E+02  0.00000000000E+00 0.  1.
</event>
<event>
 8    1  0.3719512E-009  0.7142818E+02  0.7561462E-02  0.1355303E+00
          1   -1    0    0  501    0  0.00000000000E+00  0.00000000000E+00  0.45486259931E+02  0.45486259931E+02  0.00000000000E+00 0.  1.
         -1   -1    0    0    0  501 -0.00000000000E+00 -0.00000000000E+00 -0.27712217677E+03  0.27712217677E+03  0.00000000000E+00 0. -1.
         25    2    1    2    0    0  0.15642721032E+02  0.13431760398E+02 -0.99739759447E+02  0.16130873618E+03  0.12508949534E+03 0.  0.
         23    2    1    2    0    0 -0.15642721032E+02 -0.13431760398E+02 -0.13189615739E+03  0.16129970052E+03  0.90531155657E+02 0.  0.
          5    1    3    3  502    0  0.46754585830E+02  0.22669083058E+02  0.42412632030E+01  0.52300471665E+02  0.41800000000E+01 0.  1.
         -5    1    3    3    0  502 -0.31111864797E+02 -0.92373226601E+01 -0.10398102265E+03  0.10900826451E+03  0.41800000000E+01 0.  1.
        -11    1    4    4    0    0  0.13161587540E+02 -0.23960661630E+02 -0.12740421296E+03  0.13030416022E+03  0.00000000000E+00 0. -1.
         11    1    4    4    0    0 -0.28804308572E+02  0.10528901232E+02 -0.44919444337E+01  0.30995540296E+02  0.00000000000E+00 0.  1.
</event>
<event>
 8    1  0.3719512E-009  0.1335993E+03  0.7561462E-02  0.1222211E+00
          1   -1    0    0  501    0  0.00000000000E+00  0.00000000000E+00  0.31255267988E+02  0.31255267988E+02  0.00000000000E+00 0. -1.
         -1   -1    0    0    0  501 -0.00000000000E+00 -0.00000000000E+00 -0.63909505474E+03  0.63909505474E+03  0.00000000000E+00 0.  1.
         25    2    1    2    0    0 -0.87330932296E+02 -0.71231222987E+01 -0.38223047807E+03  0.41161328851E+03  0.12509168757E+03 0.  0.
         23    2    1    2    0    0  0.87330932296E+02  0.71231222987E+01 -0.22560930868E+03  0.25873703422E+03  0.91476019305E+02 0.  0.
          5    1    3    3  502    0 -0.81641638022E+02 -0.53598463870E+02 -0.18943392755E+03  0.21316856638E+03  0.41800000000E+01 0. -1.
         -5    1    3    3    0  502 -0.56892942733E+01  0.46475341571E+02 -0.19279655053E+03  0.19844472212E+03  0.41800000000E+01 0. -1.
        -11    1    4    4    0    0  0.94873104776E+02  0.29073032526E+02 -0.20476720324E+03  0.22754286355E+03  0.00000000000E+00 0.  1.
         11    1    4    4    0    0 -0.75421724805E+01 -0.21949910227E+02 -0.20842105440E+02  0.31194170671E+02  0.00000000000E+00 0. -1.
</event>
<event>
 8    1  0.3719512E-009  0.1034047E+03  0.7561462E-02  0.1273295E+00
         -1   -1    0    0    0  501 -0.00000000000E+00  0.00000000000E+00  0.58218418729E+02  0.58218418729E+02  0.00000000000E+00 0.  1.
          1   -1    0    0  501    0  0.00000000000E+00 -0.00000000000E+00 -0.29063140080E+03  0.29063140080E+03  0.00000000000E+00 0. -1.
         25    2    1    2    0    0  0.49663385121E+02  0.51147535843E+02 -0.17936166203E+03  0.23000129233E+03  0.12508983342E+03 0.  0.
         23    2    1    2    0    0 -0.49663385121E+02 -0.51147535843E+02 -0.53051320049E+02  0.11884852720E+03  0.78917726871E+02 0.  0.
          5    1    3    3  502    0  0.10134596997E+01 -0.16611431260E+02 -0.13373461952E+03  0.13483095938E+03  0.41800000000E+01 0. -1.
         -5    1    3    3    0  502  0.48649925421E+02  0.67758967102E+02 -0.45627042503E+02  0.95170332950E+02  0.41800000000E+01 0. -1.
        -11    1    4    4    0    0  0.14459053915E+02  0.99569774966E+01 -0.60013182675E+01  0.18553206244E+02  0.00000000000E+00 0.  1.
         11    1    4    4    0    0 -0.64122439035E+02 -0.61104513339E+02 -0.47050001782E+02  0.10029532096E+03  0.00000000000E+00 0. -1.
</event>
<event>
 8    1  0.3719512E-009  0.9922278E+02  0.7561462E-02  0.1281939E+00
          1   -1    0    0  501    0  0.00000000000E+00  0.00000000000E+00  0.53711374186E+03  0.53711374186E+03  0.00000000000E+00 0. -1.
         -1   -1    0    0    0  501 -0.00000000000E+00 -0.00000000000E+00 -0.34350737890E+02  0.34350737890E+02  0.00000000000E+00 0.  1.
         25    2    1    2    0    0  0.67625849308E+02 -0.33206044884E+02  0.34464349665E+03  0.37430221697E+03  0.12508842044E+03 0.  0.
         23    2    1    2    0    0 -0.67625849308E+02  0.33206044884E+02  0.15811950731E+03  0.19716226278E+03  0.90527798826E+02 0.  0.
          5    1    3    3  502    0  0.26670797343E+02 -0.28598609172E+02  0.15039819761E+02  0.42105586992E+02  0.41800000000E+01 0. -1.
         -5    1    3    3    0  502  0.40955051964E+02 -0.46074357122E+01  0.32960367689E+03  0.33219662997E+03  0.41800000000E+01 0. -1.
        -11    1    4    4    0    0 -0.24990916564E+02 -0.31496288091E+02  0.57565982375E+02  0.70216838444E+02  0.00000000000E+00 0. -1.
         11    1    4    4    0    0 -0.42634932744E+02  0.64702332975E+02  0.10055352494E+03  0.12694542434E+03  0.00000000000E+00 0.  1.
</event>
<event>
 8    1  0.3719512E-009  0.8887299E+02  0.7561462E-02  0.1305604E+00
          3   -1    0    0  501    0  0.00000000000E+00  0.00000000000E+00  0.18031068003E+03  0.18031068003E+03  0.00000000000E+00 0. -1.
         -3   -1    0    0    0  501 -0.00000000000E+00 -0.00000000000E+00 -0.76030277247E+02  0.76030277247E+02  0.00000000000E+00 0.  1.
         25    2    1    2    0    0  0.52591547435E+01  0.30568128359E+02  0.94119650762E+02  0.15958499695E+03  0.12508714327E+03 0.  0.
         23    2    1    2    0    0 -0.52591547435E+01 -0.30568128359E+02  0.10160752018E+02  0.96755960325E+02  0.91084607904E+02 0.  0.
          5    1    3    3  502    0  0.35347753027E+02 -0.49000566411E+01  0.10555826802E+03  0.11150558079E+03  0.41800000000E+01 0. -1.
         -5    1    3    3    0  502 -0.30088598284E+02  0.35468185000E+02 -0.11438617257E+02  0.48079416163E+02  0.41800000000E+01 0. -1.
        -11    1    4    4    0    0 -0.54289206531E+01  0.32046186220E+02 -0.34304899819E+01  0.32683321315E+02  0.00000000000E+00 0. -1.
         11    1    4    4    0    0  0.16976590961E+00 -0.62614314579E+02  0.13591242000E+02  0.64072639010E+02  0.00000000000E+00 0.  1.
</event>
<event>
 8    1  0.3719512E-009  0.9561011E+02  0.7561462E-02  0.1289808E+00
         -2   -1    0    0    0  501 -0.00000000000E+00  0.00000000000E+00  0.21891745882E+03  0.21891745882E+03  0.00000000000E+00 0.  1.
          2   -1    0    0  501    0  0.00000000000E+00 -0.00000000000E+00 -0.68035404351E+02  0.68035404351E+02  0.00000000000E+00 0. -1.
         25    2    1    2    0    0 -0.26261643221E+02 -0.34463816826E+02  0.10910153467E+03  0.17154626553E+03  0.12509015859E+03 0.  0.
         23    2    1    2    0    0  0.26261643221E+02  0.34463816826E+02  0.41780519806E+02  0.11540659764E+03  0.98466453012E+02 0.  0.
          5    1    3    3  502    0 -0.60795511851E+02 -0.61242560767E+02  0.57419531787E+02  0.10373630291E+03  0.41800000000E+01 0.  1.
         -5    1    3    3    0  502  0.34533868630E+02  0.26778743941E+02  0.51682002879E+02  0.67809962624E+02  0.41800000000E+01 0.  1.
        -11    1    4    4    0    0  0.26182084408E+02 -0.27760558300E+00  0.67356095528E+02  0.72266328353E+02  0.00000000000E+00 0.  1.
         11    1    4    4    0    0  0.79558813446E-01  0.34741422409E+02 -0.25575575723E+02  0.43140269287E+02  0.00000000000E+00 0. -1.
</event>
<event>
 8    1  0.3719512E-009  0.1074715E+03  0.7561462E-02  0.1265325E+00
          3   -1    0    0  501    0  0.00000000000E+00  0.00000000000E+00  0.41740520782E+02  0.41740520782E+02  0.00000000000E+00 0. -1.
         -3   -1    0    0    0  501 -0.00000000000E+00 -0.00000000000E+00 -0.30291032552E+03  0.30291032552E+03  0.00000000000E+00 0.  1.
         25    2    1    2    0    0 -0.31737321540E+02 -0.72747917279E+01 -0.13377010766E+03  0.18601553608E+03  0.12508859975E+03 0.  0.
         23    2    1    2    0    0  0.31737321540E+02  0.72747917279E+01 -0.12739969708E+03  0.15863531022E+03  0.88737245058E+02 0.  0.
          5    1    3    3  502    0  0.39174440864E+02 -0.33996314653E+02 -0.41610592266E+02  0.66628072280E+02  0.41800000000E+01 0.  1.
         -5    1    3    3    0  502 -0.70911762405E+02  0.26721522925E+02 -0.92159515391E+02  0.11938746380E+03  0.41800000000E+01 0.  1.
        -11    1    4    4    0    0  0.61527028764E+01  0.42795711601E+02 -0.32379640660E+02  0.54016384676E+02  0.00000000000E+00 0. -1.
         11    1    4    4    0    0  0.25584618664E+02 -0.35520919873E+02 -0.95020056421E+02  0.10461892555E+03  0.00000000000E+00 0.  1.
</event>
<event>
 8    1  0.3719512E-009  0.1565767E+03  0.7561462E-02  0.1192617E+00
         -2   -1    0    0    0  501 -0.00000000000E+00  0.00000000000E+00  0.27722613847E+02  0.27722613847E+02  0.00000000000E+00 0.  1.
          2   -1    0    0  501    0  0.00000000000E+00 -0.00000000000E+00 -0.96775822913E+03  0.96775822913E+03  0.00000000000E+00 0. -1.
         25    2    1    2    0    0 -0.49060516354E+02 -0.11016730500E+03 -0.56965492949E+03  0.59556529131E+03  0.12509000028E+03 0.  0.
         23    2    1    2    0    0  0.49060516354E+02  0.11016730500E+03 -0.37038068579E+03  0.39991555166E+03  0.90591537668E+02 0.  0.
          5    1    3    3  502    0  0.42213578938E+02 -0.35988673463E+02 -0.16363776835E+03  0.17283507311E+03  0.41800000000E+01 0. -1.
         -5    1    3    3    0  502 -0.91274095292E+02 -0.74178631534E+02 -0.40601716113E+03  0.42273021820E+03  0.41800000000E+01 0. -1.
        -11    1    4    4    0    0  0.27900281883E+02  0.11482607306E+03 -0.35264090027E+03  0.37191270122E+03  0.00000000000E+00 0.  1.
         11    1    4    4    0    0  0.21160234471E+02 -0.46587680578E+01 -0.17739785523E+02  0.28002850446E+02  0.00000000000E+00 0. -1.
</event>
<event>
 8    1  0.3719512E-009  0.2070442E+03  0.7561462E-02  0.1143928E+00
         -1   -1    0    0    0  501 -0.00000000000E+00  0.00000000000E+00  0.84994990032E+02  0.84994990032E+02  0.00000000000E+00 0.  1.
          1   -1    0    0  501    0  0.00000000000E+00 -0.00000000000E+00 -0.75355229148E+03  0.75355229148E+03  0.00000000000E+00 0. -1.
         25    2    1    2    0    0 -0.11791698838E+03  0.16051700157E+03 -0.53002751195E+03  0.57986767440E+03  0.12508889815E+03 0.  0.
         23    2    1    2    0    0  0.11791698838E+03 -0.16051700157E+03 -0.13852978950E+03  0.25867960712E+03  0.89746936539E+02 0.  0.
          5    1    3    3  502    0 -0.68908823839E+02  0.84862339196E+02 -0.13055286554E+03  0.17032781839E+03  0.41800000000E+01 0. -1.
         -5    1    3    3    0  502 -0.49008164546E+02  0.75654662374E+02 -0.39947464642E+03  0.40953985601E+03  0.41800000000E+01 0. -1.
        -11    1    4    4    0    0  0.27877371035E+02 -0.10508430036E+03 -0.45542145309E+02  0.11787257950E+03  0.00000000000E+00 0. -1.
         11    1    4    4    0    0  0.90039617350E+02 -0.55432701211E+02 -0.92987644192E+02  0.14080702763E+03  0.00000000000E+00 0.  1.
</event>
<event>
 8    1  0.3719512E-009  0.1682375E+03  0.7561462E-02  0.1179698E+00
         -2   -1    0    0    0  501 -0.00000000000E+00  0.00000000000E+00  0.28689502791E+02  0.28689502791E+02  0.00000000000E+00 0. -1.
          2   -1    0    0  501    0  0.00000000000E+00 -0.00000000000E+00 -0.13300189910E+04  0.13300189910E+04  0.00000000000E+00 0.  1.
         25    2    1    2    0    0 -0.49423971978E+02 -0.14667830732E+03 -0.51570821053E+03  0.55277467616E+03  0.12509048468E+03 0.  0.
         23    2    1    2    0    0  0.49423971978E+02  0.14667830732E+03 -0.78562127764E+03  0.80593381758E+03  0.91494653398E+02 0.  0.
          5    1    3    3  502    0 -0.33224512858E+02 -0.11454877542E+00 -0.29319753825E+02  0.44508445720E+02  0.41800000000E+01 0. -1.
         -5    1    3    3    0  502 -0.16199459120E+02 -0.14656375855E+03 -0.48638845670E+03  0.50826623044E+03  0.41800000000E+01 0. -1.
        -11    1    4    4    0    0  0.25469978525E+01  0.24144511236E+02 -0.28099449787E+02  0.37135208350E+02  0.00000000000E+00 0. -1.
         11    1    4    4    0    0  0.46876974125E+02  0.12253379609E+03 -0.75752182785E+03  0.76879860923E+03  0.00000000000E+00 0.  1.
</event>
<event>
 8    1  0.3719512E-009  0.1194293E+03  0.7561462E-02  0.1244042E+00
         -2   -1    0    0    0  501 -0.00000000000E+00  0.00000000000E+00  0.43047936385E+02  0.43047936385E+02  0.00000000000E+00 0.  1.
          2   -1    0    0  501    0  0.00000000000E+00 -0.00000000000E+00 -0.47833481511E+03  0.47833481511E+03  0.00000000000E+00 0. -1.
         25    2    1    2    0    0  0.49447234766E+02 -0.33714023141E+02 -0.10676055948E+03  0.17500338966E+03  0.12508678967E+03 0.  0.
         23    2    1    2    0    0 -0.49447234766E+02  0.33714023141E+02 -0.32852631924E+03  0.34637936183E+03  0.92018777903E+02 0.  0.
          5    1    3    3  502    0 -0.76826011512E+01  0.37973586541E+02 -0.72403378944E+01  0.39634713674E+02  0.41800000000E+01 0.  1.
         -5    1    3    3    0  502  0.57129835917E+02 -0.71687609681E+02 -0.99520221589E+02  0.13536867599E+03  0.41800000000E+01 0.  1.
        -11    1    4    4    0    0  0.26631838873E+02  0.76648584232E+01 -0.60408356348E+02  0.66461826736E+02  0.00000000000E+00 0.  1.
         11    1    4    4    0    0 -0.76079073639E+02  0.26049164718E+02 -0.26811796289E+03  0.27991753509E+03  0.00000000000E+00 0. -1.
</event>
<event>
 8    1  0.3719512E-009  0.1558241E+03  0.7561462E-02  0.1193494E+00
         -1   -1    0    0    0  501 -0.00000000000E+00  0.00000000000E+00  0.51127974994E+02  0.51127974994E+02  0.00000000000E+00 0.  1.
          1   -1    0    0  501    0  0.00000000000E+00 -0.00000000000E+00 -0.67026965565E+03  0.67026965565E+03  0.00000000000E+00 0. -1.
         25    2    1    2    0    0 -0.70296983995E+02  0.10196478506E+03 -0.16297255558E+03  0.23988781712E+03  0.12509047757E+03 0.  0.
         23    2    1    2    0    0  0.70296983995E+02 -0.10196478506E+03 -0.45616912508E+03  0.48150981353E+03  0.91776611945E+02 0.  0.
          5    1    3    3  502    0 -0.96531081593E+02  0.57257061534E+02 -0.67130464382E+02  0.13084568184E+03  0.41800000000E+01 0.  1.
         -5    1    3    3    0  502  0.26234097598E+02  0.44707723524E+02 -0.95842091203E+02  0.10904213528E+03  0.41800000000E+01 0.  1.
        -11    1    4    4    0    0  0.59237763507E+02 -0.16971114980E+02 -0.12408498505E+03  0.13854318779E+03  0.00000000000E+00 0.  1.
         11    1    4    4    0    0  0.11059220488E+02 -0.84993670078E+02 -0.33208414003E+03  0.34296662574E+03  0.00000000000E+00 0. -1.
</event>
<event>
 8    1  0.3719512E-009  0.1252537E+03  0.7561462E-02  0.1234673E+00
          1   -1    0    0  501    0  0.00000000000E+00  0.00000000000E+00  0.80358004584E+03  0.80358004584E+03  0.00000000000E+00 0. -1.
         -1   -1    0    0    0  501 -0.00000000000E+00 -0.00000000000E+00 -0.22673344531E+02  0.22673344531E+02  0.00000000000E+00 0.  1.
         25    2    1    2    0    0  0.74458487717E+02 -0.22404216499E+02  0.49246013050E+03  0.51401454881E+03  0.12509181006E+03 0.  0.
         23    2    1    2    0    0 -0.74458487717E+02  0.22404216499E+02  0.28844657081E+03  0.31223884157E+03  0.90805587166E+02 0.  0.
          5    1    3    3  502    0 -0.29636947547E+02 -0.22145605026E+02  0.74756568053E+02  0.83515228246E+02  0.41800000000E+01 0. -1.
         -5    1    3    3    0  502  0.10409543526E+03 -0.25861147296E+00  0.41770356245E+03  0.43049932056E+03  0.41800000000E+01 0. -1.
        -11    1    4    4    0    0 -0.38569457205E+02 -0.27684269735E+02  0.65260489011E+02  0.80702870121E+02  0.00000000000E+00 0.  1.
         11    1    4    4    0    0 -0.35889030512E+02  0.50088486233E+02  0.22318608180E+03  0.23153597145E+03  0.00000000000E+00 0. -1.
</event>
<event>
 8    1  0.3719512E-009  0.2798289E+03  0.7561462E-02  0.1095782E+00
         -1   -1    0    0    0  501 -0.00000000000E+00  0.00000000000E+00  0.55913852293E+03  0.55913852293E+03  0.00000000000E+00 0.  1.
          1   -1    0    0  501    0  0.00000000000E+00 -0.00000000000E+00 -0.15919895204E+03  0.15919895204E+03  0.00000000000E+00 0. -1.
         25    2    1    2    0    0 -0.20355982458E+03 -0.18667299612E+03  0.17126669020E+03  0.34822738001E+03  0.12508644751E+03 0.  0.
         23    2    1    2    0    0  0.20355982458E+03  0.18667299612E+03  0.22867288069E+03  0.37011009495E+03  0.91688529058E+02 0.  0.
          5    1    3    3  502    0 -0.10338743701E+03 -0.83110631666E+02  0.15361805876E+03  0.20300817620E+03  0.41800000000E+01 0. -1.
         -5    1    3    3    0  502 -0.10017238757E+03 -0.10356236446E+03  0.17648631447E+02  0.14521920381E+03  0.41800000000E+01 0. -1.
        -11    1    4    4    0    0  0.33046479498E+02  0.66292596188E+02  0.10163788653E+03  0.12576580654E+03  0.00000000000E+00 0.  1.
         11    1    4    4    0    0  0.17051334508E+03  0.12038039994E+03  0.12703499415E+03  0.24434428841E+03  0.00000000000E+00 0. -1.
</event>
<event>
 8    1  0.3719512E-009  0.1506042E+03  0.7561462E-02  0.1199733E+00
          2   -1    0    0  501    0  0.00000000000E+00  0.00000000000E+00  0.10941406255E+04  0.10941406255E+04  0.00000000000E+00 0.  1.
         -2   -1    0    0    0  501 -0.00000000000E+00 -0.00000000000E+00 -0.27220412921E+02  0.27220412921E+02  0.00000000000E+00 0. -1.
         25    2    1    2    0    0  0.91568059204E+02  0.96107154770E+02  0.50951374590E+03  0.54117700399E+03  0.12508795995E+03 0.  0.
         23    2    1    2    0    0 -0.91568059204E+02 -0.96107154770E+02  0.55740646667E+03  0.58018403442E+03  0.91050810241E+02 0.  0.
          5    1    3    3  502    0  0.53249215923E+02 -0.35381121620E+01  0.66016930220E+02  0.84992380304E+02  0.41800000000E+01 0.  1.
         -5    1    3    3    0  502  0.38318843281E+02  0.99645266932E+02  0.44349681568E+03  0.45618462369E+03  0.41800000000E+01 0.  1.
        -11    1    4    4    0    0 -0.33957919376E+02 -0.69557019079E+02  0.43981449060E+03  0.44657374009E+03  0.00000000000E+00 0.  1.
         11    1    4    4    0    0 -0.57610139828E+02 -0.26550135691E+02  0.11759197607E+03  0.13361029433E+03  0.00000000000E+00 0. -1.
</event>
<event>
 8    1  0.3719512E-009  0.3229688E+03  0.7561462E-02  0.1074291E+00
          2   -1    0    0  501    0  0.00000000000E+00  0.00000000000E+00  0.14065892683E+04  0.14065892683E+04  0.00000000000E+00 0.  1.
         -2   -1    0    0    0  501 -0.00000000000E+00 -0.00000000000E+00 -0.82708657334E+02  0.82708657334E+02  0.00000000000E+00 0. -1.
         25    2    1    2    0    0 -0.11841717493E+03  0.29696901571E+03  0.77322707645E+03  0.84601471945E+03  0.12509024807E+03 0.  0.
         23    2    1    2    0    0  0.11841717493E+03 -0.29696901571E+03  0.55065353452E+03  0.64328320619E+03  0.91546407199E+02 0.  0.
          5    1    3    3  502    0 -0.11924486247E+03  0.29498531066E+03  0.77722740269E+03  0.83984259157E+03  0.41800000000E+01 0.  1.
         -5    1    3    3    0  502  0.82768754295E+00  0.19837050595E+01 -0.40003262449E+01  0.61721278743E+01  0.41800000000E+01 0.  1.
        -11    1    4    4    0    0  0.85253195018E+02 -0.15156879957E+03  0.21903778794E+03  0.27967617133E+03  0.00000000000E+00 0.  1.
         11    1    4    4    0    0  0.33163979908E+02 -0.14540021615E+03  0.33161574658E+03  0.36360703486E+03  0.00000000000E+00 0. -1.
</event>
<event>
 8    1  0.3719512E-009  0.1074360E+03  0.7561462E-02  0.1265393E+00
          2   -1    0    0  501    0  0.00000000000E+00  0.00000000000E+00  0.17607712955E+04  0.17607712955E+04  0.00000000000E+00 0. -1.
         -2   -1    0    0    0  501 -0.00000000000E+00 -0.00000000000E+00 -0.15843407432E+02  0.15843407432E+02  0.00000000000E+00 0.  1.
         25    2    1    2    0    0  0.45889170293E+02  0.46492656214E+02  0.15043020832E+04  0.15109068373E+04  0.12508929050E+03 0.  0.
         23    2    1    2    0    0 -0.45889170293E+02 -0.46492656214E+02  0.24062580485E+03  0.26570786556E+03  0.91828692855E+02 0.  0.
          5    1    3    3  502    0 -0.26182663085E+02  0.80571063233E+01  0.88334294484E+02  0.92578986765E+02  0.41800000000E+01 0.  1.
         -5    1    3    3    0  502  0.72071833378E+02  0.38435549890E+02  0.14159677887E+04  0.14183278506E+04  0.41800000000E+01 0.  1.
        -11    1    4    4    0    0  0.23080216720E+02 -0.17160538158E+01  0.10143796928E+03  0.10404471566E+03  0.00000000000E+00 0. -1.
         11    1    4    4    0    0 -0.68969387014E+02 -0.44776602398E+02  0.13918783557E+03  0.16166314991E+03  0.00000000000E+00 0.  1.
</event>
<event>
 8    1  0.3719512E-009  0.8736542E+02  0.7561462E-02  0.1309360E+00
          1   -1    0    0  501    0  0.00000000000E+00  0.00000000000E+00  0.76838412392E+03  0.76838412392E+03  0.00000000000E+00 0. -1.
         -1   -1    0    0    0  501 -0.00000000000E+00 -0.00000000000E+00 -0.18242001253E+02  0.18242001253E+02  0.00000000000E+00 0.  1.
         25    2    1    2    0    0  0.28582928855E+02 -0.22460299197E+02  0.52753210003E+03  0.54337699631E+03  0.12508794787E+03 0.  0.
         23    2    1    2    0    0 -0.28582928855E+02  0.22460299197E+02  0.22261002264E+03  0.24324912886E+03  0.91068477800E+02 0.  0.
          5    1    3    3  502    0  0.14509345645E+02 -0.47276578506E+02  0.75039371108E+02  0.89966524901E+02  0.41800000000E+01 0.  1.
         -5    1    3    3    0  502  0.14073583209E+02  0.24816279309E+02  0.45249272892E+03  0.45341047141E+03  0.41800000000E+01 0.  1.
        -11    1    4    4    0    0 -0.27912083597E+02 -0.31623545212E+02  0.75085557097E+02  0.86121854990E+02  0.00000000000E+00 0.  1.
         11    1    4    4    0    0 -0.67084525759E+00  0.54083844409E+02  0.14752446555E+03  0.15712727387E+03  0.00000000000E+00 0. -1.
</event>
<event>
 8    1  0.3719512E-009  0.2470290E+03  0.7561462E-02  0.1115197E+00
          3   -1    0    0  501    0  0.00000000000E+00  0.00000000000E+00  0.12759529304E+03  0.12759529304E+03  0.00000000000E+00 0. -1.
         -3   -1    0    0    0  501 -0.00000000000E+00 -0.00000000000E+00 -0.67084119055E+03  0.67084119055E+03  0.00000000000E+00 0.  1.
         25    2    1    2    0    0 -0.10699418598E+03  0.21151828347E+03 -0.45680838356E+03  0.52963189971E+03  0.12509320453E+03 0.  0.
         23    2    1    2    0    0  0.10699418598E+03 -0.21151828347E+03 -0.86437513951E+02  0.26880458388E+03  0.92718500946E+02 0.  0.
          5    1    3    3  502    0 -0.11541011358E+03  0.20152958544E+03 -0.33848142412E+03  0.41051286825E+03  0.41800000000E+01 0.  1.
         -5    1    3    3    0  502  0.84159275938E+01  0.99886980328E+01 -0.11832695944E+03  0.11911903146E+03  0.41800000000E+01 0.  1.
        -11    1    4    4    0    0  0.95324615355E+02 -0.10863874360E+03 -0.79693085780E+02  0.16504589309E+03  0.00000000000E+00 0. -1.
         11    1    4    4    0    0  0.11669570626E+02 -0.10287953987E+03 -0.67444281707E+01  0.10375869079E+03  0.00000000000E+00 0.  1.
</event>
<event>
 8    1  0.3719512E-009  0.1492521E+03  0.7561462E-02  0.1201395E+00
          2   -1    0    0  501    0  0.00000000000E+00  0.00000000000E+00  0.20922030610E+04  0.20922030610E+04  0.00000000000E+00 0. -1.
         -2   -1    0    0    0  501 -0.00000000000E+00 -0.00000000000E+00 -0.14590974224E+02  0.14590974224E+02  0.00000000000E+00 0.  1.
         25    2    1    2    0    0  0.81534315937E+02 -0.81471758902E+02  0.15999063859E+04  0.16089229556E+04  0.12508853473E+03 0.  0.
         23    2    1    2    0    0 -0.81534315937E+02  0.81471758902E+02  0.47770570087E+03  0.49787107954E+03  0.79921104945E+02 0.  0.
          5    1    3    3  502    0 -0.11837586998E+02 -0.61415230106E+02  0.36688812313E+03  0.37220468327E+03  0.41800000000E+01 0. -1.
         -5    1    3    3    0  502  0.93371902935E+02 -0.20056528796E+02  0.12330182627E+04  0.12367182724E+04  0.41800000000E+01 0. -1.
        -11    1    4    4    0    0 -0.74977933821E+02  0.18915752500E+02  0.25795186046E+03  0.26929288622E+03  0.00000000000E+00 0.  1.
         11    1    4    4    0    0 -0.65563821164E+01  0.62556006402E+02  0.21975384041E+03  0.22857819331E+03  0.00000000000E+00 0. -1.
</event>
<event>
 8    1  0.3719512E-009  0.9334526E+02  0.7561462E-02  0.1294947E+00
         -1   -1    0    0    0  501 -0.00000000000E+00  0.00000000000E+00  0.20089475993E+02  0.20089475993E+02  0.00000000000E+00 0.  1.
          1   -1    0    0  501    0  0.00000000000E+00 -0.00000000000E+00 -0.77484036528E+03  0.77484036528E+03  0.00000000000E+00 0. -1.
         25    2    1    2    0    0  0.98351254674E+01 -0.46009357786E+02 -0.54341790188E+03  0.55961014158E+03  0.12508758442E+03 0.  0.
         23    2    1    2    0    0 -0.98351254674E+01  0.46009357786E+02 -0.21133298741E+03  0.23531969970E+03  0.92196197332E+02 0.  0.
          5    1    3    3  502    0 -0.29027382185E+02 -0.13055916683E+02 -0.30927636614E+02  0.44576193012E+02  0.41800000000E+01 0.  1.
         -5    1    3    3    0  502  0.38862507652E+02 -0.32953441103E+02 -0.51249026527E+03  0.51503394856E+03  0.41800000000E+01 0.  1.
        -11    1    4    4    0    0 -0.50747227889E+02  0.17836723147E+02 -0.11324099943E+03  0.12536727556E+03  0.00000000000E+00 0. -1.
         11    1    4    4    0    0  0.40912102421E+02  0.28172634639E+02 -0.98091987986E+02  0.10995242414E+03  0.00000000000E+00 0.  1.
</event>
<event>
 8    1  0.3719512E-009  0.6584701E+02  0.7561462E-02  0.1374813E+00
          1   -1    0    0  501    0  0.00000000000E+00  0.00000000000E+00  0.35966067942E+02  0.35966067942E+02  0.00000000000E+00 0. -1.
         -1   -1    0    0    0  501 -0.00000000000E+00 -0.00000000000E+00 -0.34999314979E+03  0.34999314979E+03  0.00000000000E+00 0.  1.
         25    2    1    2    0    0 -0.12218382321E+02 -0.62118143642E+01 -0.23306752431E+03  0.26486881567E+03  0.12508854114E+03 0.  0.
         23    2    1    2    0    0  0.12218382321E+02  0.62118143642E+01 -0.80959557539E+02  0.12109040206E+03  0.88997528108E+02 0.  0.
          5    1    3    3  502    0 -0.25845122745E+02 -0.94251308606E+01 -0.24464776384E+03  0.24622510882E+03  0.41800000000E+01 0. -1.
         -5    1    3    3    0  502  0.13626740424E+02  0.32133164964E+01  0.11580239535E+02  0.18643706851E+02  0.41800000000E+01 0. -1.
        -11    1    4    4    0    0  0.49812915852E+01  0.47287267541E+02 -0.51066985502E+02  0.69776327975E+02  0.00000000000E+00 0.  1.
         11    1    4    4    0    0  0.72370907360E+01 -0.41075453177E+02 -0.29892572037E+02  0.51314074083E+02  0.00000000000E+00 0. -1.
</event>
<event>
 8    1  0.3719512E-009  0.1115531E+03  0.7561462E-02  0.1257721E+00
          1   -1    0    0  501    0  0.00000000000E+00  0.00000000000E+00  0.23458391809E+03  0.23458391809E+03  0.00000000000E+00 0. -1.
         -1   -1    0    0    0  501 -0.00000000000E+00 -0.00000000000E+00 -0.85588731845E+02  0.85588731845E+02  0.00000000000E+00 0.  1.
         25    2    1    2    0    0  0.53032162156E+02 -0.76584254141E+02  0.88638287141E+02  0.17939828910E+03  0.12509772972E+03 0.  0.
         23    2    1    2    0    0 -0.53032162156E+02  0.76584254141E+02  0.60356899103E+02  0.14077436083E+03  0.86584682205E+02 0.  0.
          5    1    3    3  502    0  0.27485387842E+02 -0.14253294701E+02 -0.29738294809E+02  0.43132835900E+02  0.41800000000E+01 0. -1.
         -5    1    3    3    0  502  0.25546774314E+02 -0.62330959440E+02  0.11837658195E+03  0.13626545320E+03  0.41800000000E+01 0. -1.
        -11    1    4    4    0    0 -0.16411447725E+02  0.85187240396E+02  0.28014691238E+02  0.91164820341E+02  0.00000000000E+00 0.  1.
         11    1    4    4    0    0 -0.36620714431E+02 -0.86029862547E+01  0.32342207866E+02  0.49609540489E+02  0.00000000000E+00 0. -1.
</event>
<event>
 8    1  0.3719512E-009  0.8526178E+02  0.7561462E-02  0.1314749E+00
          3   -1    0    0  501    0  0.00000000000E+00  0.00000000000E+00  0.41332774788E+02  0.41332774788E+02  0.00000000000E+00 0. -1.
         -3   -1    0    0    0  501 -0.00000000000E+00 -0.00000000000E+00 -0.33822119481E+03  0.33822119481E+03  0.00000000000E+00 0.  1.
         25    2    1    2    0    0  0.99813755650E+01 -0.29033597837E+02 -0.11021483840E+03  0.16952193528E+03  0.12509115986E+03 0.  0.
         23    2    1    2    0    0 -0.99813755650E+01  0.29033597837E+02 -0.18667358163E+03  0.21003203432E+03  0.91235145111E+02 0.  0.
          5    1    3    3  502    0  0.39816604474E+02 -0.18190652563E+02  0.10016196114E+02  0.45100536772E+02  0.41800000000E+01 0. -1.
         -5    1    3    3    0  502 -0.29835228909E+02 -0.10842945274E+02 -0.12023103451E+03  0.12442139851E+03  0.41800000000E+01 0. -1.
        -11    1    4    4    0    0 -0.10096105724E+02  0.61369658487E+02 -0.14061728966E+03  0.15375756399E+03  0.00000000000E+00 0. -1.
         11    1    4    4    0    0  0.11473015866E+00 -0.32336060650E+02 -0.46056291964E+02  0.56274470329E+02  0.00000000000E+00 0.  1.
</event>
<event>
 8    1  0.3719512E-009  0.1773519E+03  0.7561462E-02  0.1170391E+00
         -1   -1    0    0    0  501 -0.00000000000E+00  0.00000000000E+00  0.48678626665E+02  0.48678626665E+02  0.00000000000E+00 0.  1.
          1   -1    0    0  501    0  0.00000000000E+00 -0.00000000000E+00 -0.74857003204E+03  0.74857003204E+03  0.00000000000E+00 0. -1.
         25    2    1    2    0    0  0.96925605453E+02 -0.11841238829E+03 -0.43260895945E+03  0.47561884804E+03  0.12508681037E+03 0.  0.
         23    2    1    2    0    0 -0.96925605453E+02  0.11841238829E+03 -0.26728244593E+03  0.32162981066E+03  0.92680971691E+02 0.  0.
          5    1    3    3  502    0 -0.19316552603E+02 -0.24863560647E+02 -0.21777088575E+02  0.38510256288E+02  0.41800000000E+01 0. -1.
         -5    1    3    3    0  502  0.11624215806E+03 -0.93548827640E+02 -0.41083187087E+03  0.43710859175E+03  0.41800000000E+01 0. -1.
        -11    1    4    4    0    0 -0.24041788289E+02 -0.99847080576E+01 -0.17147706200E+02  0.31172837648E+02  0.00000000000E+00 0.  1.
         11    1    4    4    0    0 -0.72883817164E+02  0.12839709634E+03 -0.25013473973E+03  0.29045697301E+03  0.00000000000E+00 0. -1.
</event>
<event>
 8    1  0.3719512E-009  0.1073049E+03  0.7561462E-02  0.1265644E+00
          2   -1    0    0  501    0  0.00000000000E+00  0.00000000000E+00  0.32396309121E+02  0.32396309121E+02  0.00000000000E+00 0.  1.
         -2   -1    0    0    0  501 -0.00000000000E+00 -0.00000000000E+00 -0.65499448923E+03  0.65499448923E+03  0.00000000000E+00 0. -1.
         25    2    1    2    0    0  0.50014203348E+02  0.72592470077E+02 -0.23835246865E+03  0.28324993379E+03  0.12509012124E+03 0.  0.
         23    2    1    2    0    0 -0.50014203348E+02 -0.72592470077E+02 -0.38424571146E+03  0.40414086456E+03  0.88960577706E+02 0.  0.
          5    1    3    3  502    0 -0.11442452813E+01  0.14100631883E+01  0.14711456744E+02  0.15401199141E+02  0.41800000000E+01 0. -1.
         -5    1    3    3    0  502  0.51158448630E+02  0.71182406889E+02 -0.25306392539E+03  0.26784873465E+03  0.41800000000E+01 0. -1.
        -11    1    4    4    0    0  0.24134791881E+02 -0.15128207031E+02 -0.13144540773E+03  0.13449626775E+03  0.00000000000E+00 0. -1.
         11    1    4    4    0    0 -0.74148995230E+02 -0.57464263046E+02 -0.25280030373E+03  0.26964459681E+03  0.00000000000E+00 0.  1.
</event>
<event>
 8    1  0.3719512E-009  0.2010431E+03  0.7561462E-02  0.1148862E+00
          2   -1    0    0  501    0  0.00000000000E+00  0.00000000000E+00  0.14779882132E+04  0.14779882132E+04  0.00000000000E+00 0. -1.
         -2   -1    0    0    0  501 -0.00000000000E+00 -0.00000000000E+00 -0.31496731295E+02  0.31496731295E+02  0.00000000000E+00 0.  1.
         25    2    1    2    0    0  0.89969341655E+02 -0.14929589790E+03  0.97715587013E+03  0.10004324583E+04  0.12509101279E+03 0.  0.
         23    2    1    2    0    0 -0.89969341655E+02  0.14929589790E+03  0.46933561174E+03  0.50905248618E+03  0.92058512213E+02 0.  0.
          5    1    3    3  502    0 -0.18318094740E+02  0.23599783601E+01  0.21429520250E+03  0.21513025893E+03  0.41800000000E+01 0. -1.
         -5    1    3    3    0  502  0.10828743639E+03 -0.15165587626E+03  0.76286066762E+03  0.78530219934E+03  0.41800000000E+01 0. -1.
        -11    1    4    4    0    0 -0.75293342155E+01  0.10085577542E+03  0.25683160682E+03  0.27602726780E+03  0.00000000000E+00 0. -1.
         11    1    4    4    0    0 -0.82440007440E+02  0.48440122484E+02  0.21250400492E+03  0.23302521838E+03  0.00000000000E+00 0.  1.
</event>
<event>
 8    1  0.3719512E-009  0.1227357E+03  0.7561462E-02  0.1238651E+00
          1   -1    0    0  501    0  0.00000000000E+00  0.00000000000E+00  0.66865809100E+03  0.66865809100E+03  0.00000000000E+00 0. -1.
         -1   -1    0    0    0  501 -0.00000000000E+00 -0.00000000000E+00 -0.37850864095E+02  0.37850864095E+02  0.00000000000E+00 0.  1.
         25    2    1    2    0    0  0.23707975938E+02 -0.57271814060E+02  0.12420165561E+03  0.18685894572E+03  0.12509230803E+03 0.  0.
         23    2    1    2    0    0 -0.23707975938E+02  0.57271814060E+02  0.50660557130E+03  0.51965000938E+03  0.97697484987E+02 0.  0.
          5    1    3    3  502    0  0.69072402979E+02 -0.83731160345E+01  0.82838102896E+02  0.10826231855E+03  0.41800000000E+01 0. -1.
         -5    1    3    3    0  502 -0.45364427041E+02 -0.48898698026E+02  0.41363552713E+02  0.78596627170E+02  0.41800000000E+01 0. -1.
        -11    1    4    4    0    0 -0.46206304719E+02 -0.12661031733E+01  0.13266212084E+03  0.14048439031E+03  0.00000000000E+00 0.  1.
         11    1    4    4    0    0  0.22498328782E+02  0.58537917233E+02  0.37394345045E+03  0.37916561908E+03  0.00000000000E+00 0. -1.
</event>
<event>
 8    1  0.3719512E-009  0.9804769E+02  0.7561462E-02  0.1284456E+00
         -2   -1    0    0    0  501 -0.00000000000E+00  0.00000000000E+00  0.99142268461E+02  0.99142268461E+02  0.00000000000E+00 0.  1.
          2   -1    0    0  501    0  0.00000000000E+00 -0.00000000000E+00 -0.16085084059E+03  0.16085084059E+03  0.00000000000E+00 0. -1.
         25    2    1    2    0    0 -0.55215897892E+02  0.21383586517E+02 -0.94016804941E+01  0.13871346199E+03  0.12508788825E+03 0.  0.
         23    2    1    2    0    0  0.55215897892E+02 -0.21383586517E+02 -0.52306891632E+02  0.12127964706E+03  0.92014611485E+02 0.  0.
          5    1    3    3  502    0 -0.40293537686E+02 -0.28986229717E+02 -0.51212687100E+02  0.71442161309E+02  0.41800000000E+01 0. -1.
         -5    1    3    3    0  502 -0.14922360207E+02  0.50369816233E+02  0.41811006606E+02  0.67271300678E+02  0.41800000000E+01 0. -1.
        -11    1    4    4    0    0  0.73151867735E+02 -0.17947577425E+02 -0.64629789034E+02  0.99248782960E+02  0.00000000000E+00 0.  1.
         11    1    4    4    0    0 -0.17935969842E+02 -0.34360090914E+01  0.12322897402E+02  0.22030864101E+02  0.00000000000E+00 0. -1.
</event>
<event>
 8    1  0.3719512E-009  0.8376556E+02  0.7561462E-02  0.1318693E+00
          1   -1    0    0  501    0  0.00000000000E+00  0.00000000000E+00  0.42639954665E+02  0.42639954665E+02  0.00000000000E+00 0. -1.
         -1   -1    0    0    0  501 -0.00000000000E+00 -0.00000000000E+00 -0.41288536160E+03  0.41288536160E+03  0.00000000000E+00 0.  1.
         25    2    1    2    0    0  0.40021990191E+02  0.20178125762E+02 -0.30937145478E+03  0.33669759510E+03  0.12508260093E+03 0.  0.
         23    2    1    2    0    0 -0.40021990191E+02 -0.20178125762E+02 -0.60873952154E+02  0.11882772116E+03  0.91681365653E+02 0.  0.
          5    1    3    3  502    0  0.23341222446E+02  0.45367610737E+02 -0.38343207137E+02  0.63958632746E+02  0.41800000000E+01 0. -1.
         -5    1    3    3    0  502  0.16680767745E+02 -0.25189484975E+02 -0.27102824764E+03  0.27273896235E+03  0.41800000000E+01 0. -1.
        -11    1    4    4    0    0 -0.49886350639E+02  0.12730704138E+02 -0.30595724312E+01  0.51575961371E+02  0.00000000000E+00 0. -1.
         11    1    4    4    0    0  0.98643604476E+01 -0.32908829901E+02 -0.57814379723E+02  0.67251759793E+02  0.00000000000E+00 0.  1.
</event>
<event>
 8    1  0.3719512E-009  0.1116911E+03  0.7561462E-02  0.1257470E+00
         -2   -1    0    0    0  501 -0.00000000000E+00  0.00000000000E+00  0.20830281074E+02  0.20830281074E+02  0.00000000000E+00 0.  1.
          2   -1    0    0  501    0  0.00000000000E+00 -0.00000000000E+00 -0.61481603215E+03  0.61481603215E+03  0.00000000000E+00 0. -1.
         25    2    1    2    0    0 -0.92927413768E+00  0.33432313476E+02 -0.33906631169E+03  0.36294871471E+03  0.12508885901E+03 0.  0.
         23    2    1    2    0    0  0.92927413768E+00 -0.33432313476E+02 -0.25491943938E+03  0.27269759851E+03  0.90892664862E+02 0.  0.
          5    1    3    3  502    0 -0.62262020251E+02  0.25570618337E+02 -0.17075718229E+03  0.18359167571E+03  0.41800000000E+01 0.  1.
         -5    1    3    3    0  502  0.61332746114E+02  0.78616951384E+01 -0.16830912941E+03  0.17935703900E+03  0.41800000000E+01 0.  1.
        -11    1    4    4    0    0  0.43059334369E+02 -0.28300529055E+02 -0.10618999274E+03  0.11803110090E+03  0.00000000000E+00 0.  1.
         11    1    4    4    0    0 -0.42130060231E+02 -0.51317844206E+01 -0.14872944664E+03  0.15466649761E+03  0.00000000000E+00 0. -1.
</event>
<event>
 8    1  0.3719512E-009  0.1054433E+03  0.7561462E-02  0.1269249E+00
          1   -1    0    0  501    0  0.00000000000E+00  0.00000000000E+00  0.23716944208E+02  0.23716944208E+02  0.00000000000E+00 0. -1.
         -1   -1    0    0    0  501 -0.00000000000E+00 -0.00000000000E+00 -0.76897130369E+03  0.76897130369E+03  0.00000000000E+00 0.  1.
         25    2    1    2    0    0 -0.17269481310E+02 -0.17970739150E+02 -0.63576392116E+03  0.64843233195E+03  0.12509014037E+03 0.  0.
         23    2    1    2    0    0  0.17269481310E+02  0.17970739150E+02 -0.10949043833E+03  0.14425591595E+03  0.90556229781E+02 0.  0.
          5    1    3    3  502    0  0.28101366828E+02  0.42863831064E+02 -0.24293434616E+03  0.24831746571E+03  0.41800000000E+01 0. -1.
         -5    1    3    3    0  502 -0.45370848137E+02 -0.60834570214E+02 -0.39282957500E+03  0.40011486624E+03  0.41800000000E+01 0. -1.
        -11    1    4    4    0    0  0.40462465210E+02  0.35938316404E+02 -0.99496005340E+02  0.11326177094E+03  0.00000000000E+00 0.  1.
         11    1    4    4    0    0 -0.23192983901E+02 -0.17967577254E+02 -0.99944329863E+01  0.30994145017E+02  0.00000000000E+00 0. -1.
</event>
<event>
 8    1  0.3719512E-009  0.2353111E+03  0.7561462E-02  0.1122956E+00
          1   -1    0    0  501    0  0.00000000000E+00  0.00000000000E+00  0.31203598469E+03  0.31203598469E+03  0.00000000000E+00 0. -1.
         -1   -1    0    0    0  501 -0.00000000000E+00 -0.00000000000E+00 -0.18326964947E+03  0.18326964947E+03  0.00000000000E+00 0.  1.
         25    2    1    2    0    0  0.10802366476E+03  0.18124838008E+03  0.94747962162E+02  0.26295495130E+03  0.12509213663E+03 0.  0.
         23    2    1    2    0    0 -0.10802366476E+03 -0.18124838008E+03  0.34018373055E+02  0.23235068286E+03  0.91156473661E+02 0.  0.
          5    1    3    3  502    0  0.27496631841E+02  0.15782677486E+03  0.73676634618E+02  0.17638331699E+03  0.41800000000E+01 0. -1.
         -5    1    3    3    0  502  0.80527032919E+02  0.23421605225E+02  0.21071327544E+02  0.86571634307E+02  0.41800000000E+01 0. -1.
        -11    1    4    4    0    0 -0.28680669799E+02 -0.12719838256E+03 -0.31575373429E+00  0.13039213568E+03  0.00000000000E+00 0.  1.
         11    1    4    4    0    0 -0.79342994961E+02 -0.54049997522E+02  0.34334126789E+02  0.10195854718E+03  0.00000000000E+00 0. -1.
</event>
<event>
 8    1  0.3719512E-009  0.1734442E+03  0.7561462E-02  0.1174303E+00
          2   -1    0    0  501    0  0.00000000000E+00  0.00000000000E+00  0.13555859532E+04  0.13555859532E+04  0.00000000000E+00 0. -1.
         -2   -1    0    0    0  501 -0.00000000000E+00 -0.00000000000E+00 -0.23191714731E+02  0.23191714731E+02  0.00000000000E+00 0.  1.
         25    2    1    2    0    0 -0.93862999859E+02 -0.10236952884E+03  0.76511144247E+03  0.78761142359E+03  0.12508577855E+03 0.  0.
         23    2    1    2    0    0  0.93862999859E+02  0.10236952884E+03  0.56728279597E+03  0.59116624431E+03  0.91531276793E+02 0.  0.
          5    1    3    3  502    0 -0.12337210959E+03 -0.84664477606E+02  0.66593964394E+03  0.68255536989E+03  0.41800000000E+01 0. -1.
         -5    1    3    3    0  502  0.29509109727E+02 -0.17705051231E+02  0.99171798529E+02  0.10505605370E+03  0.41800000000E+01 0. -1.
        -11    1    4    4    0    0  0.19238157532E+02 -0.14348874255E+02  0.13835571663E+03  0.14042186874E+03  0.00000000000E+00 0. -1.
         11    1    4    4    0    0  0.74624842327E+02  0.11671840309E+03  0.42892707934E+03  0.45074437557E+03  0.00000000000E+00 0.  1.
</event>
<event>
 8    1  0.3719512E-009  0.1089187E+03  0.7561462E-02  0.1262585E+00
          2   -1    0    0  501    0  0.00000000000E+00  0.00000000000E+00  0.40360954996E+03  0.40360954996E+03  0.00000000000E+00 0. -1.
         -2   -1    0    0    0  501 -0.00000000000E+00 -0.00000000000E+00 -0.47315305416E+02  0.47315305416E+02  0.00000000000E+00 0.  1.
         25    2    1    2    0    0 -0.34537298054E+02  0.56414424599E+02  0.11311169723E+03  0.18115523020E+03  0.12509016395E+03 0.  0.
         23    2    1    2    0    0  0.34537298054E+02 -0.56414424599E+02  0.24318254732E+03  0.26976962519E+03  0.96241815725E+02 0.  0.
          5    1    3    3  502    0 -0.31507663811E+02  0.80123644863E+02  0.12677861747E+03  0.15330629991E+03  0.41800000000E+01 0.  1.
         -5    1    3    3    0  502 -0.30296342437E+01 -0.23709220264E+02 -0.13666920238E+02  0.27848930284E+02  0.41800000000E+01 0.  1.
        -11    1    4    4    0    0 -0.81568643239E+01  0.19020852203E+02  0.14664893183E+02  0.25365061525E+02  0.00000000000E+00 0.  1.
         11    1    4    4    0    0  0.42694162378E+02 -0.75435276802E+02  0.22851765413E+03  0.24440456366E+03  0.00000000000E+00 0. -1.
</event>
<event>
 8    1  0.3719512E-009  0.1180204E+03  0.7561462E-02  0.1246399E+00
          1   -1    0    0  501    0  0.00000000000E+00  0.00000000000E+00  0.29794181653E+03  0.29794181653E+03  0.00000000000E+00 0. -1.
         -1   -1    0    0    0  501 -0.00000000000E+00 -0.00000000000E+00 -0.49733477404E+02  0.49733477404E+02  0.00000000000E+00 0.  1.
         25    2    1    2    0    0 -0.41011747703E+02 -0.22154065016E+02  0.17893307543E+03  0.22324165012E+03  0.12508806025E+03 0.  0.
         23    2    1    2    0    0  0.41011747703E+02  0.22154065016E+02  0.69275263695E+02  0.12443364382E+03  0.92259977816E+02 0.  0.
          5    1    3    3  502    0 -0.48052036215E+02 -0.69737722374E+02  0.12231933137E+03  0.14883493989E+03  0.41800000000E+01 0. -1.
         -5    1    3    3    0  502  0.70402885118E+01  0.47583657357E+02  0.56613744062E+02  0.74406710226E+02  0.41800000000E+01 0. -1.
        -11    1    4    4    0    0  0.14016714524E+02 -0.36118766876E+02  0.31442911387E+02  0.49896796322E+02  0.00000000000E+00 0.  1.
         11    1    4    4    0    0  0.26995033179E+02  0.58272831892E+02  0.37832352308E+02  0.74536847493E+02  0.00000000000E+00 0. -1.
</event>
<event>
 8    1  0.3719512E-009  0.1220168E+03  0.7561462E-02  0.1239807E+00
         -2   -1    0    0    0  501 -0.00000000000E+00  0.00000000000E+00  0.22487719433E+02  0.22487719433E+02  0.00000000000E+00 0.  1.
          2   -1    0    0  501    0  0.00000000000E+00 -0.00000000000E+00 -0.12589742824E+04  0.12589742824E+04  0.00000000000E+00 0. -1.
         25    2    1    2    0    0 -0.73881989885E+02 -0.49173472136E+02 -0.10065302718E+04  0.10181481393E+04  0.12508343966E+03 0.  0.
         23    2    1    2    0    0  0.73881989885E+02  0.49173472136E+02 -0.22995629123E+03  0.26331386252E+03  0.92615957192E+02 0.  0.
          5    1    3    3  502    0 -0.76136825323E+02  0.23911879343E+02 -0.49802972632E+03  0.50440031209E+03  0.41800000000E+01 0. -1.
         -5    1    3    3    0  502  0.22548354384E+01 -0.73085351479E+02 -0.50850054544E+03  0.51374782724E+03  0.41800000000E+01 0. -1.
        -11    1    4    4    0    0  0.35863013846E+02  0.35544550020E+02 -0.28771481771E+02  0.58115135391E+02  0.00000000000E+00 0.  1.
         11    1    4    4    0    0  0.38018976039E+02  0.13628922116E+02 -0.20118480946E+03  0.20519872713E+03  0.00000000000E+00 0. -1.
</event>
<event>
 8    1  0.3719512E-009  0.2050262E+03  0.7561462E-02  0.1145566E+00
         -1   -1    0    0    0  501 -0.00000000000E+00  0.00000000000E+00  0.28116240049E+02  0.28116240049E+02  0.00000000000E+00 0.  1.
          1   -1    0    0  501    0  0.00000000000E+00 -0.00000000000E+00 -0.19896254989E+04  0.19896254989E+04  0.00000000000E+00 0. -1.
         25    2    1    2    0    0  0.37465690578E+02 -0.19238790453E+03 -0.13321499214E+04  0.13522901655E+04  0.12509394366E+03 0.  0.
         23    2    1    2    0    0 -0.37465690578E+02  0.19238790453E+03 -0.62935933749E+03  0.66545157353E+03  0.91191212528E+02 0.  0.
          5    1    3    3  502    0  0.60069763632E+02 -0.92954385512E+02 -0.41663464872E+03  0.43110416050E+03  0.41800000000E+01 0.  1.
         -5    1    3    3    0  502 -0.22604073055E+02 -0.99433519019E+02 -0.91551527269E+03  0.92118600496E+03  0.41800000000E+01 0.  1.
        -11    1    4    4    0    0 -0.26221566059E+02  0.77707296575E+02 -0.40511908703E+03  0.41333699222E+03  0.00000000000E+00 0. -1.
         11    1    4    4    0    0 -0.11244124519E+02  0.11468060796E+03 -0.22424025047E+03  0.25211458131E+03  0.00000000000E+00 0.  1.
</event>
<event>
 8    1  0.3719512E-009  0.1755884E+03  0.7561462E-02  0.1172142E+00
          4   -1    0    0  501    0  0.00000000000E+00  0.00000000000E+00  0.10892335158E+03  0.10892335158E+03  0.00000000000E+00 0. -1.
         -4   -1    0    0    0  501 -0.00000000000E+00 -0.00000000000E+00 -0.47924907754E+03  0.47924907754E+03  0.00000000000E+00 0.  1.
         25    2    1    2    0    0 -0.12130876740E+03 -0.74416547303E+02 -0.98640069308E+01  0.18973154460E+03  0.12508845199E+03 0.  0.
         23    2    1    2    0    0  0.12130876740E+03  0.74416547303E+02 -0.36046171903E+03  0.39844088452E+03  0.92568072332E+02 0.  0.
          5    1    3    3  502    0 -0.47100351491E+02  0.28247194730E+02  0.21560122898E+02  0.59149458324E+02  0.41800000000E+01 0.  1.
         -5    1    3    3    0  502 -0.74208415908E+02 -0.10266374203E+03 -0.31424129829E+02  0.13058208627E+03  0.41800000000E+01 0.  1.
        -11    1    4    4    0    0  0.12528353386E+03  0.35476484844E+02 -0.26485202677E+03  0.29512902419E+03  0.00000000000E+00 0.  1.
         11    1    4    4    0    0 -0.39747664602E+01  0.38940062459E+02 -0.95609692257E+02  0.10331186034E+03  0.00000000000E+00 0. -1.
</event>
<event>
 8    1  0.3719512E-009  0.1240682E+03  0.7561462E-02  0.1236533E+00
         -2   -1    0    0    0  501 -0.00000000000E+00  0.00000000000E+00  0.13649320210E+03  0.13649320210E+03  0.00000000000E+00 0.  1.
          2   -1    0    0  501    0  0.00000000000E+00 -0.00000000000E+00 -0.17013563428E+03  0.17013563428E+03  0.00000000000E+00 0. -1.
         25    2    1    2    0    0  0.74143862725E+02 -0.63324502304E+01 -0.95808535931E+02  0.17425394606E+03  0.12509096631E+03 0.  0.
         23    2    1    2    0    0 -0.74143862725E+02  0.63324502304E+01  0.62166103751E+02  0.13237489032E+03  0.90117006315E+02 0.  0.
          5    1    3    3  502    0 -0.47223046763E+01  0.47862328027E+02 -0.44190551563E+02  0.65447535119E+02  0.41800000000E+01 0.  1.
         -5    1    3    3    0  502  0.78866167402E+02 -0.54194778258E+02 -0.51617984368E+02  0.10880641094E+03  0.41800000000E+01 0.  1.
        -11    1    4    4    0    0 -0.55590554437E+02 -0.30082603903E+02  0.65927667921E+02  0.91333072858E+02  0.00000000000E+00 0.  1.
         11    1    4    4    0    0 -0.18553308288E+02  0.36415054133E+02 -0.37615641703E+01  0.41041817466E+02  0.00000000000E+00 0. -1.
</event>
<event>
 8    1  0.3719512E-009  0.1171667E+03  0.7561462E-02  0.1247846E+00
          1   -1    0    0  501    0  0.00000000000E+00  0.00000000000E+00  0.28489539624E+02  0.28489539624E+02  0.00000000000E+00 0. -1.
         -1   -1    0    0    0  501 -0.00000000000E+00 -0.00000000000E+00 -0.63569082312E+03  0.63569082312E+03  0.00000000000E+00 0.  1.
         25    2    1    2    0    0  0.70050686161E+02  0.33577413001E+02 -0.29719698283E+03  0.33168188736E+03  0.12510909841E+03 0.  0.
         23    2    1    2    0    0 -0.70050686161E+02 -0.33577413001E+02 -0.31000430067E+03  0.33249847539E+03  0.91749814196E+02 0.  0.
          5    1    3    3  502    0  0.44707059198E+02 -0.42013137475E+02 -0.84584929412E+02  0.10457488965E+03  0.41800000000E+01 0. -1.
         -5    1    3    3    0  502  0.25343626963E+02  0.75590550476E+02 -0.21261205342E+03  0.22710699770E+03  0.41800000000E+01 0. -1.
        -11    1    4    4    0    0 -0.63376475510E+02 -0.46402558473E+02 -0.30805309436E+03  0.31790955321E+03  0.00000000000E+00 0.  1.
         11    1    4    4    0    0 -0.66742106504E+01  0.12825145472E+02 -0.19512063160E+01  0.14588922177E+02  0.00000000000E+00 0. -1.
</event>
<event>
 8    1  0.3719512E-009  0.1125122E+03  0.7561462E-02  0.1255987E+00
          2   -1    0    0  501    0  0.00000000000E+00  0.00000000000E+00  0.98084502215E+03  0.98084502215E+03  0.00000000000E+00 0. -1.
         -2   -1    0    0    0  501 -0.00000000000E+00 -0.00000000000E+00 -0.56425095076E+02  0.56425095076E+02  0.00000000000E+00 0.  1.
         25    2    1    2    0    0  0.47278123139E+01 -0.40761483168E+02  0.93008018190E+03  0.93935094512E+03  0.12508877893E+03 0.  0.
         23    2    1    2    0    0 -0.47278123139E+01  0.40761483168E+02 -0.56602548279E+01  0.97919172104E+02  0.88725842129E+02 0.  0.
          5    1    3    3  502    0 -0.39356075472E+02  0.28551743491E+02  0.30426358575E+03  0.30815240507E+03  0.41800000000E+01 0. -1.
         -5    1    3    3    0  502  0.44083887786E+02 -0.69313226660E+02  0.62581659614E+03  0.63119854005E+03  0.41800000000E+01 0. -1.
        -11    1    4    4    0    0 -0.23175576158E+02  0.61793275492E+02 -0.16314758182E+02  0.67982994644E+02  0.00000000000E+00 0. -1.
         11    1    4    4    0    0  0.18447763844E+02 -0.21031792324E+02  0.10654503354E+02  0.29936177460E+02  0.00000000000E+00 0.  1.
</event>
<event>
 8    1  0.3719512E-009  0.1117649E+03  0.7561462E-02  0.1257336E+00
          2   -1    0    0  501    0  0.00000000000E+00  0.00000000000E+00  0.11163992612E+03  0.11163992612E+03  0.00000000000E+00 0.  1.
         -2   -1    0    0    0  501 -0.00000000000E+00 -0.00000000000E+00 -0.11744214361E+03  0.11744214361E+03  0.00000000000E+00 0. -1.
         25    2    1    2    0    0 -0.27265227985E+02 -0.31616787808E+02 -0.98387973373E+01  0.13223374086E+03  0.12508375738E+03 0.  0.
         23    2    1    2    0    0  0.27265227985E+02  0.31616787808E+02  0.40365798507E+01  0.96848328871E+02  0.87294277589E+02 0.  0.
          5    1    3    3  502    0  0.47523263800E+02 -0.26070026368E+02  0.82195762156E+01  0.54983094767E+02  0.41800000000E+01 0.  1.
         -5    1    3    3    0  502 -0.74788491785E+02 -0.55467614396E+01 -0.18058373553E+02  0.77250646090E+02  0.41800000000E+01 0.  1.
        -11    1    4    4    0    0 -0.30652420045E+02  0.11643466243E+02  0.12316938741E+02  0.35026392060E+02  0.00000000000E+00 0. -1.
         11    1    4    4    0    0  0.57917648030E+02  0.19973321565E+02 -0.82803588901E+01  0.61821936811E+02  0.00000000000E+00 0.  1.
</event>
<event>
 8    1  0.3719512E-009  0.1359835E+03  0.7561462E-02  0.1218838E+00
          2   -1    0    0  501    0  0.00000000000E+00  0.00000000000E+00  0.23931268712E+03  0.23931268712E+03  0.00000000000E+00 0. -1.
         -2   -1    0    0    0  501 -0.00000000000E+00 -0.00000000000E+00 -0.14507508438E+03  0.14507508438E+03  0.00000000000E+00 0.  1.
         25    2    1    2    0    0  0.87300439300E+02 -0.63894751295E+02 -0.59227341698E+02  0.17566827317E+03  0.12509020045E+03 0.  0.
         23    2    1    2    0    0 -0.87300439300E+02  0.63894751295E+02  0.15346494443E+03  0.20871949833E+03  0.91150610911E+02 0.  0.
          5    1    3    3  502    0 -0.13112330491E+02 -0.27650388156E+02 -0.61487349533E+02  0.68808747472E+02  0.41800000000E+01 0.  1.
         -5    1    3    3    0  502  0.10041276979E+03 -0.36244363139E+02  0.22600078354E+01  0.10685952570E+03  0.41800000000E+01 0.  1.
        -11    1    4    4    0    0 -0.79093382048E+02  0.99927456106E+01  0.57316477075E+02  0.98187558239E+02  0.00000000000E+00 0.  1.
         11    1    4    4    0    0 -0.82070572514E+01  0.53902005684E+02  0.96148467358E+02  0.11053194009E+03  0.00000000000E+00 0. -1.
</event>
<event>
 8    1  0.3719512E-009  0.2089563E+03  0.7561462E-02  0.1142395E+00
          3   -1    0    0  501    0  0.00000000000E+00  0.00000000000E+00  0.47113887751E+03  0.47113887751E+03  0.00000000000E+00 0.  1.
         -3   -1    0    0    0  501 -0.00000000000E+00 -0.00000000000E+00 -0.14455849522E+03  0.14455849522E+03  0.00000000000E+00 0. -1.
         25    2    1    2    0    0  0.13665409513E+03  0.14147124287E+03  0.11580186096E+02  0.23338784390E+03  0.12508929088E+03 0.  0.
         23    2    1    2    0    0 -0.13665409513E+03 -0.14147124287E+03  0.31500019620E+03  0.38230952884E+03  0.90812983450E+02 0.  0.
          5    1    3    3  502    0  0.88320563751E+02  0.40197989056E+02  0.56587949961E+02  0.11241026993E+03  0.41800000000E+01 0. -1.
         -5    1    3    3    0  502  0.48333531376E+02  0.10127325382E+03 -0.45007763865E+02  0.12097757396E+03  0.41800000000E+01 0. -1.
        -11    1    4    4    0    0 -0.68805083357E+02 -0.11818926932E+03  0.15343588431E+03  0.20553689078E+03  0.00000000000E+00 0. -1.
         11    1    4    4    0    0 -0.67849011770E+02 -0.23281973553E+02  0.16156431189E+03  0.17677263806E+03  0.00000000000E+00 0.  1.
</event>
<event>
 8    1  0.3719512E-009  0.9647148E+02  0.7561462E-02  0.1287896E+00
          1   -1    0    0  501    0  0.00000000000E+00  0.00000000000E+00  0.15031566216E+03  0.15031566216E+03  0.00000000000E+00 0. -1.
         -1   -1    0    0    0  501 -0.00000000000E+00 -0.00000000000E+00 -0.96051327450E+02  0.96051327450E+02  0.00000000000E+00 0.  1.
         25    2    1    2    0    0  0.20472817347E+02  0.46008170476E+02  0.46835239672E+02  0.14275878245E+03  0.12510252711E+03 0.  0.
         23    2    1    2    0    0 -0.20472817347E+02 -0.46008170476E+02  0.74290950387E+01  0.10360820716E+03  0.90241792633E+02 0.  0.
          5    1    3    3  502    0 -0.15951954915E+02 -0.38075262437E+02  0.25084448698E+02  0.48486002534E+02  0.41800000000E+01 0. -1.
         -5    1    3    3    0  502  0.36424772261E+02  0.84083432913E+02  0.21750790974E+02  0.94272779914E+02  0.41800000000E+01 0. -1.
        -11    1    4    4    0    0 -0.22201317194E+02 -0.11194013271E+02  0.45586655143E+02  0.51926366572E+02  0.00000000000E+00 0. -1.
         11    1    4    4    0    0  0.17284998472E+01 -0.34814157205E+02 -0.38157560104E+02  0.51681840590E+02  0.00000000000E+00 0.  1.
</event>
<event>
 8    1  0.3719512E-009  0.1000090E+03  0.7561462E-02  0.1280277E+00
         -1   -1    0    0    0  501 -0.00000000000E+00  0.00000000000E+00  0.18087725776E+03  0.18087725776E+03  0.00000000000E+00 0.  1.
          1   -1    0    0  501    0  0.00000000000E+00 -0.00000000000E+00 -0.79779226782E+02  0.79779226782E+02  0.00000000000E+00 0. -1.
         25    2    1    2    0    0  0.11851982922E+02  0.43847202885E+02  0.20162474915E+02  0.13460080861E+03  0.12509118907E+03 0.  0.
         23    2    1    2    0    0 -0.11851982922E+02 -0.43847202885E+02  0.80935556062E+02  0.12605567593E+03  0.85301948977E+02 0.  0.
          5    1    3    3  502    0 -0.47988011405E+02 -0.80840844678E+01 -0.97508499703E+01  0.49807159479E+02  0.41800000000E+01 0.  1.
         -5    1    3    3    0  502  0.59839994326E+02  0.51931287353E+02  0.29913324885E+02  0.84793649130E+02  0.41800000000E+01 0.  1.
        -11    1    4    4    0    0 -0.22226453743E+02  0.42500601847E+01 -0.83415046928E+01  0.24117606807E+02  0.00000000000E+00 0. -1.
         11    1    4    4    0    0  0.10374470822E+02 -0.48097263070E+02  0.89277060754E+02  0.10193806912E+03  0.00000000000E+00 0.  1.
</event>
<event>
 8    1  0.3719512E-009  0.2075003E+03  0.7561462E-02  0.1143561E+00
          2   -1    0    0  501    0  0.00000000000E+00  0.00000000000E+00  0.74110767549E+03  0.74110767549E+03  0.00000000000E+00 0. -1.
         -2   -1    0    0    0  501 -0.00000000000E+00 -0.00000000000E+00 -0.63959027931E+02  0.63959027931E+02  0.00000000000E+00 0.  1.
         25    2    1    2    0    0  0.18612799408E+03 -0.27917362945E+00  0.29798451425E+03  0.37294280685E+03  0.12509139989E+03 0.  0.
         23    2    1    2    0    0 -0.18612799408E+03  0.27917362945E+00  0.37916413331E+03  0.43212389657E+03  0.91224524575E+02 0.  0.
          5    1    3    3  502    0  0.19418005938E+03 -0.17262918730E+02  0.22630835163E+03  0.29872536926E+03  0.41800000000E+01 0.  1.
         -5    1    3    3    0  502 -0.80520652983E+01  0.16983745101E+02  0.71676162623E+02  0.74217437585E+02  0.41800000000E+01 0.  1.
        -11    1    4    4    0    0 -0.50227007864E+02 -0.33931174990E+02  0.69461708932E+02  0.92190053492E+02  0.00000000000E+00 0.  1.
         11    1    4    4    0    0 -0.13590098622E+03  0.34210348619E+02  0.30970242438E+03  0.33993384308E+03  0.00000000000E+00 0. -1.
</event>
<event>
 8    1  0.3719512E-009  0.1187431E+03  0.7561462E-02  0.1245185E+00
         -2   -1    0    0    0  501 -0.00000000000E+00  0.00000000000E+00  0.36209771288E+02  0.36209771288E+02  0.00000000000E+00 0.  1.
          2   -1    0    0  501    0  0.00000000000E+00 -0.00000000000E+00 -0.42253580544E+03  0.42253580544E+03  0.00000000000E+00 0. -1.
         25    2    1    2    0    0  0.39144320128E+01 -0.50071760649E+02 -0.15568502533E+03  0.20593001190E+03  0.12508732428E+03 0.  0.
         23    2    1    2    0    0 -0.39144320128E+01  0.50071760649E+02 -0.23064100882E+03  0.25281556483E+03  0.90542425843E+02 0.  0.
          5    1    3    3  502    0  0.24362421244E+02  0.36964560714E+02 -0.62696290756E+02  0.76864839766E+02  0.41800000000E+01 0. -1.
         -5    1    3    3    0  502 -0.20447989232E+02 -0.87036321363E+02 -0.92988734576E+02  0.12906517213E+03  0.41800000000E+01 0. -1.
        -11    1    4    4    0    0 -0.41620339723E+02  0.50962504730E+02 -0.14924794935E+03  0.16310849136E+03  0.00000000000E+00 0.  1.
         11    1    4    4    0    0  0.37705907710E+02 -0.89074408082E+00 -0.81393059471E+02  0.89707073474E+02  0.00000000000E+00 0. -1.
</event>
<event>
 8    1  0.3719512E-009  0.1111216E+03  0.7561462E-02  0.1258507E+00
         -1   -1    0    0    0  501 -0.00000000000E+00  0.00000000000E+00  0.50038094231E+03  0.50038094231E+03  0.00000000000E+00 0.  1.
          1   -1    0    0  501    0  0.00000000000E+00 -0.00000000000E+00 -0.68532597393E+02  0.68532597393E+02  0.00000000000E+00 0. -1.
         25    2    1    2    0    0 -0.18347517829E+02 -0.10348084470E+03  0.63320820963E+02  0.17522070016E+03  0.12509136967E+03 0.  0.
         23    2    1    2    0    0  0.18347517829E+02  0.10348084470E+03  0.36852752395E+03  0.39369283954E+03  0.90203100650E+02 0.  0.
          5    1    3    3  502    0  0.17849435387E+02 -0.36060749153E+02 -0.32947674697E+02  0.52172805570E+02  0.41800000000E+01 0.  1.
         -5    1    3    3    0  502 -0.36196953216E+02 -0.67420095549E+02  0.96268495660E+02  0.12304789459E+03  0.41800000000E+01 0.  1.
        -11    1    4    4    0    0  0.14172853890E+02  0.87296816054E+02  0.36630712818E+03  0.37683221205E+03  0.00000000000E+00 0.  1.
         11    1    4    4    0    0  0.41746639390E+01  0.16184028647E+02  0.22203957744E+01  0.16860627499E+02  0.00000000000E+00 0. -1.
</event>
<event>
 8    1  0.3719512E-009  0.1093772E+03  0.7561462E-02  0.1261728E+00
          4   -1    0    0  501    0  0.00000000000E+00  0.00000000000E+00  0.54694433655E+02  0.54694433655E+02  0.00000000000E+00 0. -1.
         -4   -1    0    0    0  501 -0.00000000000E+00 -0.00000000000E+00 -0.32188545469E+03  0.32188545469E+03  0.00000000000E+00 0.  1.
         25    2    1    2    0    0  0.72710341436E+02  0.22481746866E+01 -0.11373350927E+03  0.18405050469E+03  0.12508968425E+03 0.  0.
         23    2    1    2    0    0 -0.72710341436E+02 -0.22481746866E+01 -0.15345751177E+03  0.19252938365E+03  0.90700097085E+02 0.  0.
          5    1    3    3  502    0  0.84547861364E+02 -0.11631799334E+02 -0.13242560228E+03  0.15759965786E+03  0.41800000000E+01 0. -1.
         -5    1    3    3    0  502 -0.11837519928E+02  0.13879974020E+02  0.18692093016E+02  0.26450846832E+02  0.41800000000E+01 0. -1.
        -11    1    4    4    0    0 -0.36005339604E+02  0.43158861025E+02 -0.59027975804E+02  0.81506893528E+02  0.00000000000E+00 0. -1.
         11    1    4    4    0    0 -0.36705001832E+02 -0.45407035712E+02 -0.94429535964E+02  0.11102249013E+03  0.00000000000E+00 0.  1.
</event>
<event>
 8    1  0.3719512E-009  0.1090369E+03  0.7561462E-02  0.1262364E+00
         -4   -1    0    0    0  501 -0.00000000000E+00  0.00000000000E+00  0.12714756719E+03  0.12714756719E+03  0.00000000000E+00 0. -1.
          4   -1    0    0  501    0  0.00000000000E+00 -0.00000000000E+00 -0.20278303495E+03  0.20278303495E+03  0.00000000000E+00 0.  1.
         25    2    1    2    0    0 -0.72883969677E+01 -0.87800451335E+02  0.39417567710E+02  0.15799165073E+03  0.12508228120E+03 0.  0.
         23    2    1    2    0    0  0.72883969677E+01  0.87800451335E+02 -0.11505303547E+03  0.17193895140E+03  0.92540596792E+02 0.  0.
          5    1    3    3  502    0  0.28051607536E+01  0.11186276682E+02 -0.32771258406E+02  0.34991848913E+02  0.41800000000E+01 0. -1.
         -5    1    3    3    0  502 -0.10093557721E+02 -0.98986728016E+02  0.72188826115E+02  0.12299980182E+03  0.41800000000E+01 0. -1.
        -11    1    4    4    0    0 -0.15271596337E+02  0.81327712383E+02 -0.37385183933E+02  0.90802370200E+02  0.00000000000E+00 0. -1.
         11    1    4    4    0    0  0.22559993304E+02  0.64727389511E+01 -0.77667851535E+02  0.81136581204E+02  0.00000000000E+00 0.  1.
</event>
<event>
 8    1  0.3719512E-009  0.8359000E+02  0.7561462E-02  0.1319162E+00
         -2   -1    0    0    0  501 -0.00000000000E+00  0.00000000000E+00  0.31652787324E+02  0.31652787324E+02  0.00000000000E+00 0.  1.
          2   -1    0    0  501    0  0.00000000000E+00 -0.00000000000E+00 -0.57313526474E+03  0.57313526474E+03  0.00000000000E+00 0. -1.
         25    2    1    2    0    0  0.55228875621E+02  0.26144654493E+02 -0.18206085143E+03  0.22919760212E+03  0.12510641683E+03 0.  0.
         23    2    1    2    0    0 -0.55228875621E+02 -0.26144654493E+02 -0.35942162599E+03  0.37559044995E+03  0.90280170594E+02 0.  0.
          5    1    3    3  502    0  0.39975683381E+02 -0.32168743635E+01 -0.19056177724E+03  0.19478107426E+03  0.41800000000E+01 0. -1.
         -5    1    3    3    0  502  0.15253192240E+02  0.29361528856E+02  0.85009258149E+01  0.34416527861E+02  0.41800000000E+01 0. -1.
        -11    1    4    4    0    0 -0.17844647577E+02  0.24654800710E+02 -0.41450128015E+02  0.51423766467E+02  0.00000000000E+00 0.  1.
         11    1    4    4    0    0 -0.37384228044E+02 -0.50799455203E+02 -0.31797149797E+03  0.32416668348E+03  0.00000000000E+00 0. -1.
</event>
<event>
 8    1  0.3719512E-009  0.1059598E+03  0.7561462E-02  0.1268240E+00
         -2   -1    0    0    0  501 -0.00000000000E+00  0.00000000000E+00  0.19904699775E+02  0.19904699775E+02  0.00000000000E+00 0.  1.
          2   -1    0    0  501    0  0.00000000000E+00 -0.00000000000E+00 -0.10378961377E+04  0.10378961377E+04  0.00000000000E+00 0. -1.
         25    2    1    2    0    0  0.58017046495E+02 -0.59957394148E+02 -0.71063074409E+03  0.72636359078E+03  0.12508854771E+03 0.  0.
         23    2    1    2    0    0 -0.58017046495E+02  0.59957394148E+02 -0.30736069387E+03  0.33143724673E+03  0.91756120157E+02 0.  0.
          5    1    3    3  502    0  0.17718403269E+02 -0.57975681444E+02 -0.65337788435E+03  0.65619757209E+03  0.41800000000E+01 0. -1.
         -5    1    3    3    0  502  0.40298643226E+02 -0.19817127039E+01 -0.57252859739E+02  0.70166018694E+02  0.41800000000E+01 0. -1.
        -11    1    4    4    0    0 -0.15189888428E+02  0.65651242910E+02 -0.10684371120E+03  0.12631863294E+03  0.00000000000E+00 0.  1.
         11    1    4    4    0    0 -0.42827158067E+02 -0.56938487618E+01 -0.20051698267E+03  0.20511861378E+03  0.00000000000E+00 0. -1.
</event>
<event>
 8    1  0.3719512E-009  0.1373426E+03  0.7561462E-02  0.1216950E+00
          1   -1    0    0  501    0  0.00000000000E+00  0.00000000000E+00  0.11619554534E+04  0.11619554534E+04  0.00000000000E+00 0. -1.
         -1   -1    0    0    0  501 -0.00000000000E+00 -0.00000000000E+00 -0.23526845046E+02  0.23526845046E+02  0.00000000000E+00 0.  1.
         25    2    1    2    0    0  0.45335084246E+02 -0.11319441085E+03  0.68266185246E+03  0.70465780694E+03  0.12508867085E+03 0.  0.
         23    2    1    2    0    0 -0.45335084246E+02  0.11319441085E+03  0.45576675591E+03  0.48082449151E+03  0.92739481016E+02 0.  0.
          5    1    3    3  502    0  0.38033969169E+02 -0.92908539366E+02  0.67334725428E+03  0.68080289126E+03  0.41800000000E+01 0. -1.
         -5    1    3    3    0  502  0.73011150777E+01 -0.20285871479E+02  0.93145981725E+01  0.23854915681E+02  0.41800000000E+01 0. -1.
        -11    1    4    4    0    0  0.15575996833E+02  0.82649166396E+02  0.27807674296E+03  0.29051707584E+03  0.00000000000E+00 0. -1.
         11    1    4    4    0    0 -0.60911081080E+02  0.30545244449E+02  0.17769001295E+03  0.19030741567E+03  0.00000000000E+00 0.  1.
</event>
<event>
 8    1  0.3719512E-009  0.9498696E+02  0.7561462E-02  0.1291205E+00
         -2   -1    0    0    0  501 -0.00000000000E+00  0.00000000000E+00  0.40383698810E+02  0.40383698810E+02  0.00000000000E+00 0. -1.
          2   -1    0    0  501    0  0.00000000000E+00 -0.00000000000E+00 -0.32256988574E+03  0.32256988574E+03  0.00000000000E+00 0.  1.
         25    2    1    2    0    0  0.72394828390E+01  0.89566898132E+01 -0.10196632652E+03  0.16179949481E+03  0.12509721169E+03 0.  0.
         23    2    1    2    0    0 -0.72394828390E+01 -0.89566898132E+01 -0.18021986041E+03  0.20115408974E+03  0.88606643824E+02 0.  0.
          5    1    3    3  502    0  0.43811897301E+02 -0.33535045363E+02 -0.13455704867E+02  0.56943919834E+02  0.41800000000E+01 0.  1.
         -5    1    3    3    0  502 -0.36572414462E+02  0.42491735176E+02 -0.88510621656E+02  0.10485557498E+03  0.41800000000E+01 0.  1.
        -11    1    4    4    0    0 -0.41329693742E+02 -0.14674100698E+02 -0.14627107763E+03  0.15270461999E+03  0.00000000000E+00 0.  1.
         11    1    4    4    0    0  0.34090210904E+02  0.57174108853E+01 -0.33948782776E+02  0.48449469746E+02  0.00000000000E+00 0. -1.
</event>
<event>
 8    1  0.3719512E-009  0.4857769E+02  0.7561462E-02  0.1453168E+00
         -2   -1    0    0    0  501 -0.00000000000E+00  0.00000000000E+00  0.17684465480E+02  0.17684465480E+02  0.00000000000E+00 0.  1.
          2   -1    0    0  501    0  0.00000000000E+00 -0.00000000000E+00 -0.75948186256E+03  0.75948186256E+03  0.00000000000E+00 0. -1.
         25    2    1    2    0    0  0.28963051235E+01  0.16485995352E+02 -0.54430032727E+03  0.55873904956E+03  0.12508518144E+03 0.  0.
         23    2    1    2    0    0 -0.28963051235E+01 -0.16485995352E+02 -0.19749706981E+03  0.21842727848E+03  0.91788925108E+02 0.  0.
          5    1    3    3  502    0  0.28060835376E+01  0.26373825933E+02 -0.54700867081E+03  0.54766724491E+03  0.41800000000E+01 0.  1.
         -5    1    3    3    0  502  0.90221585934E-01 -0.98878305808E+01  0.27083435475E+01  0.11071804654E+02  0.41800000000E+01 0.  1.
        -11    1    4    4    0    0  0.27146209677E+02 -0.65289026782E+01 -0.12238799506E+02  0.30484938631E+02  0.00000000000E+00 0.  1.
         11    1    4    4    0    0 -0.30042514800E+02 -0.99570926737E+01 -0.18525827031E+03  0.18794233985E+03  0.00000000000E+00 0. -1.
</event>
<event>
 8    1  0.3719512E-009  0.2087427E+03  0.7561462E-02  0.1142566E+00
         -1   -1    0    0    0  501 -0.00000000000E+00  0.00000000000E+00  0.24158552150E+03  0.24158552150E+03  0.00000000000E+00 0.  1.
          1   -1    0    0  501    0  0.00000000000E+00 -0.00000000000E+00 -0.24319017322E+03  0.24319017322E+03  0.00000000000E+00 0. -1.
         25    2    1    2    0    0  0.13795977268E+03  0.13839199288E+03  0.95268085230E+02  0.25081318731E+03  0.12508398896E+03 0.  0.
         23    2    1    2    0    0 -0.13795977268E+03 -0.13839199288E+03 -0.96872736953E+02  0.23396250741E+03  0.84669269157E+02 0.  0.
          5    1    3    3  502    0  0.29171872464E+02  0.10364923795E+03  0.99809730710E+01  0.10821855152E+03  0.41800000000E+01 0.  1.
         -5    1    3    3    0  502  0.10878790022E+03  0.34742754926E+02  0.85287112159E+02  0.14259463578E+03  0.41800000000E+01 0.  1.
        -11    1    4    4    0    0 -0.65382174451E+02 -0.62786888832E+02 -0.91836639375E+02  0.12903871697E+03  0.00000000000E+00 0. -1.
         11    1    4    4    0    0 -0.72577598232E+02 -0.75605104044E+02 -0.50360975782E+01  0.10492379045E+03  0.00000000000E+00 0.  1.
</event>
<event>
 8    1  0.3719512E-009  0.9513813E+02  0.7561462E-02  0.1290865E+00
          2   -1    0    0  501    0  0.00000000000E+00  0.00000000000E+00  0.11530677680E+04  0.11530677680E+04  0.00000000000E+00 0.  1.
         -2   -1    0    0    0  501 -0.00000000000E+00 -0.00000000000E+00 -0.12688447716E+02  0.12688447716E+02  0.00000000000E+00 0. -1.
         25    2    1    2    0    0  0.43697597124E+02 -0.17249633973E+02  0.77285916916E+03  0.78432485583E+03  0.12508858556E+03 0.  0.
         23    2    1    2    0    0 -0.43697597124E+02  0.17249633973E+02  0.36752015110E+03  0.38143135987E+03  0.90618932689E+02 0.  0.
          5    1    3    3  502    0 -0.30845179311E+01  0.29095810469E+02  0.57487923776E+03  0.57563850709E+03  0.41800000000E+01 0.  1.
         -5    1    3    3    0  502  0.46782115055E+02 -0.46345444442E+02  0.19797993140E+03  0.20868634873E+03  0.41800000000E+01 0.  1.
        -11    1    4    4    0    0 -0.62057186575E+02  0.33231454993E+02  0.32407164586E+03  0.33162909350E+03  0.00000000000E+00 0.  1.
         11    1    4    4    0    0  0.18359589450E+02 -0.15981821020E+02  0.43448505243E+02  0.49802266372E+02  0.00000000000E+00 0. -1.
</event>
<event>
 8    1  0.3719512E-009  0.1227496E+03  0.7561462E-02  0.1238629E+00
          2   -1    0    0  501    0  0.00000000000E+00  0.00000000000E+00  0.84174218862E+03  0.84174218862E+03  0.00000000000E+00 0.  1.
         -2   -1    0    0    0  501 -0.00000000000E+00 -0.00000000000E+00 -0.18484075971E+02  0.18484075971E+02  0.00000000000E+00 0. -1.
         25    2    1    2    0    0 -0.53738529836E+02  0.35192440300E+02  0.46818307145E+03  0.48884427528E+03  0.12508796763E+03 0.  0.
         23    2    1    2    0    0  0.53738529836E+02 -0.35192440300E+02  0.35507504120E+03  0.37138198931E+03  0.87863300946E+02 0.  0.
          5    1    3    3  502    0 -0.34598475869E+02  0.80276898421E+02  0.24084363414E+03  0.25625097747E+03  0.41800000000E+01 0.  1.
         -5    1    3    3    0  502 -0.19140053967E+02 -0.45084458121E+02  0.22733943731E+03  0.23259329781E+03  0.41800000000E+01 0.  1.
        -11    1    4    4    0    0  0.73239223976E+02 -0.46043952671E+02  0.27984958528E+03  0.29291606287E+03  0.00000000000E+00 0. -1.
         11    1    4    4    0    0 -0.19500694140E+02  0.10851512372E+02  0.75225455928E+02  0.78465926441E+02  0.00000000000E+00 0.  1.
</event>
<event>
 8    1  0.3719512E-009  0.8055706E+02  0.7561462E-02  0.1327478E+00
         -1   -1    0    0    0  501 -0.00000000000E+00  0.00000000000E+00  0.13045233191E+02  0.13045233191E+02  0.00000000000E+00 0.  1.
          1   -1    0    0  501    0  0.00000000000E+00 -0.00000000000E+00 -0.97507752012E+03  0.97507752012E+03  0.00000000000E+00 0. -1.
         25    2    1    2    0    0 -0.18155513217E+02  0.20331837551E+02 -0.47532918085E+03  0.49226906601E+03  0.12509195378E+03 0.  0.
         23    2    1    2    0    0  0.18155513217E+02 -0.20331837551E+02 -0.48670310607E+03  0.49585368730E+03  0.90818277168E+02 0.  0.
          5    1    3    3  502    0 -0.29646934825E+02  0.35785988923E+02 -0.57833635183E+02  0.74308677194E+02  0.41800000000E+01 0. -1.
         -5    1    3    3    0  502  0.11491421608E+02 -0.15454151372E+02 -0.41749554567E+03  0.41796038882E+03  0.41800000000E+01 0. -1.
        -11    1    4    4    0    0  0.54258034822E+02 -0.20880884075E+01 -0.26929422979E+03  0.27471380864E+03  0.00000000000E+00 0.  1.
         11    1    4    4    0    0 -0.36102521605E+02 -0.18243749143E+02 -0.21740887628E+03  0.22113987866E+03  0.00000000000E+00 0. -1.
</event>
<event>
 8    1  0.3719512E-009  0.1071940E+03  0.7561462E-02  0.1265856E+00
          2   -1    0    0  501    0  0.00000000000E+00  0.00000000000E+00  0.10669515039E+03  0.10669515039E+03  0.00000000000E+00 0. -1.
         -2   -1    0    0    0  501 -0.00000000000E+00 -0.00000000000E+00 -0.13196682961E+03  0.13196682961E+03  0.00000000000E+00 0.  1.
         25    2    1    2    0    0  0.23777012856E+01  0.13852095470E+02 -0.59808332849E+02  0.13935914595E+03  0.12508557419E+03 0.  0.
         23    2    1    2    0    0 -0.23777012856E+01 -0.13852095470E+02  0.34536653633E+02  0.99302834046E+02  0.92036614416E+02 0.  0.
          5    1    3    3  502    0  0.42126299363E+02 -0.40269812369E+02 -0.31364733172E+02  0.66313662040E+02  0.41800000000E+01 0.  1.
         -5    1    3    3    0  502 -0.39748598077E+02  0.54121907838E+02 -0.28443599677E+02  0.73045483911E+02  0.41800000000E+01 0.  1.
        -11    1    4    4    0    0 -0.41315217231E+02  0.10662246241E+02  0.15658688942E+01  0.42697571537E+02  0.00000000000E+00 0.  1.
         11    1    4    4    0    0  0.38937515945E+02 -0.24514341710E+02  0.32970784738E+02  0.56605262509E+02  0.00000000000E+00 0. -1.
</event>
<event>
 8    1  0.3719512E-009  0.2287045E+03  0.7561462E-02  0.1127555E+00
          2   -1    0    0  501    0  0.00000000000E+00  0.00000000000E+00  0.42027448656E+03  0.42027448656E+03  0.00000000000E+00 0. -1.
         -2   -1    0    0    0  501 -0.00000000000E+00 -0.00000000000E+00 -0.12759427291E+03  0.12759427291E+03  0.00000000000E+00 0.  1.
         25    2    1    2    0    0  0.20322635207E+03 -0.16713834162E+02  0.13009869418E+03  0.27231054526E+03  0.12508821049E+03 0.  0.
         23    2    1    2    0    0 -0.20322635207E+03  0.16713834162E+02  0.16258151947E+03  0.27555821421E+03  0.88990316985E+02 0.  0.
          5    1    3    3  502    0 -0.15781630652E+02 -0.71034308538E+01  0.20608414891E+02  0.27234128593E+02  0.41800000000E+01 0.  1.
         -5    1    3    3    0  502  0.21900798272E+03 -0.96104033081E+01  0.10949027929E+03  0.24507641667E+03  0.41800000000E+01 0.  1.
        -11    1    4    4    0    0 -0.90993899379E+02  0.49283957166E+02  0.95473053285E+02  0.14079737946E+03  0.00000000000E+00 0.  1.
         11    1    4    4    0    0 -0.11223245269E+03 -0.32570123005E+02  0.67108466183E+02  0.13476083475E+03  0.00000000000E+00 0. -1.
</event>
<event>
 8    1  0.3719512E-009  0.9716257E+02  0.7561462E-02  0.1286378E+00
          2   -1    0    0  501    0  0.00000000000E+00  0.00000000000E+00  0.79078314454E+02  0.79078314454E+02  0.00000000000E+00 0.  1.
         -2   -1    0    0    0  501 -0.00000000000E+00 -0.00000000000E+00 -0.20799483386E+03  0.20799483386E+03  0.00000000000E+00 0. -1.
         25    2    1    2    0    0 -0.44476975693E+02  0.19815065084E+02 -0.12331629653E+03  0.18228245967E+03  0.12509655448E+03 0.  0.
         23    2    1    2    0    0  0.44476975693E+02 -0.19815065084E+02 -0.56002228723E+01  0.10479068864E+03  0.92622285434E+02 0.  0.
          5    1    3    3  502    0  0.27350942278E+02  0.27336653260E+02  0.48090895548E+00  0.38898204693E+02  0.41800000000E+01 0. -1.
         -5    1    3    3    0  502 -0.71827917971E+02 -0.75215881756E+01 -0.12379720549E+03  0.14338425498E+03  0.41800000000E+01 0. -1.
        -11    1    4    4    0    0  0.18247964868E+02 -0.43860748567E+02  0.28588955929E+02  0.55444403575E+02  0.00000000000E+00 0.  1.
         11    1    4    4    0    0  0.26229010824E+02  0.24045683482E+02 -0.34189178801E+02  0.49346285068E+02  0.00000000000E+00 0. -1.
</event>
<event>
 8    1  0.3719512E-009  0.8640728E+02  0.7561462E-02  0.1311793E+00
         -3   -1    0    0    0  501 -0.00000000000E+00  0.00000000000E+00  0.58155990258E+03  0.58155990258E+03  0.00000000000E+00 0.  1.
          3   -1    0    0  501    0  0.00000000000E+00 -0.00000000000E+00 -0.23666388530E+02  0.23666388530E+02  0.00000000000E+00 0. -1.
         25    2    1    2    0    0  0.43711332852E+02  0.13239315252E+02  0.31338614433E+03  0.34050615097E+03  0.12509038055E+03 0.  0.
         23    2    1    2    0    0 -0.43711332852E+02 -0.13239315252E+02  0.24450736972E+03  0.26472014014E+03  0.90592155601E+02 0.  0.
          5    1    3    3  502    0 -0.17802335172E+02 -0.33111332775E+02  0.34660016229E+02  0.51303729111E+02  0.41800000000E+01 0. -1.
         -5    1    3    3    0  502  0.61513668024E+02  0.46350648027E+02  0.27872612810E+03  0.28920242186E+03  0.41800000000E+01 0. -1.
        -11    1    4    4    0    0 -0.33384292896E+02 -0.25364846051E+02  0.24521854685E+03  0.24877705310E+03  0.00000000000E+00 0.  1.
         11    1    4    4    0    0 -0.10327039956E+02  0.12125530799E+02 -0.71117712939E+00  0.15943087038E+02  0.00000000000E+00 0. -1.
</event>
<event>
 8    1  0.3719512E-009  0.8625519E+02  0.7561462E-02  0.1312182E+00
          2   -1    0    0  501    0  0.00000000000E+00  0.00000000000E+00  0.97153747598E+03  0.97153747598E+03  0.00000000000E+00 0. -1.
         -2   -1    0    0    0  501 -0.00000000000E+00 -0.00000000000E+00 -0.18259746120E+02  0.18259746120E+02  0.00000000000E+00 0.  1.
         25    2    1    2    0    0  0.49193619488E+02 -0.35350125067E+02  0.69021893137E+03  0.70407336913E+03  0.12508993705E+03 0.  0.
         23    2    1    2    0    0 -0.49193619488E+02  0.35350125067E+02  0.26305879849E+03  0.28572385297E+03  0.93640510219E+02 0.  0.
          5    1    3    3  502    0  0.19162396028E+02 -0.18183730752E+02  0.65125017614E+03  0.65179913302E+03  0.41800000000E+01 0.  1.
         -5    1    3    3    0  502  0.30031223460E+02 -0.17166394315E+02  0.38968755233E+02  0.52274236108E+02  0.41800000000E+01 0.  1.
        -11    1    4    4    0    0 -0.69389147521E+01  0.61064824551E+02  0.13082762189E+03  0.14454386180E+03  0.00000000000E+00 0.  1.
         11    1    4    4    0    0 -0.42254704735E+02 -0.25714699484E+02  0.13223117660E+03  0.14117999117E+03  0.00000000000E+00 0. -1.
</event>
<event>
 8    1  0.3719512E-009  0.1003360E+03  0.7561462E-02  0.1279591E+00
          1   -1    0    0  501    0  0.00000000000E+00  0.00000000000E+00  0.47358030262E+03  0.47358030262E+03  0.00000000000E+00 0. -1.
         -1   -1    0    0    0  501 -0.00000000000E+00 -0.00000000000E+00 -0.31071516006E+02  0.31071516006E+02  0.00000000000E+00 0.  1.
         25    2    1    2    0    0  0.22367148377E+02  0.45435238939E+02  0.20854498201E+03  0.24840089076E+03  0.12508933904E+03 0.  0.
         23    2    1    2    0    0 -0.22367148377E+02 -0.45435238939E+02  0.23396380460E+03  0.25625092787E+03  0.91437551949E+02 0.  0.
          5    1    3    3  502    0 -0.35551170536E+02  0.61926123119E+01  0.97502539919E+01  0.37613481980E+02  0.41800000000E+01 0.  1.
         -5    1    3    3    0  502  0.57918318913E+02  0.39242626627E+02  0.19879472802E+03  0.21078740878E+03  0.41800000000E+01 0.  1.
        -11    1    4    4    0    0 -0.45555257078E+02 -0.26967610160E+01  0.58613380729E+02  0.74283796132E+02  0.00000000000E+00 0. -1.
         11    1    4    4    0    0  0.23188108701E+02 -0.42738477923E+02  0.17535042388E+03  0.18196713174E+03  0.00000000000E+00 0.  1.
</event>
<event>
 8    1  0.3719512E-009  0.1898529E+03  0.7561462E-02  0.1158594E+00
         -2   -1    0    0    0  501 -0.00000000000E+00  0.00000000000E+00  0.17724102017E+03  0.17724102017E+03  0.00000000000E+00 0. -1.
          2   -1    0    0  501    0  0.00000000000E+00 -0.00000000000E+00 -0.29137172793E+03  0.29137172793E+03  0.00000000000E+00 0.  1.
         25    2    1    2    0    0  0.51493522846E+02  0.16828713666E+03  0.38799121271E+02  0.21938027719E+03  0.12510072321E+03 0.  0.
         23    2    1    2    0    0 -0.51493522846E+02 -0.16828713666E+03 -0.15292982903E+03  0.24923247091E+03  0.88074676764E+02 0.  0.
          5    1    3    3  502    0 -0.14469344998E+02  0.66085175666E+01 -0.27920127092E+02  0.32404326038E+02  0.41800000000E+01 0. -1.
         -5    1    3    3    0  502  0.65962867844E+02  0.16167861909E+03  0.66719248363E+02  0.18697595115E+03  0.41800000000E+01 0. -1.
        -11    1    4    4    0    0 -0.26701045710E+02 -0.10216992137E+02 -0.54040828091E+02  0.61137090797E+02  0.00000000000E+00 0.  1.
         11    1    4    4    0    0 -0.24792477136E+02 -0.15807014452E+03 -0.98889000938E+02  0.18809538011E+03  0.00000000000E+00 0. -1.
</event>
<event>
 8    1  0.3719512E-009  0.1550590E+03  0.7561462E-02  0.1194391E+00
         -2   -1    0    0    0  501 -0.00000000000E+00  0.00000000000E+00  0.39831750868E+02  0.39831750868E+02  0.00000000000E+00 0.  1.
          2   -1    0    0  501    0  0.00000000000E+00 -0.00000000000E+00 -0.82114871878E+03  0.82114871878E+03  0.00000000000E+00 0. -1.
         25    2    1    2    0    0 -0.66767819410E+02  0.10257358878E+03 -0.23057246662E+03  0.28946460705E+03  0.12508722376E+03 0.  0.
         23    2    1    2    0    0  0.66767819410E+02 -0.10257358878E+03 -0.55074450129E+03  0.57151586260E+03  0.91277558429E+02 0.  0.
          5    1    3    3  502    0 -0.89352531459E+02  0.42853678747E+02 -0.18815475633E+03  0.21269696140E+03  0.41800000000E+01 0. -1.
         -5    1    3    3    0  502  0.22584712049E+02  0.59719910031E+02 -0.42417710294E+02  0.76767645652E+02  0.41800000000E+01 0. -1.
        -11    1    4    4    0    0 -0.16354127299E+02 -0.39036457147E+02 -0.23803189001E+03  0.24176534724E+03  0.00000000000E+00 0.  1.
         11    1    4    4    0    0  0.83121946709E+02 -0.63537131631E+02 -0.31271261129E+03  0.32975051536E+03  0.00000000000E+00 0. -1.
</event>
<event>
 8    1  0.3719512E-009  0.1910259E+03  0.7561462E-02  0.1157539E+00
          2   -1    0    0  501    0  0.00000000000E+00  0.00000000000E+00  0.57511811546E+03  0.57511811546E+03  0.00000000000E+00 0. -1.
         -2   -1    0    0    0  501 -0.00000000000E+00 -0.00000000000E+00 -0.67216618045E+02  0.67216618045E+02  0.00000000000E+00 0.  1.
         25    2    1    2    0    0  0.90014630453E+01 -0.16002774716E+03  0.21778042299E+03  0.29793560204E+03  0.12508958440E+03 0.  0.
         23    2    1    2    0    0 -0.90014630453E+01  0.16002774716E+03  0.29012107443E+03  0.34439913147E+03  0.93544736526E+02 0.  0.
          5    1    3    3  502    0 -0.11548269693E+02 -0.17597369762E+03  0.18151377097E+03  0.25311030449E+03  0.41800000000E+01 0.  1.
         -5    1    3    3    0  502  0.20549732739E+02  0.15945950458E+02  0.36266652020E+02  0.44825297549E+02  0.41800000000E+01 0.  1.
        -11    1    4    4    0    0  0.17439971326E+02  0.15002505059E+03  0.27107498242E+03  0.31031164094E+03  0.00000000000E+00 0.  1.
         11    1    4    4    0    0 -0.26441434371E+02  0.10002696572E+02  0.19046092004E+02  0.34087490534E+02  0.00000000000E+00 0. -1.
</event>
<event>
 8    1  0.3719512E-009  0.1629955E+03  0.7561462E-02  0.1185356E+00
         -1   -1    0    0    0  501 -0.00000000000E+00  0.00000000000E+00  0.11179013651E+03  0.11179013651E+03  0.00000000000E+00 0.  1.
          1   -1    0    0  501    0  0.00000000000E+00 -0.00000000000E+00 -0.34927597674E+03  0.34927597674E+03  0.00000000000E+00 0. -1.
         25    2    1    2    0    0 -0.13730497676E+03  0.26352494058E+02 -0.21626482631E+02  0.18884484357E+03  0.12509020588E+03 0.  0.
         23    2    1    2    0    0  0.13730497676E+03 -0.26352494058E+02 -0.21585935760E+03  0.27222126968E+03  0.89230302122E+02 0.  0.
          5    1    3    3  502    0 -0.14618001340E+03 -0.16803542972E+01 -0.42784591608E+02  0.15237917701E+03  0.41800000000E+01 0.  1.
         -5    1    3    3    0  502  0.88750366386E+01  0.28032848355E+02  0.21158108977E+02  0.36465666560E+02  0.41800000000E+01 0.  1.
        -11    1    4    4    0    0  0.29675895686E+02 -0.30204981281E+02 -0.16142009988E+02  0.45316268220E+02  0.00000000000E+00 0.  1.
         11    1    4    4    0    0  0.10762908107E+03  0.38524872230E+01 -0.19971734761E+03  0.22690500146E+03  0.00000000000E+00 0. -1.
</event>
<event>
 8    1  0.3719512E-009  0.4020482E+03  0.7561462E-02  0.1043073E+00
          1   -1    0    0  501    0  0.00000000000E+00  0.00000000000E+00  0.10426495982E+04  0.10426495982E+04  0.00000000000E+00 0. -1.
         -1   -1    0    0    0  501 -0.00000000000E+00 -0.00000000000E+00 -0.17178940649E+03  0.17178940649E+03  0.00000000000E+00 0.  1.
         25    2    1    2    0    0 -0.91638162989E+02  0.39068389005E+03  0.33711928330E+03  0.53882171431E+03  0.12509186138E+03 0.  0.
         23    2    1    2    0    0  0.91638162989E+02 -0.39068389005E+03  0.53374090837E+03  0.67561729034E+03  0.10270302278E+03 0.  0.
          5    1    3    3  502    0 -0.13988938368E+01  0.50959088494E+02  0.10720239265E+03  0.11877967416E+03  0.41800000000E+01 0.  1.
         -5    1    3    3    0  502 -0.90239269152E+02  0.33972480155E+03  0.22991689065E+03  0.42004204015E+03  0.41800000000E+01 0.  1.
        -11    1    4    4    0    0  0.35059032199E+02 -0.12844791444E+03  0.26128961956E+03  0.29325802249E+03  0.00000000000E+00 0. -1.
         11    1    4    4    0    0  0.56579130790E+02 -0.26223597561E+03  0.27245128881E+03  0.38235926786E+03  0.00000000000E+00 0.  1.
</event>
<event>
 8    1  0.3719512E-009  0.1034528E+03  0.7561462E-02  0.1273198E+00
          4   -1    0    0  501    0  0.00000000000E+00  0.00000000000E+00  0.25274088604E+03  0.25274088604E+03  0.00000000000E+00 0. -1.
         -4   -1    0    0    0  501 -0.00000000000E+00 -0.00000000000E+00 -0.62846534035E+02  0.62846534035E+02  0.00000000000E+00 0.  1.
         25    2    1    2    0    0 -0.49705050634E+02 -0.32447803843E+02  0.13309926057E+03  0.19205455235E+03  0.12508431509E+03 0.  0.
         23    2    1    2    0    0  0.49705050634E+02  0.32447803843E+02  0.56795091429E+02  0.12353286772E+03  0.92256354599E+02 0.  0.
          5    1    3    3  502    0 -0.83842339267E+02 -0.10020301619E+02  0.47149491795E+02  0.96801297898E+02  0.41800000000E+01 0.  1.
         -5    1    3    3    0  502  0.34137288633E+02 -0.22427502224E+02  0.85949768780E+02  0.95253254456E+02  0.41800000000E+01 0.  1.
        -11    1    4    4    0    0  0.12453902549E+02  0.41198127975E+02  0.70741527730E+02  0.82805490053E+02  0.00000000000E+00 0. -1.
         11    1    4    4    0    0  0.37251148086E+02 -0.87503241324E+01 -0.13946436301E+02  0.40727377667E+02  0.00000000000E+00 0.  1.
</event>
<event>
 8    1  0.3719512E-009  0.9343848E+02  0.7561462E-02  0.1294732E+00
         -1   -1    0    0    0  501 -0.00000000000E+00  0.00000000000E+00  0.81977457757E+02  0.81977457757E+02  0.00000000000E+00 0.  1.
          1   -1    0    0  501    0  0.00000000000E+00 -0.00000000000E+00 -0.17901328414E+03  0.17901328414E+03  0.00000000000E+00 0. -1.
         25    2    1    2    0    0  0.53177151213E+02  0.70705925479E+01 -0.65421540179E+02  0.15100734986E+03  0.12508172969E+03 0.  0.
         23    2    1    2    0    0 -0.53177151213E+02 -0.70705925479E+01 -0.31614286202E+02  0.10998339203E+03  0.90659145934E+02 0.  0.
          5    1    3    3  502    0  0.78183066000E+02 -0.30407663645E+02 -0.64242400732E+02  0.10574391836E+03  0.41800000000E+01 0.  1.
         -5    1    3    3    0  502 -0.25005914787E+02  0.37478256193E+02 -0.11791394465E+01  0.45263431503E+02  0.41800000000E+01 0.  1.
        -11    1    4    4    0    0 -0.41957752387E+02  0.36532779733E+01  0.26548325161E+02  0.49785670570E+02  0.00000000000E+00 0.  1.
         11    1    4    4    0    0 -0.11219398826E+02 -0.10723870521E+02 -0.58162611363E+02  0.60197721464E+02  0.00000000000E+00 0. -1.
</event>
<event>
 8    1  0.3719512E-009  0.2226743E+03  0.7561462E-02  0.1131905E+00
          2   -1    0    0  501    0  0.00000000000E+00  0.00000000000E+00  0.11514768428E+04  0.11514768428E+04  0.00000000000E+00 0. -1.
         -2   -1    0    0    0  501 -0.00000000000E+00 -0.00000000000E+00 -0.52616186208E+02  0.52616186208E+02  0.00000000000E+00 0.  1.
         25    2    1    2    0    0 -0.15619086636E+03  0.15542661271E+03  0.57982560642E+03  0.63277030174E+03  0.12508997655E+03 0.  0.
         23    2    1    2    0    0  0.15619086636E+03 -0.15542661271E+03  0.51903505016E+03  0.57132272726E+03  0.91974217635E+02 0.  0.
          5    1    3    3  502    0 -0.11646588029E+03  0.13052238604E+03  0.28662437238E+03  0.33581452883E+03  0.41800000000E+01 0. -1.
         -5    1    3    3    0  502 -0.39724986068E+02  0.24904226670E+02  0.29320123404E+03  0.29695577291E+03  0.41800000000E+01 0. -1.
        -11    1    4    4    0    0  0.10641384222E+03 -0.12802536453E+03  0.28110785648E+03  0.32670480063E+03  0.00000000000E+00 0.  1.
         11    1    4    4    0    0  0.49777024143E+02 -0.27401248180E+02  0.23792719368E+03  0.24461792663E+03  0.00000000000E+00 0. -1.
</event>
<event>
 8    1  0.3719512E-009  0.7962616E+02  0.7561462E-02  0.1330116E+00
         -1   -1    0    0    0  501 -0.00000000000E+00  0.00000000000E+00  0.27603136229E+03  0.27603136229E+03  0.00000000000E+00 0.  1.
          1   -1    0    0  501    0  0.00000000000E+00 -0.00000000000E+00 -0.45179160195E+02  0.45179160195E+02  0.00000000000E+00 0. -1.
         25    2    1    2    0    0 -0.23055724851E+01 -0.17795986537E+02  0.10031761266E+03  0.16134299092E+03  0.12508367003E+03 0.  0.
         23    2    1    2    0    0  0.23055724851E+01  0.17795986537E+02  0.13053458943E+03  0.15986753156E+03  0.90533617004E+02 0.  0.
          5    1    3    3  502    0  0.33458618870E+02  0.35113845986E+02  0.84956771662E+01  0.49417712281E+02  0.41800000000E+01 0.  1.
         -5    1    3    3    0  502 -0.35764191355E+02 -0.52909832523E+02  0.91821935497E+02  0.11192527864E+03  0.41800000000E+01 0.  1.
        -11    1    4    4    0    0  0.20776799180E+02 -0.20591492389E+00 -0.54320301387E+01  0.21476143428E+02  0.00000000000E+00 0. -1.
         11    1    4    4    0    0 -0.18471226695E+02  0.18001901461E+02  0.13596661957E+03  0.13839138813E+03  0.00000000000E+00 0.  1.
</event>
<event>
 8    1  0.3719512E-009  0.1700516E+03  0.7561462E-02  0.1177794E+00
          2   -1    0    0  501    0  0.00000000000E+00  0.00000000000E+00  0.86521255636E+03  0.86521255636E+03  0.00000000000E+00 0. -1.
         -2   -1    0    0    0  501 -0.00000000000E+00 -0.00000000000E+00 -0.65171440878E+02  0.65171440878E+02  0.00000000000E+00 0.  1.
         25    2    1    2    0    0 -0.64365328417E+01 -0.13798306939E+03  0.71767340803E+03  0.74147377615E+03  0.12508990262E+03 0.  0.
         23    2    1    2    0    0  0.64365328417E+01  0.13798306939E+03  0.82367707447E+02  0.18891022108E+03  0.99105378288E+02 0.  0.
          5    1    3    3  502    0  0.16905387970E+02  0.19110598744E+02  0.13917242690E+03  0.14155367863E+03  0.41800000000E+01 0.  1.
         -5    1    3    3    0  502 -0.23341920812E+02 -0.15709366813E+03  0.57850098113E+03  0.59992009752E+03  0.41800000000E+01 0.  1.
        -11    1    4    4    0    0  0.38777980190E+02  0.82369751834E+02  0.92357467542E+01  0.91508506615E+02  0.00000000000E+00 0.  1.
         11    1    4    4    0    0 -0.32341447348E+02  0.55613317554E+02  0.73131960693E+02  0.97401714465E+02  0.00000000000E+00 0. -1.
</event>
<event>
 8    1  0.3719512E-009  0.1481779E+03  0.7561462E-02  0.1202730E+00
         -1   -1    0    0    0  501 -0.00000000000E+00  0.00000000000E+00  0.13288540487E+03  0.13288540487E+03  0.00000000000E+00 0.  1.
          1   -1    0    0  501    0  0.00000000000E+00 -0.00000000000E+00 -0.21486829789E+03  0.21486829789E+03  0.00000000000E+00 0. -1.
         25    2    1    2    0    0 -0.10234362986E+03 -0.77429689235E+02 -0.36507491154E+02  0.18289345163E+03  0.12509053677E+03 0.  0.
         23    2    1    2    0    0  0.10234362986E+03  0.77429689235E+02 -0.45475401862E+02  0.16486025113E+03  0.92958672976E+02 0.  0.
          5    1    3    3  502    0 -0.31504069225E+02  0.26178341016E+02 -0.39806791868E+02  0.57270105595E+02  0.41800000000E+01 0. -1.
         -5    1    3    3    0  502 -0.70839560630E+02 -0.10360803025E+03  0.32993007142E+01  0.12562334603E+03  0.41800000000E+01 0. -1.
        -11    1    4    4    0    0  0.23769855561E+02  0.90296777607E+01  0.27663723811E+02  0.37574229586E+02  0.00000000000E+00 0.  1.
         11    1    4    4    0    0  0.78573774294E+02  0.68400011475E+02 -0.73139125674E+02  0.12728602155E+03  0.00000000000E+00 0. -1.
</event>
<event>
 8    1  0.3719512E-009  0.1986517E+03  0.7561462E-02  0.1150882E+00
          2   -1    0    0  501    0  0.00000000000E+00  0.00000000000E+00  0.46225011906E+03  0.46225011906E+03  0.00000000000E+00 0. -1.
         -2   -1    0    0    0  501 -0.00000000000E+00 -0.00000000000E+00 -0.11406118431E+03  0.11406118431E+03  0.00000000000E+00 0.  1.
         25    2    1    2    0    0 -0.11327300110E+03  0.16078191174E+03  0.21814451834E+03  0.31924295309E+03  0.12508971299E+03 0.  0.
         23    2    1    2    0    0  0.11327300110E+03 -0.16078191174E+03  0.13004441641E+03  0.25706835027E+03  0.10242553663E+03 0.  0.
          5    1    3    3  502    0 -0.59786277721E+02  0.11189575838E+03  0.50593474199E+02  0.13664637492E+03  0.41800000000E+01 0.  1.
         -5    1    3    3    0  502 -0.53486723381E+02  0.48886153362E+02  0.16755104414E+03  0.18259657818E+03  0.41800000000E+01 0.  1.
        -11    1    4    4    0    0  0.41636316393E+02 -0.42458349544E+02 -0.99199998527E+01  0.60288478881E+02  0.00000000000E+00 0.  1.
         11    1    4    4    0    0  0.71636684710E+02 -0.11832356219E+03  0.13996441626E+03  0.19677987139E+03  0.00000000000E+00 0. -1.
</event>
<event>
 8    1  0.3719512E-009  0.1227193E+03  0.7561462E-02  0.1238677E+00
         -1   -1    0    0    0  501 -0.00000000000E+00  0.00000000000E+00  0.24766424870E+03  0.24766424870E+03  0.00000000000E+00 0.  1.
          1   -1    0    0  501    0  0.00000000000E+00 -0.00000000000E+00 -0.10590260173E+03  0.10590260173E+03  0.00000000000E+00 0. -1.
         25    2    1    2    0    0 -0.57347712951E+02 -0.77046120744E+02 -0.16523822772E+01  0.15772072981E+03  0.12509289885E+03 0.  0.
         23    2    1    2    0    0  0.57347712951E+02  0.77046120744E+02  0.14341402925E+03  0.19584612062E+03  0.92537853201E+02 0.  0.
          5    1    3    3  502    0 -0.22417232617E+02  0.71987844772E+01  0.48123843818E+02  0.53737617736E+02  0.41800000000E+01 0.  1.
         -5    1    3    3    0  502 -0.34930480334E+02 -0.84244905222E+02 -0.49776226095E+02  0.10398311207E+03  0.41800000000E+01 0.  1.
        -11    1    4    4    0    0  0.28500201385E+01  0.75661475395E+02  0.10369680850E+03  0.12839707772E+03  0.00000000000E+00 0.  1.
         11    1    4    4    0    0  0.54497692813E+02  0.13846453493E+01  0.39717220752E+02  0.67449042906E+02  0.00000000000E+00 0. -1.
</event>
<event>
 8    1  0.3719512E-009  0.1222975E+03  0.7561462E-02  0.1239354E+00
         -2   -1    0    0    0  501 -0.00000000000E+00  0.00000000000E+00  0.57407605653E+02  0.57407605653E+02  0.00000000000E+00 0.  1.
          2   -1    0    0  501    0  0.00000000000E+00 -0.00000000000E+00 -0.41019370752E+03  0.41019370752E+03  0.00000000000E+00 0. -1.
         25    2    1    2    0    0  0.65183025085E+02 -0.77767970956E+02 -0.13489122634E+03  0.21010011069E+03  0.12509887891E+03 0.  0.
         23    2    1    2    0    0 -0.65183025085E+02  0.77767970956E+02 -0.21789487553E+03  0.25750120248E+03  0.92368871540E+02 0.  0.
          5    1    3    3  502    0  0.13657406875E+02  0.23478388497E+02 -0.78561024717E+02  0.83229000315E+02  0.41800000000E+01 0. -1.
         -5    1    3    3    0  502  0.51525618210E+02 -0.10124635945E+03 -0.56330201619E+02  0.12687111038E+03  0.41800000000E+01 0. -1.
        -11    1    4    4    0    0 -0.18584841567E+02  0.37475598846E+02 -0.13393132330E+02  0.43922577777E+02  0.00000000000E+00 0.  1.
         11    1    4    4    0    0 -0.46598183518E+02  0.40292372110E+02 -0.20450174320E+03  0.21357862470E+03  0.00000000000E+00 0. -1.
</event>
<event>
 8    1  0.3719512E-009  0.1086538E+03  0.7561462E-02  0.1263083E+00
         -1   -1    0    0    0  501 -0.00000000000E+00  0.00000000000E+00  0.24298712843E+02  0.24298712843E+02  0.00000000000E+00 0.  1.
          1   -1    0    0  501    0  0.00000000000E+00 -0.00000000000E+00 -0.80172467581E+03  0.80172467581E+03  0.00000000000E+00 0. -1.
         25    2    1    2    0    0  0.53313839597E+02 -0.17922571232E+02 -0.61775282776E+03  0.63279500025E+03  0.12508945631E+03 0.  0.
         23    2    1    2    0    0 -0.53313839597E+02  0.17922571232E+02 -0.15967313520E+03  0.19322838840E+03  0.93156405719E+02 0.  0.
          5    1    3    3  502    0  0.20723441946E+02  0.38108188701E+02 -0.79706467994E+02  0.90842107704E+02  0.41800000000E+01 0.  1.
         -5    1    3    3    0  502  0.32590397651E+02 -0.56030759933E+02 -0.53804635977E+03  0.54195289255E+03  0.41800000000E+01 0.  1.
        -11    1    4    4    0    0  0.50280587225E+01 -0.31752933314E+02 -0.49775701450E+02  0.59254962690E+02  0.00000000000E+00 0.  1.
         11    1    4    4    0    0 -0.58341898319E+02  0.49675504545E+02 -0.10989743375E+03  0.13397342571E+03  0.00000000000E+00 0. -1.
</event>
<event>
 8    1  0.3719512E-009  0.1125738E+03  0.7561462E-02  0.1255876E+00
         -1   -1    0    0    0  501 -0.00000000000E+00  0.00000000000E+00  0.47886906908E+02  0.47886906908E+02  0.00000000000E+00 0.  1.
          1   -1    0    0  501    0  0.00000000000E+00 -0.00000000000E+00 -0.29188693024E+03  0.29188693024E+03  0.00000000000E+00 0. -1.
         25    2    1    2    0    0 -0.57641673311E+00  0.33716719473E+02 -0.18609095154E+03  0.22674832515E+03  0.12509121186E+03 0.  0.
         23    2    1    2    0    0  0.57641673311E+00 -0.33716719473E+02 -0.57909071786E+02  0.11302551199E+03  0.91017340860E+02 0.  0.
          5    1    3    3  502    0 -0.31898344429E+02 -0.38187377637E+02 -0.86938465004E+02  0.10025741511E+03  0.41800000000E+01 0.  1.
         -5    1    3    3    0  502  0.31321927696E+02  0.71904097110E+02 -0.99152486537E+02  0.12649091004E+03  0.41800000000E+01 0.  1.
        -11    1    4    4    0    0  0.20639167885E+02  0.26277560941E+02 -0.24900007099E+02  0.41671282840E+02  0.00000000000E+00 0. -1.
         11    1    4    4    0    0 -0.20062751152E+02 -0.59994280414E+02 -0.33009064687E+02  0.71354229151E+02  0.00000000000E+00 0.  1.
</event>
<event>
 8    1  0.3719512E-009  0.7739086E+02  0.7561462E-02  0.1336623E+00
         -2   -1    0    0    0  501 -0.00000000000E+00  0.00000000000E+00  0.12143035978E+03  0.12143035978E+03  0.00000000000E+00 0.  1.
          2   -1    0    0  501    0  0.00000000000E+00 -0.00000000000E+00 -0.11194022904E+03  0.11194022904E+03  0.00000000000E+00 0. -1.
         25    2    1    2    0    0 -0.32255657508E+02 -0.18298372748E+02 -0.78610550683E+01  0.13070676854E+03  0.12508878954E+03 0.  0.
         23    2    1    2    0    0  0.32255657508E+02  0.18298372748E+02  0.17351185804E+02  0.10266382028E+03  0.94146367214E+02 0.  0.
          5    1    3    3  502    0 -0.30048988443E+02  0.28083049914E+02  0.44404030185E+02  0.60669512076E+02  0.41800000000E+01 0. -1.
         -5    1    3    3    0  502 -0.22066690650E+01 -0.46381422662E+02 -0.52265085253E+02  0.70037256464E+02  0.41800000000E+01 0. -1.
        -11    1    4    4    0    0  0.31476189299E+02 -0.14044173295E+02  0.47334876253E+02  0.58554075915E+02  0.00000000000E+00 0.  1.
         11    1    4    4    0    0  0.77946820920E+00  0.32342546042E+02 -0.29983690449E+02  0.44109744368E+02  0.00000000000E+00 0. -1.
</event>
<event>
 8    1  0.3719512E-009  0.3160271E+03  0.7561462E-02  0.1077492E+00
         -2   -1    0    0    0  501 -0.00000000000E+00  0.00000000000E+00  0.55836965945E+02  0.55836965945E+02  0.00000000000E+00 0.  1.
          2   -1    0    0  501    0  0.00000000000E+00 -0.00000000000E+00 -0.19281484296E+04  0.19281484296E+04  0.00000000000E+00 0. -1.
         25    2    1    2    0    0  0.23737007707E+03 -0.19654968028E+03 -0.87182666219E+03  0.93311610601E+03  0.12509039965E+03 0.  0.
         23    2    1    2    0    0 -0.23737007707E+03  0.19654968028E+03 -0.10004848015E+04  0.10508692896E+04  0.91542861140E+02 0.  0.
          5    1    3    3  502    0 -0.27082645980E+01 -0.28944766033E+02 -0.30748978944E+02  0.42521833026E+02  0.41800000000E+01 0. -1.
         -5    1    3    3    0  502  0.24007834166E+03 -0.16760491425E+03 -0.84107768325E+03  0.89059427298E+03  0.41800000000E+01 0. -1.
        -11    1    4    4    0    0 -0.15902431554E+03  0.11146981442E+03 -0.75385052205E+03  0.77846314110E+03  0.00000000000E+00 0. -1.
         11    1    4    4    0    0 -0.78345761529E+02  0.85079865854E+02 -0.24663427945E+03  0.27240614846E+03  0.00000000000E+00 0.  1.
</event>
<event>
 8    1  0.3719512E-009  0.7698438E+02  0.7561462E-02  0.1337834E+00
         -1   -1    0    0    0  501 -0.00000000000E+00  0.00000000000E+00  0.78813695884E+03  0.78813695884E+03  0.00000000000E+00 0.  1.
          1   -1    0    0  501    0  0.00000000000E+00 -0.00000000000E+00 -0.18574553315E+02  0.18574553315E+02  0.00000000000E+00 0. -1.
         25    2    1    2    0    0 -0.40853580667E+02  0.29679940541E+02  0.35706333637E+03  0.38169597522E+03  0.12509067672E+03 0.  0.
         23    2    1    2    0    0  0.40853580667E+02 -0.29679940541E+02  0.41249906916E+03  0.42501553693E+03  0.89066327259E+02 0.  0.
          5    1    3    3  502    0 -0.88394437213E+01  0.99231716943E+01 -0.70548937031E+01  0.15615666074E+02  0.41800000000E+01 0. -1.
         -5    1    3    3    0  502 -0.32014136945E+02  0.19756768846E+02  0.36411823007E+03  0.36608030915E+03  0.41800000000E+01 0. -1.
        -11    1    4    4    0    0  0.77696389903E+01 -0.58072303457E+02  0.24948418201E+03  0.25627156844E+03  0.00000000000E+00 0.  1.
         11    1    4    4    0    0  0.33083941676E+02  0.28392362916E+02  0.16301488715E+03  0.16874396849E+03  0.00000000000E+00 0. -1.
</event>
<event>
 8    1  0.3719512E-009  0.1268543E+03  0.7561462E-02  0.1232200E+00
         -2   -1    0    0    0  501 -0.00000000000E+00  0.00000000000E+00  0.29325906802E+03  0.29325906802E+03  0.00000000000E+00 0.  1.
          2   -1    0    0  501    0  0.00000000000E+00 -0.00000000000E+00 -0.86091980211E+02  0.86091980211E+02  0.00000000000E+00 0. -1.
         25    2    1    2    0    0 -0.58991822042E+02  0.99842595564E+02  0.10322804420E+03  0.19938196491E+03  0.12509420397E+03 0.  0.
         23    2    1    2    0    0  0.58991822042E+02 -0.99842595564E+02  0.10393904361E+03  0.17996908332E+03  0.90205139578E+02 0.  0.
          5    1    3    3  502    0 -0.48138193226E+02  0.17993666935E+02 -0.16276521002E+02  0.54068985867E+02  0.41800000000E+01 0.  1.
         -5    1    3    3    0  502 -0.10853628816E+02  0.81848928629E+02  0.11950456520E+03  0.14531297905E+03  0.41800000000E+01 0.  1.
        -11    1    4    4    0    0  0.16603386714E+02 -0.56346573223E+02 -0.96766995139E+00  0.58749852336E+02  0.00000000000E+00 0. -1.
         11    1    4    4    0    0  0.42388435328E+02 -0.43496022340E+02  0.10490671356E+03  0.12121923098E+03  0.00000000000E+00 0.  1.
</event>
<event>
 8    1  0.3719512E-009  0.9629747E+02  0.7561462E-02  0.1288280E+00
          1   -1    0    0  501    0  0.00000000000E+00  0.00000000000E+00  0.72057127406E+02  0.72057127406E+02  0.00000000000E+00 0. -1.
         -1   -1    0    0    0  501 -0.00000000000E+00 -0.00000000000E+00 -0.20496252336E+03  0.20496252336E+03  0.00000000000E+00 0.  1.
         25    2    1    2    0    0 -0.12077465287E+02  0.25104408740E+01 -0.11718001804E+03  0.17184349633E+03  0.12508742192E+03 0.  0.
         23    2    1    2    0    0  0.12077465287E+02 -0.25104408740E+01 -0.15725377911E+02  0.10517615443E+03  0.10325971368E+03 0.  0.
          5    1    3    3  502    0  0.39085730106E+02 -0.10807643357E+02 -0.11124456806E+03  0.11847922086E+03  0.41800000000E+01 0. -1.
         -5    1    3    3    0  502 -0.51163195393E+02  0.13318084231E+02 -0.59354499812E+01  0.53364275474E+02  0.41800000000E+01 0. -1.
        -11    1    4    4    0    0  0.10392449001E+02  0.47566834180E+02 -0.24179617323E+02  0.54362308671E+02  0.00000000000E+00 0.  1.
         11    1    4    4    0    0  0.16850162858E+01 -0.50077275054E+02  0.84542394118E+01  0.50813845758E+02  0.00000000000E+00 0. -1.
</event>
<event>
 8    1  0.3719512E-009  0.5953138E+02  0.7561462E-02  0.1399809E+00
          2   -1    0    0  501    0  0.00000000000E+00  0.00000000000E+00  0.65905727946E+03  0.65905727946E+03  0.00000000000E+00 0. -1.
         -2   -1    0    0    0  501 -0.00000000000E+00 -0.00000000000E+00 -0.20719321959E+02  0.20719321959E+02  0.00000000000E+00 0.  1.
         25    2    1    2    0    0  0.18600678442E+02  0.11405430556E+01  0.47229080865E+03  0.48893139462E+03  0.12509202462E+03 0.  0.
         23    2    1    2    0    0 -0.18600678442E+02 -0.11405430556E+01  0.16604714884E+03  0.19084520680E+03  0.92211448545E+02 0.  0.
          5    1    3    3  502    0  0.18126686765E+02 -0.18873510892E+02  0.13602451729E+02  0.29787334213E+02  0.41800000000E+01 0. -1.
         -5    1    3    3    0  502  0.47399167662E+00  0.20014053948E+02  0.45868835693E+03  0.45914406040E+03  0.41800000000E+01 0. -1.
        -11    1    4    4    0    0 -0.28138305845E+00  0.33193994414E+02  0.17985032321E+02  0.37754229289E+02  0.00000000000E+00 0.  1.
         11    1    4    4    0    0 -0.18319295383E+02 -0.34334537470E+02  0.14806211652E+03  0.15309097751E+03  0.00000000000E+00 0. -1.
</event>
<event>
 8    1  0.3719512E-009  0.9965062E+02  0.7561462E-02  0.1281032E+00
          1   -1    0    0  501    0  0.00000000000E+00  0.00000000000E+00  0.31938498319E+03  0.31938498319E+03  0.00000000000E+00 0. -1.
         -1   -1    0    0    0  501 -0.00000000000E+00 -0.00000000000E+00 -0.81518177543E+02  0.81518177543E+02  0.00000000000E+00 0.  1.
         25    2    1    2    0    0  0.12382498581E+02  0.26214169445E+02 -0.13874205983E+02  0.12915183916E+03  0.12508874856E+03 0.  0.
         23    2    1    2    0    0 -0.12382498581E+02 -0.26214169445E+02  0.25174101163E+03  0.27175132157E+03  0.98156685395E+02 0.  0.
          5    1    3    3  502    0  0.67705888962E+01 -0.43512508222E+02  0.23117556034E+02  0.49910650594E+02  0.41800000000E+01 0. -1.
         -5    1    3    3    0  502  0.56119096843E+01  0.69726677667E+02 -0.36991762016E+02  0.79241188569E+02  0.41800000000E+01 0. -1.
        -11    1    4    4    0    0 -0.40998552788E+02  0.65175077256E+01  0.48173572254E+02  0.63592863604E+02  0.00000000000E+00 0.  1.
         11    1    4    4    0    0  0.28616054207E+02 -0.32731677171E+02  0.20356743937E+03  0.20815845796E+03  0.00000000000E+00 0. -1.
</event>
<event>
 8    1  0.3719512E-009  0.1339515E+03  0.7561462E-02  0.1221707E+00
          1   -1    0    0  501    0  0.00000000000E+00  0.00000000000E+00  0.12312473352E+04  0.12312473352E+04  0.00000000000E+00 0. -1.
         -1   -1    0    0    0  501 -0.00000000000E+00 -0.00000000000E+00 -0.17292579088E+02  0.17292579088E+02  0.00000000000E+00 0.  1.
         25    2    1    2    0    0  0.40576302652E+02 -0.92986715579E+02  0.66615224844E+03  0.68534719694E+03  0.12509594975E+03 0.  0.
         23    2    1    2    0    0 -0.40576302652E+02  0.92986715579E+02  0.54780250766E+03  0.56319271734E+03  0.82495356523E+02 0.  0.
          5    1    3    3  502    0 -0.28174838946E+02 -0.49646868185E+02  0.46264334393E+03  0.46617053656E+03  0.41800000000E+01 0.  1.
         -5    1    3    3    0  502  0.68751141598E+02 -0.43339847394E+02  0.20350890450E+03  0.21917666038E+03  0.41800000000E+01 0.  1.
        -11    1    4    4    0    0  0.14518380845E+02 -0.62306507640E+01  0.43552987313E+02  0.46329980523E+02  0.00000000000E+00 0.  1.
         11    1    4    4    0    0 -0.55094683497E+02  0.99217366343E+02  0.50424952035E+03  0.51686273682E+03  0.00000000000E+00 0. -1.
</event>
<event>
 8    1  0.3719512E-009  0.7642955E+02  0.7561462E-02  0.1339500E+00
          3   -1    0    0  501    0  0.00000000000E+00  0.00000000000E+00  0.14534947372E+03  0.14534947372E+03  0.00000000000E+00 0. -1.
         -3   -1    0    0    0  501 -0.00000000000E+00 -0.00000000000E+00 -0.92450524210E+02  0.92450524210E+02  0.00000000000E+00 0.  1.
         25    2    1    2    0    0  0.31622610110E+02 -0.28625011002E+01  0.60593065257E+02  0.14257205857E+03  0.12508832458E+03 0.  0.
         23    2    1    2    0    0 -0.31622610110E+02  0.28625011002E+01 -0.76941157504E+01  0.95227939357E+02  0.89448184075E+02 0.  0.
          5    1    3    3  502    0 -0.22806652473E+02 -0.40889368620E+02  0.59768456317E+02  0.76038310303E+02  0.41800000000E+01 0.  1.
         -5    1    3    3    0  502  0.54429262583E+02  0.38026867520E+02  0.82460893977E+00  0.66533748268E+02  0.41800000000E+01 0.  1.
        -11    1    4    4    0    0 -0.21946431833E+02 -0.92546740089E+01 -0.47155425806E+02  0.52829244213E+02  0.00000000000E+00 0.  1.
         11    1    4    4    0    0 -0.96761782769E+01  0.12117175109E+02  0.39461310055E+02  0.42398695144E+02  0.00000000000E+00 0. -1.
</event>
<event>
 8    1  0.3719512E-009  0.1375972E+03  0.7561462E-02  0.1216599E+00
         -2   -1    0    0    0  501 -0.00000000000E+00  0.00000000000E+00  0.20808963915E+02  0.20808963915E+02  0.00000000000E+00 0.  1.
          2   -1    0    0  501    0  0.00000000000E+00 -0.00000000000E+00 -0.99255297049E+03  0.99255297049E+03  0.00000000000E+00 0. -1.
         25    2    1    2    0    0 -0.87504298002E+02 -0.33515098161E+02 -0.50091450436E+03  0.52473254967E+03  0.12509454036E+03 0.  0.
         23    2    1    2    0    0  0.87504298002E+02  0.33515098161E+02 -0.47082950222E+03  0.48862938474E+03  0.91093312046E+02 0.  0.
          5    1    3    3  502    0 -0.10516345078E+02  0.41799789590E+02 -0.89381592583E+02  0.99319471485E+02  0.41800000000E+01 0. -1.
         -5    1    3    3    0  502 -0.76987952924E+02 -0.75314887750E+02 -0.41153291178E+03  0.42541307818E+03  0.41800000000E+01 0. -1.
        -11    1    4    4    0    0  0.23888065342E+02 -0.27177649466E+02 -0.21717106271E+03  0.22016479004E+03  0.00000000000E+00 0. -1.
         11    1    4    4    0    0  0.63616232660E+02  0.60692747626E+02 -0.25365843951E+03  0.26846459470E+03  0.00000000000E+00 0.  1.
</event>
<event>
 8    1  0.3719512E-009  0.1902873E+03  0.7561462E-02  0.1158202E+00
          2   -1    0    0  501    0  0.00000000000E+00  0.00000000000E+00  0.90966338608E+03  0.90966338608E+03  0.00000000000E+00 0. -1.
         -2   -1    0    0    0  501 -0.00000000000E+00 -0.00000000000E+00 -0.62552998569E+02  0.62552998569E+02  0.00000000000E+00 0.  1.
         25    2    1    2    0    0  0.14056796754E+03 -0.64596416549E+02  0.72519151008E+03  0.75198545734E+03  0.12508937292E+03 0.  0.
         23    2    1    2    0    0 -0.14056796754E+03  0.64596416549E+02  0.12191887743E+03  0.22023092731E+03  0.98515979123E+02 0.  0.
          5    1    3    3  502    0  0.64303892637E+02  0.35073947568E+02  0.27091771493E+03  0.28067606430E+03  0.41800000000E+01 0.  1.
         -5    1    3    3    0  502  0.76264074903E+02 -0.99670364117E+02  0.45427379515E+03  0.47130939304E+03  0.41800000000E+01 0.  1.
        -11    1    4    4    0    0 -0.11356022363E+03  0.89739540621E+02  0.84121761300E+02  0.16740842352E+03  0.00000000000E+00 0.  1.
         11    1    4    4    0    0 -0.27007743913E+02 -0.25143124073E+02  0.37797116127E+02  0.52822503793E+02  0.00000000000E+00 0. -1.
</event>
<event>
 8    1  0.3719512E-009  0.2019910E+03  0.7561462E-02  0.1148070E+00
          4   -1    0    0  501    0  0.00000000000E+00  0.00000000000E+00  0.37080372428E+02  0.37080372428E+02  0.00000000000E+00 0. -1.
         -4   -1    0    0    0  501 -0.00000000000E+00 -0.00000000000E+00 -0.14341231668E+04  0.14341231668E+04  0.00000000000E+00 0.  1.
         25    2    1    2    0    0  0.16634125278E+03 -0.78281955497E+02 -0.44642392366E+03  0.49873696347E+03  0.12508701844E+03 0.  0.
         23    2    1    2    0    0 -0.16634125278E+03  0.78281955497E+02 -0.95061887071E+03  0.97246657575E+03  0.90650574624E+02 0.  0.
          5    1    3    3  502    0  0.94536070673E+02  0.14816530773E+02 -0.27177428209E+03  0.28815851722E+03  0.41800000000E+01 0.  1.
         -5    1    3    3    0  502  0.71805182108E+02 -0.93098486270E+02 -0.17464964157E+03  0.21057844625E+03  0.41800000000E+01 0.  1.
        -11    1    4    4    0    0 -0.11683420496E+03  0.79009048202E+02 -0.83292583835E+03  0.84478287940E+03  0.00000000000E+00 0. -1.
         11    1    4    4    0    0 -0.49507047818E+02 -0.72709270464E+00 -0.11769303236E+03  0.12768369635E+03  0.00000000000E+00 0.  1.
</event>
<event>
 8    1  0.3719512E-009  0.1088086E+03  0.7561462E-02  0.1262792E+00
         -1   -1    0    0    0  501 -0.00000000000E+00  0.00000000000E+00  0.32160737427E+02  0.32160737427E+02  0.00000000000E+00 0.  1.
          1   -1    0    0  501    0  0.00000000000E+00 -0.00000000000E+00 -0.37561430735E+03  0.37561430735E+03  0.00000000000E+00 0. -1.
         25    2    1    2    0    0  0.43959977905E+01  0.14283525271E+02 -0.22113268469E+03  0.25450568023E+03  0.12510049216E+03 0.  0.
         23    2    1    2    0    0 -0.43959977905E+01 -0.14283525271E+02 -0.12232088523E+03  0.15326936455E+03  0.91135916387E+02 0.  0.
          5    1    3    3  502    0  0.47176610568E+02 -0.36176239243E+02 -0.99471615276E+02  0.11595873195E+03  0.41800000000E+01 0.  1.
         -5    1    3    3    0  502 -0.42780612777E+02  0.50459764515E+02 -0.12166106942E+03  0.13854694827E+03  0.41800000000E+01 0.  1.
        -11    1    4    4    0    0 -0.19275127650E+02 -0.49706494375E+02 -0.79699714621E+02  0.95886968038E+02  0.00000000000E+00 0. -1.
         11    1    4    4    0    0  0.14879129859E+02  0.35422969103E+02 -0.42621170610E+02  0.57382396513E+02  0.00000000000E+00 0.  1.
</event>
<event>
 8    1  0.3719512E-009  0.1318021E+03  0.7561462E-02  0.1224806E+00
         -2   -1    0    0    0  501 -0.00000000000E+00  0.00000000000E+00  0.11604245504E+03  0.11604245504E+03  0.00000000000E+00 0.  1.
          2   -1    0    0  501    0  0.00000000000E+00 -0.00000000000E+00 -0.23488211699E+03  0.23488211699E+03  0.00000000000E+00 0. -1.
         25    2    1    2    0    0  0.86599189932E+02  0.57532408569E+02 -0.13787618160E+03  0.21322950654E+03  0.12509030048E+03 0.  0.
         23    2    1    2    0    0 -0.86599189932E+02 -0.57532408569E+02  0.19036519647E+02  0.13769506549E+03  0.88250463153E+02 0.  0.
          5    1    3    3  502    0 -0.92065316424E+01 -0.80063226790E+01 -0.84361155673E+02  0.85341305440E+02  0.41800000000E+01 0. -1.
         -5    1    3    3    0  502  0.95805721574E+02  0.65538731248E+02 -0.53515025927E+02  0.12788820110E+03  0.41800000000E+01 0. -1.
        -11    1    4    4    0    0 -0.30558151956E+02 -0.70669842259E+02  0.21948917871E+02  0.80061115728E+02  0.00000000000E+00 0.  1.
         11    1    4    4    0    0 -0.56041037976E+02  0.13137433691E+02 -0.29123982242E+01  0.57633949759E+02  0.00000000000E+00 0. -1.
</event>
<event>
 8    1  0.3719512E-009  0.1122104E+03  0.7561462E-02  0.1256530E+00
         -3   -1    0    0    0  501 -0.00000000000E+00  0.00000000000E+00  0.79367155518E+03  0.79367155518E+03  0.00000000000E+00 0.  1.
          3   -1    0    0  501    0  0.00000000000E+00 -0.00000000000E+00 -0.28146140174E+02  0.28146140174E+02  0.00000000000E+00 0. -1.
         25    2    1    2    0    0 -0.99857666101E+02  0.18939562927E+02  0.44507309355E+03  0.47335779660E+03  0.12508910615E+03 0.  0.
         23    2    1    2    0    0  0.99857666101E+02 -0.18939562927E+02  0.32045232146E+03  0.34845989876E+03  0.91675243061E+02 0.  0.
          5    1    3    3  502    0 -0.94334448941E+02 -0.38530558828E+01  0.43860841456E+03  0.44867432289E+03  0.41800000000E+01 0.  1.
         -5    1    3    3    0  502 -0.55232171599E+01  0.22792618810E+02  0.64646789882E+01  0.24683473711E+02  0.41800000000E+01 0.  1.
        -11    1    4    4    0    0  0.72368153151E+02 -0.27322246339E+02  0.30724171275E+03  0.31682980413E+03  0.00000000000E+00 0.  1.
         11    1    4    4    0    0  0.27489512949E+02  0.83826834123E+01  0.13210608713E+02  0.31630094625E+02  0.00000000000E+00 0. -1.
</event>
<event>
 8    1  0.3719512E-009  0.1016987E+03  0.7561462E-02  0.1276764E+00
         -1   -1    0    0    0  501 -0.00000000000E+00  0.00000000000E+00  0.43550604180E+02  0.43550604180E+02  0.00000000000E+00 0.  1.
          1   -1    0    0  501    0  0.00000000000E+00 -0.00000000000E+00 -0.41419457066E+03  0.41419457066E+03  0.00000000000E+00 0. -1.
         25    2    1    2    0    0  0.32727215803E+02 -0.69452292837E+02 -0.17175939644E+03  0.22592489216E+03  0.12508427159E+03 0.  0.
         23    2    1    2    0    0 -0.32727215803E+02  0.69452292837E+02 -0.19888457004E+03  0.23182028268E+03  0.91054267480E+02 0.  0.
          5    1    3    3  502    0  0.10328580725E+01 -0.52348014838E+02 -0.22410705222E+01  0.52572580785E+02  0.41800000000E+01 0. -1.
         -5    1    3    3    0  502  0.31694357731E+02 -0.17104277999E+02 -0.16951832592E+03  0.17335231138E+03  0.41800000000E+01 0. -1.
        -11    1    4    4    0    0  0.28995691201E+02  0.16969999923E+02 -0.90250632285E+02  0.96301129970E+02  0.00000000000E+00 0. -1.
         11    1    4    4    0    0 -0.61722907004E+02  0.52482292914E+02 -0.10863393776E+03  0.13551915271E+03  0.00000000000E+00 0.  1.
</event>
<event>
 8    1  0.3719512E-009  0.1735229E+03  0.7561462E-02  0.1174223E+00
          2   -1    0    0  501    0  0.00000000000E+00  0.00000000000E+00  0.67979955439E+03  0.67979955439E+03  0.00000000000E+00 0. -1.
         -2   -1    0    0    0  501 -0.00000000000E+00 -0.00000000000E+00 -0.51349500018E+02  0.51349500018E+02  0.00000000000E+00 0.  1.
         25    2    1    2    0    0  0.10689106491E+03 -0.10521746122E+03  0.29012532744E+03  0.34973778560E+03  0.12508956453E+03 0.  0.
         23    2    1    2    0    0 -0.10689106491E+03  0.10521746122E+03  0.33832472693E+03  0.38141126880E+03  0.92274163299E+02 0.  0.
          5    1    3    3  502    0  0.44484484783E+02 -0.12078136662E+03  0.16836036240E+03  0.21196625188E+03  0.41800000000E+01 0. -1.
         -5    1    3    3    0  502  0.62406580126E+02  0.15563905395E+02  0.12176496504E+03  0.13777153372E+03  0.41800000000E+01 0. -1.
        -11    1    4    4    0    0 -0.43835609669E+02  0.21006162583E+02  0.20961511112E+03  0.21517740205E+03  0.00000000000E+00 0. -1.
         11    1    4    4    0    0 -0.63055455240E+02  0.84211298638E+02  0.12870961581E+03  0.16623386675E+03  0.00000000000E+00 0.  1.
</event>
<event>
 8    1  0.3719512E-009  0.8251061E+02  0.7561462E-02  0.1322074E+00
          3   -1    0    0  501    0  0.00000000000E+00  0.00000000000E+00  0.70845284608E+03  0.70845284608E+03  0.00000000000E+00 0. -1.
         -3   -1    0    0    0  501 -0.00000000000E+00 -0.00000000000E+00 -0.20659265255E+02  0.20659265255E+02  0.00000000000E+00 0.  1.
         25    2    1    2    0    0  0.39352857579E+02  0.31096553978E+02  0.33170381125E+03  0.35803779502E+03  0.12509197094E+03 0.  0.
         23    2    1    2    0    0 -0.39352857579E+02 -0.31096553978E+02  0.35608976957E+03  0.37107431631E+03  0.91545514176E+02 0.  0.
          5    1    3    3  502    0  0.44410590394E+01 -0.12857340649E+02 -0.61678767522E+01  0.15509652401E+02  0.41800000000E+01 0.  1.
         -5    1    3    3    0  502  0.34911798539E+02  0.43953894628E+02  0.33787168800E+03  0.34252814262E+03  0.41800000000E+01 0.  1.
        -11    1    4    4    0    0 -0.36427907902E+02  0.21185004345E+02  0.83840487173E+02  0.93835090305E+02  0.00000000000E+00 0.  1.
         11    1    4    4    0    0 -0.29249496763E+01 -0.52281558324E+02  0.27224928240E+03  0.27723922601E+03  0.00000000000E+00 0. -1.
</event>
<event>
 8    1  0.3719512E-009  0.1483203E+03  0.7561462E-02  0.1202552E+00
         -1   -1    0    0    0  501 -0.00000000000E+00  0.00000000000E+00  0.25717265173E+03  0.25717265173E+03  0.00000000000E+00 0.  1.
          1   -1    0    0  501    0  0.00000000000E+00 -0.00000000000E+00 -0.10747589234E+03  0.10747589234E+03  0.00000000000E+00 0. -1.
         25    2    1    2    0    0 -0.47680583475E+02  0.11128524126E+03  0.11565486989E+03  0.20900119099E+03  0.12509039109E+03 0.  0.
         23    2    1    2    0    0  0.47680583475E+02 -0.11128524126E+03  0.34041889494E+02  0.15564735308E+03  0.91702809769E+02 0.  0.
          5    1    3    3  502    0 -0.39672577648E+02  0.13174022885E+03  0.62182103529E+02  0.15104134439E+03  0.41800000000E+01 0. -1.
         -5    1    3    3    0  502 -0.80080058277E+01 -0.20454987598E+02  0.53472766364E+02  0.57959846597E+02  0.41800000000E+01 0. -1.
        -11    1    4    4    0    0 -0.94023636770E+01 -0.57294164392E+02  0.48626611258E+02  0.75733566129E+02  0.00000000000E+00 0.  1.
         11    1    4    4    0    0  0.57082947152E+02 -0.53991076864E+02 -0.14584721764E+02  0.79913786955E+02  0.00000000000E+00 0. -1.
</event>
<event>
 8    1  0.3719512E-009  0.8846600E+02  0.7561462E-02  0.1306610E+00
          3   -1    0    0  501    0  0.00000000000E+00  0.00000000000E+00  0.20732775771E+03  0.20732775771E+03  0.00000000000E+00 0. -1.
         -3   -1    0    0    0  501 -0.00000000000E+00 -0.00000000000E+00 -0.92863430185E+02  0.92863430185E+02  0.00000000000E+00 0.  1.
         25    2    1    2    0    0  0.82905011877E+01 -0.68896053939E+01 -0.29824195515E+02  0.12904646617E+03  0.12508920306E+03 0.  0.
         23    2    1    2    0    0 -0.82905011877E+01  0.68896053939E+01  0.14428852304E+03  0.17114472172E+03  0.91406448458E+02 0.  0.
          5    1    3    3  502    0 -0.26527103339E+02 -0.39339634191E+02 -0.56840302408E+02  0.74159196379E+02  0.41800000000E+01 0.  1.
         -5    1    3    3    0  502  0.34817604527E+02  0.32450028797E+02  0.27016106893E+02  0.54887269795E+02  0.41800000000E+01 0.  1.
        -11    1    4    4    0    0 -0.37775529463E+02 -0.18999558876E+02  0.34558183832E+02  0.54609906917E+02  0.00000000000E+00 0.  1.
         11    1    4    4    0    0  0.29485028275E+02  0.25889164270E+02  0.10973033921E+03  0.11653481481E+03  0.00000000000E+00 0. -1.
</event>
<event>
 8    1  0.3719512E-009  0.1475177E+03  0.7561462E-02  0.1203557E+00
          1   -1    0    0  501    0  0.00000000000E+00  0.00000000000E+00  0.24728970607E+02  0.24728970607E+02  0.00000000000E+00 0.  1.
         -1   -1    0    0    0  501 -0.00000000000E+00 -0.00000000000E+00 -0.10791786394E+04  0.10791786394E+04  0.00000000000E+00 0. -1.
         25    2    1    2    0    0 -0.86795587351E+02 -0.73502816757E+02 -0.70058347762E+03  0.72069421335E+03  0.12508717756E+03 0.  0.
         23    2    1    2    0    0  0.86795587351E+02  0.73502816757E+02 -0.35386619117E+03  0.38321339666E+03  0.93247456081E+02 0.  0.
          5    1    3    3  502    0 -0.10206474160E+03 -0.92109292392E+02 -0.65157200480E+03  0.66593159038E+03  0.41800000000E+01 0. -1.
         -5    1    3    3    0  502  0.15269154251E+02  0.18606475635E+02 -0.49011472816E+02  0.54762622971E+02  0.41800000000E+01 0. -1.
        -11    1    4    4    0    0  0.54348699864E+02  0.18242401466E+01 -0.69974101154E+02  0.88619884120E+02  0.00000000000E+00 0.  1.
         11    1    4    4    0    0  0.32446887487E+02  0.71678576611E+02 -0.28389209002E+03  0.29459351254E+03  0.00000000000E+00 0. -1.
</event>
<event>
 8    1  0.3719512E-009  0.1067484E+03  0.7561462E-02  0.1266713E+00
         -3   -1    0    0    0  501 -0.00000000000E+00  0.00000000000E+00  0.90675689397E+02  0.90675689397E+02  0.00000000000E+00 0.  1.
          3   -1    0    0  501    0  0.00000000000E+00 -0.00000000000E+00 -0.19576041629E+03  0.19576041629E+03  0.00000000000E+00 0. -1.
         25    2    1    2    0    0  0.23185660114E+02  0.41331500664E+02  0.62268661308E+01  0.13391367826E+03  0.12509289181E+03 0.  0.
         23    2    1    2    0    0 -0.23185660114E+02 -0.41331500664E+02 -0.11131159302E+03  0.15252242742E+03  0.92881388575E+02 0.  0.
          5    1    3    3  502    0  0.73913566119E+01 -0.33455908632E+02  0.37727314124E+02  0.51134651715E+02  0.41800000000E+01 0.  1.
         -5    1    3    3    0  502  0.15794303502E+02  0.74787409296E+02 -0.31500447994E+02  0.82779026548E+02  0.41800000000E+01 0.  1.
        -11    1    4    4    0    0  0.90878613945E+01 -0.62937815485E+02 -0.54763362671E+02  0.83921294877E+02  0.00000000000E+00 0.  1.
         11    1    4    4    0    0 -0.32273521509E+02  0.21606314821E+02 -0.56548230348E+02  0.68601132543E+02  0.00000000000E+00 0. -1.
</event>
<event>
 8    1  0.3719512E-009  0.8745366E+02  0.7561462E-02  0.1309138E+00
          1   -1    0    0  501    0  0.00000000000E+00  0.00000000000E+00  0.13791198991E+03  0.13791198991E+03  0.00000000000E+00 0. -1.
         -1   -1    0    0    0  501 -0.00000000000E+00 -0.00000000000E+00 -0.10195194663E+03  0.10195194663E+03  0.00000000000E+00 0.  1.
         25    2    1    2    0    0 -0.18571635259E+02 -0.28918878436E+02  0.54274379593E+02  0.14062181879E+03  0.12509028928E+03 0.  0.
         23    2    1    2    0    0  0.18571635259E+02  0.28918878436E+02 -0.18314336309E+02  0.99242117750E+02  0.91281848442E+02 0.  0.
          5    1    3    3  502    0 -0.93949398279E+01 -0.76315361728E+02  0.15473421741E+02  0.78544245559E+02  0.41800000000E+01 0.  1.
         -5    1    3    3    0  502 -0.91766954312E+01  0.47396483292E+02  0.38800957852E+02  0.62077573227E+02  0.41800000000E+01 0.  1.
        -11    1    4    4    0    0  0.22267668764E+02  0.20931369591E+01 -0.51655521032E+02  0.56289636237E+02  0.00000000000E+00 0.  1.
         11    1    4    4    0    0 -0.36960335050E+01  0.26825741477E+02  0.33341184723E+02  0.42952481514E+02  0.00000000000E+00 0. -1.
</event>
<event>
 8    1  0.3719512E-009  0.8876102E+02  0.7561462E-02  0.1305880E+00
          3   -1    0    0  501    0  0.00000000000E+00  0.00000000000E+00  0.64041643400E+02  0.64041643400E+02  0.00000000000E+00 0. -1.
         -3   -1    0    0    0  501 -0.00000000000E+00 -0.00000000000E+00 -0.20382508507E+03  0.20382508507E+03  0.00000000000E+00 0.  1.
         25    2    1    2    0    0  0.25061857486E+02  0.72035966314E+01 -0.10277992022E+03  0.16398363113E+03  0.12508769234E+03 0.  0.
         23    2    1    2    0    0 -0.25061857486E+02 -0.72035966314E+01 -0.37003521447E+02  0.10388309734E+03  0.93501063136E+02 0.  0.
          5    1    3    3  502    0 -0.16348995017E+02 -0.24106559688E+02  0.16565563160E+02  0.33768419283E+02  0.41800000000E+01 0. -1.
         -5    1    3    3    0  502  0.41410852502E+02  0.31310156320E+02 -0.11934548338E+03  0.13021521185E+03  0.41800000000E+01 0. -1.
        -11    1    4    4    0    0  0.19302415358E+02 -0.37578833344E+02 -0.87418507097E+01  0.43141301649E+02  0.00000000000E+00 0. -1.
         11    1    4    4    0    0 -0.44364272844E+02  0.30375236712E+02 -0.28261670737E+02  0.60741795686E+02  0.00000000000E+00 0.  1.
</event>
<event>
 8    1  0.3719512E-009  0.1132504E+03  0.7561462E-02  0.1254666E+00
          1   -1    0    0  501    0  0.00000000000E+00  0.00000000000E+00  0.76503751983E+03  0.76503751983E+03  0.00000000000E+00 0. -1.
         -1   -1    0    0    0  501 -0.00000000000E+00 -0.00000000000E+00 -0.30641697728E+02  0.30641697728E+02  0.00000000000E+00 0.  1.
         25    2    1    2    0    0 -0.20108261921E+02 -0.97151013025E+02  0.47711935925E+03  0.50312196344E+03  0.12508463371E+03 0.  0.
         23    2    1    2    0    0  0.20108261921E+02  0.97151013025E+02  0.25727646285E+03  0.29255725412E+03  0.97754319974E+02 0.  0.
          5    1    3    3  502    0 -0.18551389092E+02 -0.90704783253E+02  0.48393812404E+03  0.49273227217E+03  0.41800000000E+01 0.  1.
         -5    1    3    3    0  502 -0.15568728289E+01 -0.64462297719E+01 -0.68187647885E+01  0.10389691262E+02  0.41800000000E+01 0.  1.
        -11    1    4    4    0    0 -0.30026537890E+02  0.34245629532E+02  0.15986371050E+03  0.16622503438E+03  0.00000000000E+00 0. -1.
         11    1    4    4    0    0  0.50134799811E+02  0.62905383493E+02  0.97412752346E+02  0.12633221974E+03  0.00000000000E+00 0.  1.
</event>
<event>
 8    1  0.3719512E-009  0.1718778E+03  0.7561462E-02  0.1175904E+00
         -3   -1    0    0    0  501 -0.00000000000E+00  0.00000000000E+00  0.35260133366E+03  0.35260133366E+03  0.00000000000E+00 0.  1.
          3   -1    0    0  501    0  0.00000000000E+00 -0.00000000000E+00 -0.13881940104E+03  0.13881940104E+03  0.00000000000E+00 0. -1.
         25    2    1    2    0    0  0.99863685544E+02 -0.12214420904E+03 -0.10949833502E+02  0.20164178241E+03  0.12509015176E+03 0.  0.
         23    2    1    2    0    0 -0.99863685544E+02  0.12214420904E+03  0.22473176612E+03  0.28977895229E+03  0.92604054969E+02 0.  0.
          5    1    3    3  502    0  0.65639713990E+02 -0.76793882369E+01  0.33361907019E+02  0.74148730915E+02  0.41800000000E+01 0.  1.
         -5    1    3    3    0  502  0.34223971554E+02 -0.11446482081E+03 -0.44311740521E+02  0.12749305149E+03  0.41800000000E+01 0.  1.
        -11    1    4    4    0    0 -0.82776099299E+02  0.10592274110E+03  0.22927955154E+03  0.26578303643E+03  0.00000000000E+00 0.  1.
         11    1    4    4    0    0 -0.17087586245E+02  0.16221467943E+02 -0.45477854262E+01  0.23995915864E+02  0.00000000000E+00 0. -1.
</event>
<event>
 8    1  0.3719512E-009  0.9890600E+02  0.7561462E-02  0.1282613E+00
         -2   -1    0    0    0  501 -0.00000000000E+00  0.00000000000E+00  0.41063874215E+02  0.41063874215E+02  0.00000000000E+00 0.  1.
          2   -1    0    0  501    0  0.00000000000E+00 -0.00000000000E+00 -0.30112922301E+03  0.30112922301E+03  0.00000000000E+00 0. -1.
         25    2    1    2    0    0 -0.23802525118E+02 -0.20866372430E+01 -0.15916726092E+03  0.20384608630E+03  0.12509234866E+03 0.  0.
         23    2    1    2    0    0  0.23802525118E+02  0.20866372430E+01 -0.10089808787E+03  0.13834701092E+03  0.91589066152E+02 0.  0.
          5    1    3    3  502    0  0.34730578177E+02  0.36316113629E+02 -0.10038751612E+03  0.11233965891E+03  0.41800000000E+01 0.  1.
         -5    1    3    3    0  502 -0.58533103295E+02 -0.38402750872E+02 -0.58779744798E+02  0.91506427394E+02  0.41800000000E+01 0.  1.
        -11    1    4    4    0    0  0.37876301427E+02  0.28450991788E+02 -0.18777661762E+02  0.50957567885E+02  0.00000000000E+00 0.  1.
         11    1    4    4    0    0 -0.14073776309E+02 -0.26364354545E+02 -0.82120426110E+02  0.87389443039E+02  0.00000000000E+00 0. -1.
</event>
<event>
 8    1  0.3719512E-009  0.6651444E+02  0.7561462E-02  0.1372364E+00
          2   -1    0    0  501    0  0.00000000000E+00  0.00000000000E+00  0.18264517863E+03  0.18264517863E+03  0.00000000000E+00 0. -1.
         -2   -1    0    0    0  501 -0.00000000000E+00 -0.00000000000E+00 -0.85962588309E+02  0.85962588309E+02  0.00000000000E+00 0.  1.
         25    2    1    2    0    0  0.67721827081E+01  0.22626506091E+02  0.11626686036E+03  0.17240518316E+03  0.12509093942E+03 0.  0.
         23    2    1    2    0    0 -0.67721827081E+01 -0.22626506091E+02 -0.19584270039E+02  0.96202583779E+02  0.91178792799E+02 0.  0.
          5    1    3    3  502    0  0.28473298043E+02  0.37911161442E+02 -0.53120057230E+01  0.47892323687E+02  0.41800000000E+01 0. -1.
         -5    1    3    3    0  502 -0.21701115335E+02 -0.15284655350E+02  0.12157886608E+03  0.12451285947E+03  0.41800000000E+01 0. -1.
        -11    1    4    4    0    0 -0.23758960652E+02  0.66867228006E+01 -0.46691265578E+02  0.52813584941E+02  0.00000000000E+00 0.  1.
         11    1    4    4    0    0  0.16986777944E+02 -0.29313228892E+02  0.27106995539E+02  0.43388998838E+02  0.00000000000E+00 0. -1.
</event>
<event>
 8    1  0.3719512E-009  0.1076655E+03  0.7561462E-02  0.1264955E+00
          1   -1    0    0  501    0  0.00000000000E+00  0.00000000000E+00  0.43758477765E+02  0.43758477765E+02  0.00000000000E+00 0. -1.
         -1   -1    0    0    0  501 -0.00000000000E+00 -0.00000000000E+00 -0.36968960972E+03  0.36968960972E+03  0.00000000000E+00 0.  1.
         25    2    1    2    0    0 -0.67250126026E+01  0.65558316312E+02 -0.15296189174E+03  0.20829711725E+03  0.12508888879E+03 0.  0.
         23    2    1    2    0    0  0.67250126026E+01 -0.65558316312E+02 -0.17296924022E+03  0.20515097023E+03  0.88461539071E+02 0.  0.
          5    1    3    3  502    0  0.28749398107E+02  0.65188925019E+02 -0.25283229246E+02  0.75715506455E+02  0.41800000000E+01 0.  1.
         -5    1    3    3    0  502 -0.35474410709E+02  0.36939129312E+00 -0.12767866249E+03  0.13258161079E+03  0.41800000000E+01 0.  1.
        -11    1    4    4    0    0  0.19134065646E+02  0.16489495161E+02 -0.25220248508E+02  0.35694213167E+02  0.00000000000E+00 0. -1.
         11    1    4    4    0    0 -0.12409053043E+02 -0.82047811473E+02 -0.14774899171E+03  0.16945675707E+03  0.00000000000E+00 0.  1.
</event>
<event>
 8    1  0.3719512E-009  0.6726718E+02  0.7561462E-02  0.1369641E+00
         -2   -1    0    0    0  501 -0.00000000000E+00  0.00000000000E+00  0.74605189404E+03  0.74605189404E+03  0.00000000000E+00 0.  1.
          2   -1    0    0  501    0  0.00000000000E+00 -0.00000000000E+00 -0.27556506384E+02  0.27556506384E+02  0.00000000000E+00 0. -1.
         25    2    1    2    0    0  0.31592518394E+02  0.99992097649E+01  0.62593109638E+03  0.63916784326E+03  0.12509085907E+03 0.  0.
         23    2    1    2    0    0 -0.31592518394E+02 -0.99992097649E+01  0.92564291277E+02  0.13444055717E+03  0.91695386897E+02 0.  0.
          5    1    3    3  502    0 -0.19450205561E+02  0.13092061230E+02  0.20088404965E+02  0.31156523838E+02  0.41800000000E+01 0. -1.
         -5    1    3    3    0  502  0.51042723956E+02 -0.30928514648E+01  0.60584269142E+03  0.60801131942E+03  0.41800000000E+01 0. -1.
        -11    1    4    4    0    0  0.63577474699E+01  0.13397141536E+02  0.88432094698E+02  0.89666826234E+02  0.00000000000E+00 0.  1.
         11    1    4    4    0    0 -0.37950265864E+02 -0.23396351301E+02  0.41321965785E+01  0.44773730936E+02  0.00000000000E+00 0. -1.
</event>
<event>
 8    1  0.3719512E-009  0.1492288E+03  0.7561462E-02  0.1201424E+00
          2   -1    0    0  501    0  0.00000000000E+00  0.00000000000E+00  0.17060632410E+04  0.17060632410E+04  0.00000000000E+00 0. -1.
         -2   -1    0    0    0  501 -0.00000000000E+00 -0.00000000000E+00 -0.18340528416E+02  0.18340528416E+02  0.00000000000E+00 0.  1.
         25    2    1    2    0    0 -0.11857155262E+03 -0.14527054043E+02  0.12359686388E+04  0.12480128023E+04  0.12508888945E+03 0.  0.
         23    2    1    2    0    0  0.11857155262E+03  0.14527054043E+02  0.45175407380E+03  0.47639096712E+03  0.92716567893E+02 0.  0.
          5    1    3    3  502    0  0.18271618169E+02  0.17801240903E+02  0.96822722583E+02  0.10021401208E+03  0.41800000000E+01 0. -1.
         -5    1    3    3    0  502 -0.13684317079E+03 -0.32328294945E+02  0.11391459162E+04  0.11477987903E+04  0.41800000000E+01 0. -1.
        -11    1    4    4    0    0  0.60258415943E+02  0.35532627330E+02  0.12004137026E+03  0.13893730554E+03  0.00000000000E+00 0.  1.
         11    1    4    4    0    0  0.58313136679E+02 -0.21005573288E+02  0.33171270355E+03  0.33745366158E+03  0.00000000000E+00 0. -1.
</event>
<event>
 8    1  0.3719512E-009  0.1388923E+03  0.7561462E-02  0.1214827E+00
          2   -1    0    0  501    0  0.00000000000E+00  0.00000000000E+00  0.29626257516E+03  0.29626257516E+03  0.00000000000E+00 0.  1.
         -2   -1    0    0    0  501 -0.00000000000E+00 -0.00000000000E+00 -0.95990264433E+02  0.95990264433E+02  0.00000000000E+00 0. -1.
         25    2    1    2    0    0 -0.12164207062E+03 -0.90454852776E+01  0.60866905135E+02  0.18502005733E+03  0.12509607238E+03 0.  0.
         23    2    1    2    0    0  0.12164207062E+03  0.90454852776E+01  0.13940540560E+03  0.20723278227E+03  0.92913641568E+02 0.  0.
          5    1    3    3  502    0  0.85310222993E+00 -0.20083837606E+00  0.61982842643E+02  0.62129810088E+02  0.41800000000E+01 0.  1.
         -5    1    3    3    0  502 -0.12249517285E+03 -0.88446469016E+01 -0.11159375084E+01  0.12289024724E+03  0.41800000000E+01 0.  1.
        -11    1    4    4    0    0  0.11024254892E+03 -0.26430017250E+02  0.12051308069E+03  0.16545503323E+03  0.00000000000E+00 0. -1.
         11    1    4    4    0    0  0.11399521702E+02  0.35475502527E+02  0.18892324910E+02  0.41777749043E+02  0.00000000000E+00 0.  1.
</event>
<event>
 8    1  0.3719512E-009  0.1271743E+03  0.7561462E-02  0.1231710E+00
         -2   -1    0    0    0  501 -0.00000000000E+00  0.00000000000E+00  0.12497269190E+02  0.12497269190E+02  0.00000000000E+00 0.  1.
          2   -1    0    0  501    0  0.00000000000E+00 -0.00000000000E+00 -0.14436354371E+04  0.14436354371E+04  0.00000000000E+00 0. -1.
         25    2    1    2    0    0  0.54912362943E+02  0.39796622950E+02 -0.10079500257E+04  0.10179442400E+04  0.12509229607E+03 0.  0.
         23    2    1    2    0    0 -0.54912362943E+02 -0.39796622950E+02 -0.42318814216E+03  0.43818846629E+03  0.91223842954E+02 0.  0.
          5    1    3    3  502    0  0.94811328402E+02  0.36972397941E+02 -0.74772400827E+03  0.75462892281E+03  0.41800000000E+01 0.  1.
         -5    1    3    3    0  502 -0.39898965459E+02  0.28242250093E+01 -0.26022601748E+03  0.26331531719E+03  0.41800000000E+01 0.  1.
        -11    1    4    4    0    0 -0.71849452804E+02 -0.31601381695E+01 -0.30242552126E+03  0.31085933515E+03  0.00000000000E+00 0.  1.
         11    1    4    4    0    0  0.16937089861E+02 -0.36636484780E+02 -0.12076262090E+03  0.12732913113E+03  0.00000000000E+00 0. -1.
</event>
<event>
 8    1  0.3719512E-009  0.1356253E+03  0.7561462E-02  0.1219340E+00
         -1   -1    0    0    0  501 -0.00000000000E+00  0.00000000000E+00  0.47222804160E+02  0.47222804160E+02  0.00000000000E+00 0.  1.
          1   -1    0    0  501    0  0.00000000000E+00 -0.00000000000E+00 -0.65677617006E+03  0.65677617006E+03  0.00000000000E+00 0. -1.
         25    2    1    2    0    0 -0.50489135696E+02 -0.11166863957E+03 -0.45618104895E+03  0.48863618523E+03  0.12508051092E+03 0.  0.
         23    2    1    2    0    0  0.50489135696E+02  0.11166863957E+03 -0.15337231695E+03  0.21536278899E+03  0.88538270740E+02 0.  0.
          5    1    3    3  502    0 -0.38528593386E+02 -0.40528393506E+02 -0.47127848630E+02  0.73249639624E+02  0.41800000000E+01 0. -1.
         -5    1    3    3    0  502 -0.11960542310E+02 -0.71140246066E+02 -0.40905320032E+03  0.41538654561E+03  0.41800000000E+01 0. -1.
        -11    1    4    4    0    0  0.55929671816E+02  0.34838418152E+02 -0.10638761410E+03  0.12514059294E+03  0.00000000000E+00 0. -1.
         11    1    4    4    0    0 -0.54405361201E+01  0.76830221420E+02 -0.46984702856E+02  0.90222196045E+02  0.00000000000E+00 0.  1.
</event>
<event>
 8    1  0.3719512E-009  0.1423435E+03  0.7561462E-02  0.1210210E+00
          1   -1    0    0  501    0  0.00000000000E+00  0.00000000000E+00  0.73025730552E+02  0.73025730552E+02  0.00000000000E+00 0. -1.
         -1   -1    0    0    0  501 -0.00000000000E+00 -0.00000000000E+00 -0.39354161060E+03  0.39354161060E+03  0.00000000000E+00 0.  1.
         25    2    1    2    0    0 -0.10985098935E+03  0.37454745199E+02 -0.25086920967E+03  0.30340210499E+03  0.12508948457E+03 0.  0.
         23    2    1    2    0    0  0.10985098935E+03 -0.37454745199E+02 -0.69646670376E+02  0.16316523617E+03  0.91116067730E+02 0.  0.
          5    1    3    3  502    0 -0.13274050795E+03  0.34795512962E+02 -0.24224775166E+03  0.27844607334E+03  0.41800000000E+01 0. -1.
         -5    1    3    3    0  502  0.22889518593E+02  0.26592322375E+01 -0.86214580136E+01  0.24956031652E+02  0.41800000000E+01 0. -1.
        -11    1    4    4    0    0  0.24110072178E+02  0.98609646790E+01  0.18063579289E+02  0.31699007895E+02  0.00000000000E+00 0. -1.
         11    1    4    4    0    0  0.85740917175E+02 -0.47315709878E+02 -0.87710249665E+02  0.13146622827E+03  0.00000000000E+00 0.  1.
</event>
<event>
 8    1  0.3719512E-009  0.1830263E+03  0.7561462E-02  0.1164906E+00
          1   -1    0    0  501    0  0.00000000000E+00  0.00000000000E+00  0.62651228491E+03  0.62651228491E+03  0.00000000000E+00 0. -1.
         -1   -1    0    0    0  501 -0.00000000000E+00 -0.00000000000E+00 -0.11024036698E+03  0.11024036698E+03  0.00000000000E+00 0.  1.
         25    2    1    2    0    0  0.62823410414E+02 -0.16204348403E+03  0.34950379777E+02  0.21696466796E+03  0.12508903422E+03 0.  0.
         23    2    1    2    0    0 -0.62823410414E+02  0.16204348403E+03  0.48132153815E+03  0.51978798393E+03  0.91127677145E+02 0.  0.
          5    1    3    3  502    0 -0.35083199360E+01 -0.61799909190E+01  0.46408441523E+02  0.47135087155E+02  0.41800000000E+01 0.  1.
         -5    1    3    3    0  502  0.66331730350E+02 -0.15586349312E+03 -0.11458061746E+02  0.16982958080E+03  0.41800000000E+01 0.  1.
        -11    1    4    4    0    0 -0.67319129307E+02  0.73355149728E+02  0.18056592154E+03  0.20619625405E+03  0.00000000000E+00 0.  1.
         11    1    4    4    0    0  0.44957188930E+01  0.88688334306E+02  0.30075561660E+03  0.31359172988E+03  0.00000000000E+00 0. -1.
</event>
<event>
 8    1  0.3719512E-009  0.9595208E+02  0.7561462E-02  0.1289046E+00
          2   -1    0    0  501    0  0.00000000000E+00  0.00000000000E+00  0.83449362004E+02  0.83449362004E+02  0.00000000000E+00 0.  1.
         -2   -1    0    0    0  501 -0.00000000000E+00 -0.00000000000E+00 -0.18569857373E+03  0.18569857373E+03  0.00000000000E+00 0. -1.
         25    2    1    2    0    0 -0.19465697518E+02  0.56823329923E+02 -0.69458781539E+02  0.15517623163E+03  0.12508931339E+03 0.  0.
         23    2    1    2    0    0  0.19465697518E+02 -0.56823329923E+02 -0.32790430182E+02  0.11397170410E+03  0.91140182254E+02 0.  0.
          5    1    3    3  502    0 -0.29484047342E+02  0.71471305640E+02  0.58923166185E+01  0.77650810509E+02  0.41800000000E+01 0. -1.
         -5    1    3    3    0  502  0.10018349825E+02 -0.14647975717E+02 -0.75351098158E+02  0.77525421117E+02  0.41800000000E+01 0. -1.
        -11    1    4    4    0    0  0.48472713154E+02 -0.38860688726E+02  0.58765861011E+01  0.62404257171E+02  0.00000000000E+00 0.  1.
         11    1    4    4    0    0 -0.29007015637E+02 -0.17962641197E+02 -0.38667016283E+02  0.51567446932E+02  0.00000000000E+00 0. -1.
</event>
<event>
 8    1  0.3719512E-009  0.1299777E+03  0.7561462E-02  0.1227489E+00
          1   -1    0    0  501    0  0.00000000000E+00  0.00000000000E+00  0.27663413506E+04  0.27663413506E+04  0.00000000000E+00 0. -1.
         -1   -1    0    0    0  501 -0.00000000000E+00 -0.00000000000E+00 -0.12738696483E+02  0.12738696483E+02  0.00000000000E+00 0.  1.
         25    2    1    2    0    0  0.71535367453E+02  0.26638107508E+02  0.24189068364E+04  0.24233415129E+04  0.12508759809E+03 0.  0.
         23    2    1    2    0    0 -0.71535367453E+02 -0.26638107508E+02  0.33469581768E+03  0.35573853418E+03  0.93282992903E+02 0.  0.
          5    1    3    3  502    0 -0.31154543938E+02  0.26407156502E+02  0.49907693352E+03  0.50076261991E+03  0.41800000000E+01 0. -1.
         -5    1    3    3    0  502  0.10268991139E+03  0.23095100624E+00  0.19198299029E+04  0.19225788930E+04  0.41800000000E+01 0. -1.
        -11    1    4    4    0    0 -0.37298495559E+02 -0.58485859226E+02  0.24440583040E+03  0.25405901565E+03  0.00000000000E+00 0.  1.
         11    1    4    4    0    0 -0.34236871894E+02  0.31847751718E+02  0.90289987278E+02  0.10167951853E+03  0.00000000000E+00 0. -1.
</event>
<event>
 8    1  0.3719512E-009  0.1209550E+03  0.7561462E-02  0.1241530E+00
          1   -1    0    0  501    0  0.00000000000E+00  0.00000000000E+00  0.14886946044E+03  0.14886946044E+03  0.00000000000E+00 0. -1.
         -1   -1    0    0    0  501 -0.00000000000E+00 -0.00000000000E+00 -0.23596879513E+03  0.23596879513E+03  0.00000000000E+00 0.  1.
         25    2    1    2    0    0 -0.82399159717E+02  0.10665442714E+02  0.86317069750E+02  0.17321012132E+03  0.12509091257E+03 0.  0.
         23    2    1    2    0    0  0.82399159717E+02 -0.10665442714E+02 -0.17341640443E+03  0.21162813425E+03  0.88373325661E+02 0.  0.
          5    1    3    3  502    0 -0.11237356489E+03  0.22850493231E+02  0.80246611428E+02  0.14002483413E+03  0.41800000000E+01 0.  1.
         -5    1    3    3    0  502  0.29974405176E+02 -0.12185050517E+02  0.60704583216E+01  0.33185287192E+02  0.41800000000E+01 0.  1.
        -11    1    4    4    0    0  0.25462281529E+02 -0.25145689191E+02 -0.13901609331E+03  0.14354827642E+03  0.00000000000E+00 0.  1.
         11    1    4    4    0    0  0.56936878187E+02  0.14480246477E+02 -0.34400311123E+02  0.68079857822E+02  0.00000000000E+00 0. -1.
</event>
<event>
 8    1  0.3719512E-009  0.1436001E+03  0.7561462E-02  0.1208565E+00
         -1   -1    0    0    0  501 -0.00000000000E+00  0.00000000000E+00  0.55936186778E+02  0.55936186778E+02  0.00000000000E+00 0.  1.
          1   -1    0    0  501    0  0.00000000000E+00 -0.00000000000E+00 -0.56493745744E+03  0.56493745744E+03  0.00000000000E+00 0. -1.
         25    2    1    2    0    0  0.83742828844E+02 -0.81351345578E+02 -0.13255470722E+03  0.21645398481E+03  0.12510265514E+03 0.  0.
         23    2    1    2    0    0 -0.83742828844E+02  0.81351345578E+02 -0.37644656344E+03  0.40441965941E+03  0.90621978459E+02 0.  0.
          5    1    3    3  502    0  0.95665000320E+02 -0.40744847766E+02 -0.34599118005E+02  0.10966542879E+03  0.41800000000E+01 0. -1.
         -5    1    3    3    0  502 -0.11922171476E+02 -0.40606497812E+02 -0.97955589218E+02  0.10678855602E+03  0.41800000000E+01 0. -1.
        -11    1    4    4    0    0  0.71217223420E+01  0.40260664523E+02 -0.59799319734E+02  0.72440311137E+02  0.00000000000E+00 0.  1.
         11    1    4    4    0    0 -0.90864551186E+02  0.41090681054E+02 -0.31664724371E+03  0.33197934827E+03  0.00000000000E+00 0. -1.
</event>
<event>
 8    1  0.3719512E-009  0.1215562E+03  0.7561462E-02  0.1240552E+00
         -1   -1    0    0    0  501 -0.00000000000E+00  0.00000000000E+00  0.19542207081E+02  0.19542207081E+02  0.00000000000E+00 0.  1.
          1   -1    0    0  501    0  0.00000000000E+00 -0.00000000000E+00 -0.85267418908E+03  0.85267418908E+03  0.00000000000E+00 0. -1.
         25    2    1    2    0    0 -0.59826460962E+02  0.34273479501E+02 -0.47704345325E+03  0.49796852681E+03  0.12509324753E+03 0.  0.
         23    2    1    2    0    0  0.59826460962E+02 -0.34273479501E+02 -0.35608852874E+03  0.37424786935E+03  0.92241804935E+02 0.  0.
          5    1    3    3  502    0 -0.80777988240E+02  0.60564305406E+02 -0.27235973313E+03  0.29050028417E+03  0.41800000000E+01 0. -1.
         -5    1    3    3    0  502  0.20951527279E+02 -0.26290825905E+02 -0.20468372012E+03  0.20746824264E+03  0.41800000000E+01 0. -1.
        -11    1    4    4    0    0  0.47920000630E+02  0.20510627575E+02 -0.10823061136E+03  0.12012858752E+03  0.00000000000E+00 0.  1.
         11    1    4    4    0    0  0.11906460332E+02 -0.54784107076E+02 -0.24785791739E+03  0.25411928183E+03  0.00000000000E+00 0. -1.
</event>
<event>
 8    1  0.3719512E-009  0.2863501E+03  0.7561462E-02  0.1092270E+00
         -1   -1    0    0    0  501 -0.00000000000E+00  0.00000000000E+00  0.21232775645E+03  0.21232775645E+03  0.00000000000E+00 0.  1.
          1   -1    0    0  501    0  0.00000000000E+00 -0.00000000000E+00 -0.40410822609E+03  0.40410822609E+03  0.00000000000E+00 0. -1.
         25    2    1    2    0    0  0.29214217545E+02 -0.26306111748E+03 -0.16105291543E+03  0.33412561380E+03  0.12508901707E+03 0.  0.
         23    2    1    2    0    0 -0.29214217545E+02  0.26306111748E+03 -0.30727554212E+02  0.28231036875E+03  0.93275611384E+02 0.  0.
          5    1    3    3  502    0  0.78154164460E+02 -0.16028864673E+03 -0.10742287300E+03  0.20822504589E+03  0.41800000000E+01 0. -1.
         -5    1    3    3    0  502 -0.48939946915E+02 -0.10277247075E+03 -0.53630042433E+02  0.12590056791E+03  0.41800000000E+01 0. -1.
        -11    1    4    4    0    0  0.33354384734E+02  0.71504991917E+02 -0.13633828113E+02  0.80070969265E+02  0.00000000000E+00 0.  1.
         11    1    4    4    0    0 -0.62568602279E+02  0.19155612556E+03 -0.17093726099E+02  0.20223939948E+03  0.00000000000E+00 0. -1.
</event>
<event>
 8    1  0.3719512E-009  0.9526422E+02  0.7561462E-02  0.1290582E+00
         -2   -1    0    0    0  501 -0.00000000000E+00  0.00000000000E+00  0.12000137965E+02  0.12000137965E+02  0.00000000000E+00 0.  1.
          2   -1    0    0  501    0  0.00000000000E+00 -0.00000000000E+00 -0.15102831808E+04  0.15102831808E+04  0.00000000000E+00 0. -1.
         25    2    1    2    0    0  0.55224993877E+02  0.44813999129E+02 -0.10303064295E+04  0.10403058804E+04  0.12508753599E+03 0.  0.
         23    2    1    2    0    0 -0.55224993877E+02 -0.44813999129E+02 -0.46797661334E+03  0.48197743836E+03  0.90785714716E+02 0.  0.
          5    1    3    3  502    0  0.24724365565E+02  0.41708865172E+02 -0.12026323407E+03  0.12973681650E+03  0.41800000000E+01 0.  1.
         -5    1    3    3    0  502  0.30500628313E+02  0.31051339575E+01 -0.91004319543E+03  0.91056906390E+03  0.41800000000E+01 0.  1.
        -11    1    4    4    0    0  0.69576687527E+01  0.19955092537E+02 -0.47005619756E+02  0.51537783822E+02  0.00000000000E+00 0.  1.
         11    1    4    4    0    0 -0.62182662630E+02 -0.64769091667E+02 -0.42097099358E+03  0.43043965454E+03  0.00000000000E+00 0. -1.
</event>
<event>
 8    1  0.3719512E-009  0.1207403E+03  0.7561462E-02  0.1241881E+00
          2   -1    0    0  501    0  0.00000000000E+00  0.00000000000E+00  0.14996442766E+03  0.14996442766E+03  0.00000000000E+00 0. -1.
         -2   -1    0    0    0  501 -0.00000000000E+00 -0.00000000000E+00 -0.14969882545E+03  0.14969882545E+03  0.00000000000E+00 0.  1.
         25    2    1    2    0    0 -0.62829877780E+02  0.80749711313E+02  0.11580753772E+02  0.16201746808E+03  0.12508971455E+03 0.  0.
         23    2    1    2    0    0  0.62829877780E+02 -0.80749711313E+02 -0.11315151561E+02  0.13764578502E+03  0.91379538522E+02 0.  0.
          5    1    3    3  502    0 -0.50437728622E+02  0.91298250184E+02  0.53179819624E+02  0.11715332078E+03  0.41800000000E+01 0.  1.
         -5    1    3    3    0  502 -0.12392149158E+02 -0.10548538871E+02 -0.41599065852E+02  0.44864147299E+02  0.41800000000E+01 0.  1.
        -11    1    4    4    0    0  0.26035466782E+02  0.54203973552E+01 -0.32086019536E+02  0.41674199305E+02  0.00000000000E+00 0.  1.
         11    1    4    4    0    0  0.36794410998E+02 -0.86170108668E+02  0.20770867975E+02  0.95971585716E+02  0.00000000000E+00 0. -1.
</event>
<event>
 8    1  0.3719512E-009  0.1228155E+03  0.7561462E-02  0.1238523E+00
          1   -1    0    0  501    0  0.00000000000E+00  0.00000000000E+00  0.54756766428E+03  0.54756766428E+03  0.00000000000E+00 0. -1.
         -1   -1    0    0    0  501 -0.00000000000E+00 -0.00000000000E+00 -0.34110447241E+02  0.34110447241E+02  0.00000000000E+00 0.  1.
         25    2    1    2    0    0 -0.75744273923E+02  0.36090999422E+02  0.28416771134E+03  0.32162255494E+03  0.12510005758E+03 0.  0.
         23    2    1    2    0    0  0.75744273923E+02 -0.36090999422E+02  0.22928950569E+03  0.26005555658E+03  0.89529100370E+02 0.  0.
          5    1    3    3  502    0 -0.89895184015E+02  0.55854093372E+02  0.14102142426E+03  0.17636705576E+03  0.41800000000E+01 0.  1.
         -5    1    3    3    0  502  0.14150910091E+02 -0.19763093950E+02  0.14314628708E+03  0.14525549919E+03  0.41800000000E+01 0.  1.
        -11    1    4    4    0    0  0.62606740949E+02  0.13247659101E+02  0.81038101448E+02  0.10325830896E+03  0.00000000000E+00 0.  1.
         11    1    4    4    0    0  0.13137532974E+02 -0.49338658523E+02  0.14825140425E+03  0.15679724761E+03  0.00000000000E+00 0. -1.
</event>
<event>
 8    1  0.3719512E-009  0.1043439E+03  0.7561462E-02  0.1271418E+00
         -1   -1    0    0    0  501 -0.00000000000E+00  0.00000000000E+00  0.12882323021E+03  0.12882323021E+03  0.00000000000E+00 0.  1.
          1   -1    0    0  501    0  0.00000000000E+00 -0.00000000000E+00 -0.15024421848E+03  0.15024421848E+03  0.00000000000E+00 0. -1.
         25    2    1    2    0    0  0.43371274146E+02 -0.69580066869E+02  0.18046397870E+02  0.15065065312E+03  0.12508994237E+03 0.  0.
         23    2    1    2    0    0 -0.43371274146E+02  0.69580066869E+02 -0.39467386141E+02  0.12841679558E+03  0.90613165110E+02 0.  0.
          5    1    3    3  502    0  0.47241047558E+02 -0.56014684261E+02  0.67095986595E+02  0.99441969231E+02  0.41800000000E+01 0. -1.
         -5    1    3    3    0  502 -0.38697734125E+01 -0.13565382608E+02 -0.49049588725E+02  0.51208683889E+02  0.41800000000E+01 0. -1.
        -11    1    4    4    0    0 -0.68230665026E+02  0.31613204486E+02 -0.14374665751E+02  0.76560102947E+02  0.00000000000E+00 0. -1.
         11    1    4    4    0    0  0.24859390880E+02  0.37966862383E+02 -0.25092720390E+02  0.51856692632E+02  0.00000000000E+00 0.  1.
</event>
<event>
 8    1  0.3719512E-009  0.9972603E+02  0.7561462E-02  0.1280873E+00
          1   -1    0    0  501    0  0.00000000000E+00  0.00000000000E+00  0.29725152611E+02  0.29725152611E+02  0.00000000000E+00 0.  1.
         -1   -1    0    0    0  501 -0.00000000000E+00 -0.00000000000E+00 -0.51500352244E+03  0.51500352244E+03  0.00000000000E+00 0. -1.
         25    2    1    2    0    0  0.29705355542E+02  0.23613383363E+02 -0.36758881115E+03  0.39014148276E+03  0.12509533352E+03 0.  0.
         23    2    1    2    0    0 -0.29705355542E+02 -0.23613383363E+02 -0.11768955868E+03  0.15458719229E+03  0.92770511346E+02 0.  0.
          5    1    3    3  502    0  0.63050851681E+02  0.17551080111E+02 -0.95094479870E+02  0.11551572539E+03  0.41800000000E+01 0.  1.
         -5    1    3    3    0  502 -0.33345496139E+02  0.60623032516E+01 -0.27249433128E+03  0.27462575737E+03  0.41800000000E+01 0.  1.
        -11    1    4    4    0    0 -0.63031696950E+02 -0.20353364315E+02 -0.85333169944E+02  0.10802316489E+03  0.00000000000E+00 0. -1.
         11    1    4    4    0    0  0.33326341408E+02 -0.32600190480E+01 -0.32356388739E+02  0.46564027404E+02  0.00000000000E+00 0.  1.
</event>
<event>
 8    1  0.3719512E-009  0.1047585E+03  0.7561462E-02  0.1270596E+00
          2   -1    0    0  501    0  0.00000000000E+00  0.00000000000E+00  0.70365255793E+03  0.70365255793E+03  0.00000000000E+00 0. -1.
         -2   -1    0    0    0  501 -0.00000000000E+00 -0.00000000000E+00 -0.28174588767E+02  0.28174588767E+02  0.00000000000E+00 0.  1.
         25    2    1    2    0    0 -0.38191067808E+02  0.82781436421E+02  0.35406633309E+03  0.38642158927E+03  0.12508937826E+03 0.  0.
         23    2    1    2    0    0  0.38191067808E+02 -0.82781436421E+02  0.32141163608E+03  0.34540555743E+03  0.87682583333E+02 0.  0.
          5    1    3    3  502    0 -0.21996298843E+02  0.15422769661E+02  0.29215256666E+03  0.29341488305E+03  0.41800000000E+01 0. -1.
         -5    1    3    3    0  502 -0.16194768966E+02  0.67358666760E+02  0.61913766426E+02  0.93006706224E+02  0.41800000000E+01 0. -1.
        -11    1    4    4    0    0  0.15839292095E+02  0.91658583297E+01  0.12087711345E+02  0.21931915068E+02  0.00000000000E+00 0.  1.
         11    1    4    4    0    0  0.22351775713E+02 -0.91947294751E+02  0.30932392474E+03  0.32347364236E+03  0.00000000000E+00 0. -1.
</event>
<event>
 8    1  0.3719512E-009  0.1370479E+03  0.7561462E-02  0.1217357E+00
          1   -1    0    0  501    0  0.00000000000E+00  0.00000000000E+00  0.48491745769E+03  0.48491745769E+03  0.00000000000E+00 0.  1.
         -1   -1    0    0    0  501 -0.00000000000E+00 -0.00000000000E+00 -0.84752792366E+02  0.84752792366E+02  0.00000000000E+00 0. -1.
         25    2    1    2    0    0 -0.93456959198E+02  0.68529063165E+02  0.34205081450E+02  0.17391501183E+03  0.12508400387E+03 0.  0.
         23    2    1    2    0    0  0.93456959198E+02 -0.68529063165E+02  0.36595958388E+03  0.39575523822E+03  0.96256718359E+02 0.  0.
          5    1    3    3  502    0 -0.68354999041E+02  0.20573992503E+02 -0.40028779912E+02  0.81947975464E+02  0.41800000000E+01 0. -1.
         -5    1    3    3    0  502 -0.25101960157E+02  0.47955070662E+02  0.74233861362E+02  0.91967036370E+02  0.41800000000E+01 0. -1.
        -11    1    4    4    0    0  0.83066957098E+02 -0.42375020824E+01  0.16999257250E+03  0.18924996827E+03  0.00000000000E+00 0.  1.
         11    1    4    4    0    0  0.10390002100E+02 -0.64291561083E+02  0.19596701138E+03  0.20650526995E+03  0.00000000000E+00 0. -1.
</event>
<event>
 8    1  0.3719512E-009  0.7051733E+02  0.7561462E-02  0.1358343E+00
         -1   -1    0    0    0  501 -0.00000000000E+00  0.00000000000E+00  0.10150470847E+02  0.10150470847E+02  0.00000000000E+00 0.  1.
          1   -1    0    0  501    0  0.00000000000E+00 -0.00000000000E+00 -0.11915331102E+04  0.11915331102E+04  0.00000000000E+00 0. -1.
         25    2    1    2    0    0 -0.20796384638E+02 -0.13097913462E+02 -0.80831501125E+03  0.81830607175E+03  0.12509046607E+03 0.  0.
         23    2    1    2    0    0  0.20796384638E+02  0.13097913462E+02 -0.37306762810E+03  0.38337750929E+03  0.84822252655E+02 0.  0.
          5    1    3    3  502    0 -0.31806222060E+02  0.10882974458E+02 -0.55530004612E+02  0.65047126816E+02  0.41800000000E+01 0. -1.
         -5    1    3    3    0  502  0.11009837422E+02 -0.23980887920E+02 -0.75278500663E+03  0.75325894493E+03  0.41800000000E+01 0. -1.
        -11    1    4    4    0    0 -0.29134217026E+02  0.14433747444E+01 -0.67428953830E+02  0.73468018532E+02  0.00000000000E+00 0.  1.
         11    1    4    4    0    0  0.49930601664E+02  0.11654538718E+02 -0.30563867427E+03  0.30990949076E+03  0.00000000000E+00 0. -1.
</event>
<event>
 8    1  0.3719512E-009  0.1087346E+03  0.7561462E-02  0.1262931E+00
         -1   -1    0    0    0  501 -0.00000000000E+00  0.00000000000E+00  0.84428934375E+02  0.84428934375E+02  0.00000000000E+00 0.  1.
          1   -1    0    0  501    0  0.00000000000E+00 -0.00000000000E+00 -0.22406135098E+03  0.22406135098E+03  0.00000000000E+00 0. -1.
         25    2    1    2    0    0 -0.13921612438E+02  0.68758951485E+02 -0.12979044255E+03  0.19342902563E+03  0.12509046438E+03 0.  0.
         23    2    1    2    0    0  0.13921612438E+02 -0.68758951485E+02 -0.98419740582E+01  0.11506125972E+03  0.90667658696E+02 0.  0.
          5    1    3    3  502    0 -0.66414596420E+02  0.60830366990E+02 -0.80622229199E+02  0.12094894959E+03  0.41800000000E+01 0.  1.
         -5    1    3    3    0  502  0.52492983981E+02  0.79285844955E+01 -0.49168213347E+02  0.72480076043E+02  0.41800000000E+01 0.  1.
        -11    1    4    4    0    0 -0.59262454309E+01 -0.29233863664E+02 -0.48089140771E+02  0.56588909070E+02  0.00000000000E+00 0. -1.
         11    1    4    4    0    0  0.19847857869E+02 -0.39525087821E+02  0.38247166713E+02  0.58472350652E+02  0.00000000000E+00 0.  1.
</event>
<event>
 8    1  0.3719512E-009  0.9345921E+02  0.7561462E-02  0.1294685E+00
         -1   -1    0    0    0  501 -0.00000000000E+00  0.00000000000E+00  0.72896749123E+02  0.72896749123E+02  0.00000000000E+00 0.  1.
          1   -1    0    0  501    0  0.00000000000E+00 -0.00000000000E+00 -0.20088735999E+03  0.20088735999E+03  0.00000000000E+00 0. -1.
         25    2    1    2    0    0  0.13278380675E+01  0.54378594117E+02 -0.82954065919E+02  0.15965065976E+03  0.12509261153E+03 0.  0.
         23    2    1    2    0    0 -0.13278380675E+01 -0.54378594117E+02 -0.45036544943E+02  0.11413344934E+03  0.89662473905E+02 0.  0.
          5    1    3    3  502    0  0.40398501965E+02  0.19003057240E+02 -0.95330617909E+02  0.10534967611E+03  0.41800000000E+01 0.  1.
         -5    1    3    3    0  502 -0.39070663898E+02  0.35375536877E+02  0.12376551990E+02  0.54300983655E+02  0.41800000000E+01 0.  1.
        -11    1    4    4    0    0 -0.36017021797E+02 -0.26944221730E+02 -0.52659396129E+02  0.69254811706E+02  0.00000000000E+00 0.  1.
         11    1    4    4    0    0  0.34689183730E+02 -0.27434372387E+02  0.76228511859E+01  0.44878637639E+02  0.00000000000E+00 0. -1.
</event>
<event>
 8    1  0.3719512E-009  0.1153569E+03  0.7561462E-02  0.1250959E+00
          2   -1    0    0  501    0  0.00000000000E+00  0.00000000000E+00  0.23935413026E+03  0.23935413026E+03  0.00000000000E+00 0. -1.
         -2   -1    0    0    0  501 -0.00000000000E+00 -0.00000000000E+00 -0.76380142146E+02  0.76380142146E+02  0.00000000000E+00 0.  1.
         25    2    1    2    0    0 -0.75916583703E+02  0.18006235196E+01  0.12003557375E+03  0.18927379282E+03  0.12509780077E+03 0.  0.
         23    2    1    2    0    0  0.75916583703E+02 -0.18006235196E+01  0.42938414361E+02  0.12646047958E+03  0.91553129613E+02 0.  0.
          5    1    3    3  502    0  0.25132641429E+02  0.29870708572E+02  0.19112724728E+02  0.43665518917E+02  0.41800000000E+01 0. -1.
         -5    1    3    3    0  502 -0.10104922513E+03 -0.28070085052E+02  0.10092284902E+03  0.14560827390E+03  0.41800000000E+01 0. -1.
        -11    1    4    4    0    0  0.27469754644E+02  0.19382008168E+02  0.61774572296E+02  0.70330274016E+02  0.00000000000E+00 0. -1.
         11    1    4    4    0    0  0.48446829059E+02 -0.21182631687E+02 -0.18836157935E+02  0.56130205566E+02  0.00000000000E+00 0.  1.
</event>
<event>
 8    1  0.3719512E-009  0.1486255E+03  0.7561462E-02  0.1202172E+00
          2   -1    0    0  501    0  0.00000000000E+00  0.00000000000E+00  0.69289161828E+03  0.69289161828E+03  0.00000000000E+00 0. -1.
         -2   -1    0    0    0  501 -0.00000000000E+00 -0.00000000000E+00 -0.35050895116E+02  0.35050895116E+02  0.00000000000E+00 0.  1.
         25    2    1    2    0    0 -0.98485844810E+02  0.39341449114E+02  0.27647839369E+03  0.32145254162E+03  0.12507686871E+03 0.  0.
         23    2    1    2    0    0  0.98485844810E+02 -0.39341449114E+02  0.38136232947E+03  0.40648997178E+03  0.92464369193E+02 0.  0.
          5    1    3    3  502    0  0.99153663104E+01 -0.28313809713E+02  0.24739740959E+02  0.39108995030E+02  0.41800000000E+01 0. -1.
         -5    1    3    3    0  502 -0.10840121112E+03  0.67655258827E+02  0.25173865273E+03  0.28234354659E+03  0.41800000000E+01 0. -1.
        -11    1    4    4    0    0  0.56074840166E+02 -0.67840096712E+02  0.26954576397E+03  0.28355173301E+03  0.00000000000E+00 0. -1.
         11    1    4    4    0    0  0.42411004645E+02  0.28498647598E+02  0.11181656551E+03  0.12293823877E+03  0.00000000000E+00 0.  1.
</event>
<event>
 8    1  0.3719512E-009  0.1301784E+03  0.7561462E-02  0.1227191E+00
          1   -1    0    0  501    0  0.00000000000E+00  0.00000000000E+00  0.16659251677E+03  0.16659251677E+03  0.00000000000E+00 0. -1.
         -1   -1    0    0    0  501 -0.00000000000E+00 -0.00000000000E+00 -0.11396947641E+03  0.11396947641E+03  0.00000000000E+00 0.  1.
         25    2    1    2    0    0  0.64488354822E+02  0.33449702360E+02  0.71552161924E+02  0.16138167286E+03  0.12508677773E+03 0.  0.
         23    2    1    2    0    0 -0.64488354822E+02 -0.33449702360E+02 -0.18929121566E+02  0.11918032033E+03  0.92563527451E+02 0.  0.
          5    1    3    3  502    0  0.66977674340E+02 -0.35210480486E+02  0.35701284752E+02  0.83772554748E+02  0.41800000000E+01 0. -1.
         -5    1    3    3    0  502 -0.24893195179E+01  0.68660182846E+02  0.35850877171E+02  0.77609118111E+02  0.41800000000E+01 0. -1.
        -11    1    4    4    0    0 -0.61284583835E+02 -0.61902585833E+02 -0.23411684085E+02  0.90198876380E+02  0.00000000000E+00 0. -1.
         11    1    4    4    0    0 -0.32037709867E+01  0.28452883473E+02  0.44825625185E+01  0.28981443946E+02  0.00000000000E+00 0.  1.
</event>
<event>
 8    1  0.3719512E-009  0.1649309E+03  0.7561462E-02  0.1183240E+00
          2   -1    0    0  501    0  0.00000000000E+00  0.00000000000E+00  0.94264296817E+03  0.94264296817E+03  0.00000000000E+00 0. -1.
         -2   -1    0    0    0  501 -0.00000000000E+00 -0.00000000000E+00 -0.33663527458E+02  0.33663527458E+02  0.00000000000E+00 0.  1.
         25    2    1    2    0    0 -0.11425303579E+03 -0.81150635442E+02  0.46632626118E+03  0.50273907406E+03  0.12508882006E+03 0.  0.
         23    2    1    2    0    0  0.11425303579E+03  0.81150635442E+02  0.44265317954E+03  0.47356742157E+03  0.93193795910E+02 0.  0.
          5    1    3    3  502    0  0.33871585652E+01  0.12816007755E+02  0.16773078217E+03  0.16830570574E+03  0.41800000000E+01 0. -1.
         -5    1    3    3    0  502 -0.11764019436E+03 -0.93966643197E+02  0.29859547901E+03  0.33443336832E+03  0.41800000000E+01 0. -1.
        -11    1    4    4    0    0  0.22555944366E+02  0.69305091239E+02  0.23991789596E+03  0.25074401907E+03  0.00000000000E+00 0. -1.
         11    1    4    4    0    0  0.91697091428E+02  0.11845544204E+02  0.20273528358E+03  0.22282340250E+03  0.00000000000E+00 0.  1.
</event>
<event>
 8    1  0.3719512E-009  0.1642045E+03  0.7561462E-02  0.1184030E+00
         -1   -1    0    0    0  501 -0.00000000000E+00  0.00000000000E+00  0.23471214495E+02  0.23471214495E+02  0.00000000000E+00 0.  1.
          1   -1    0    0  501    0  0.00000000000E+00 -0.00000000000E+00 -0.12972303404E+04  0.12972303404E+04  0.00000000000E+00 0. -1.
         25    2    1    2    0    0  0.12673961953E+03 -0.42510399145E+02 -0.57450538385E+03  0.60297032948E+03  0.12508683772E+03 0.  0.
         23    2    1    2    0    0 -0.12673961953E+03  0.42510399145E+02 -0.69925374210E+03  0.71773122546E+03  0.91171546894E+02 0.  0.
          5    1    3    3  502    0  0.13317877853E+03 -0.68818155499E+02 -0.41809488723E+03  0.44417714113E+03  0.41800000000E+01 0.  1.
         -5    1    3    3    0  502 -0.64391590034E+01  0.26307756354E+02 -0.15641049662E+03  0.15879318835E+03  0.41800000000E+01 0.  1.
        -11    1    4    4    0    0 -0.12927492390E+02  0.34616783175E+02 -0.80877880157E+02  0.88919476132E+02  0.00000000000E+00 0.  1.
         11    1    4    4    0    0 -0.11381212714E+03  0.78936159698E+01 -0.61837586195E+03  0.62881174933E+03  0.00000000000E+00 0. -1.
</event>
<event>
 8    1  0.3719512E-009  0.7752462E+02  0.7561462E-02  0.1336227E+00
         -1   -1    0    0    0  501 -0.00000000000E+00  0.00000000000E+00  0.69307785660E+03  0.69307785660E+03  0.00000000000E+00 0.  1.
          1   -1    0    0  501    0  0.00000000000E+00 -0.00000000000E+00 -0.23948417651E+02  0.23948417651E+02  0.00000000000E+00 0. -1.
         25    2    1    2    0    0  0.34743373164E+02  0.32815232958E+02  0.51076367509E+03  0.52802512023E+03  0.12508818615E+03 0.  0.
         23    2    1    2    0    0 -0.34743373164E+02 -0.32815232958E+02  0.15836576386E+03  0.18900115402E+03  0.91420892384E+02 0.  0.
          5    1    3    3  502    0  0.29081317803E+02  0.46939588517E+02  0.50916078597E+03  0.51216328098E+03  0.41800000000E+01 0.  1.
         -5    1    3    3    0  502  0.56620553612E+01 -0.14124355559E+02  0.16028891171E+01  0.15861839250E+02  0.41800000000E+01 0.  1.
        -11    1    4    4    0    0  0.11684848995E+02  0.13812337076E+02  0.64335259852E+00  0.18103321632E+02  0.00000000000E+00 0. -1.
         11    1    4    4    0    0 -0.46428222159E+02 -0.46627570033E+02  0.15772241126E+03  0.17089783239E+03  0.00000000000E+00 0.  1.
</event>
<event>
 8    1  0.3719512E-009  0.1513121E+03  0.7561462E-02  0.1198870E+00
          1   -1    0    0  501    0  0.00000000000E+00  0.00000000000E+00  0.91497326869E+03  0.91497326869E+03  0.00000000000E+00 0. -1.
         -1   -1    0    0    0  501 -0.00000000000E+00 -0.00000000000E+00 -0.31074258400E+02  0.31074258400E+02  0.00000000000E+00 0.  1.
         25    2    1    2    0    0 -0.55155233263E+02  0.11583572936E+03  0.44167257822E+03  0.47663580365E+03  0.12508799707E+03 0.  0.
         23    2    1    2    0    0  0.55155233263E+02 -0.11583572936E+03  0.44222643206E+03  0.46941172344E+03  0.91231205924E+02 0.  0.
          5    1    3    3  502    0  0.18668634694E+02  0.39903297907E+02  0.35119384513E+02  0.56494554373E+02  0.41800000000E+01 0. -1.
         -5    1    3    3    0  502 -0.73823867958E+02  0.75932431453E+02  0.40655319371E+03  0.42014124928E+03  0.41800000000E+01 0. -1.
        -11    1    4    4    0    0  0.30506713678E+02  0.33383768280E+01  0.49304402515E+02  0.58075196484E+02  0.00000000000E+00 0.  1.
         11    1    4    4    0    0  0.24648519585E+02 -0.11917410619E+03  0.39292202955E+03  0.41133652695E+03  0.00000000000E+00 0. -1.
</event>
<event>
 8    1  0.3719512E-009  0.7962693E+02  0.7561462E-02  0.1330113E+00
          4   -1    0    0  501    0  0.00000000000E+00  0.00000000000E+00  0.12015668927E+03  0.12015668927E+03  0.00000000000E+00 0.  1.
         -4   -1    0    0    0  501 -0.00000000000E+00 -0.00000000000E+00 -0.10996636718E+03  0.10996636718E+03  0.00000000000E+00 0. -1.
         25    2    1    2    0    0 -0.30734834054E+02  0.18032609692E+00  0.12193824029E+02  0.12938557659E+03  0.12508907044E+03 0.  0.
         23    2    1    2    0    0  0.30734834054E+02 -0.18032609692E+00 -0.20035019357E+01  0.10073747986E+03  0.95913311306E+02 0.  0.
          5    1    3    3  502    0 -0.66372717534E+02 -0.32086643414E+02  0.27446303606E+02  0.78776026176E+02  0.41800000000E+01 0.  1.
         -5    1    3    3    0  502  0.35637883480E+02  0.32266969511E+02 -0.15252479577E+02  0.50609550419E+02  0.41800000000E+01 0.  1.
        -11    1    4    4    0    0  0.19510671784E+02  0.10070689086E+02 -0.47736787983E+02  0.52544134012E+02  0.00000000000E+00 0. -1.
         11    1    4    4    0    0  0.11224162271E+02 -0.10251015183E+02  0.45733286047E+02  0.48193345844E+02  0.00000000000E+00 0.  1.
</event>
<event>
 8    1  0.3719512E-009  0.3959814E+03  0.7561462E-02  0.1045180E+00
         -2   -1    0    0    0  501 -0.00000000000E+00  0.00000000000E+00  0.15084375878E+04  0.15084375878E+04  0.00000000000E+00 0.  1.
          2   -1    0    0  501    0  0.00000000000E+00 -0.00000000000E+00 -0.11978975650E+03  0.11978975650E+03  0.00000000000E+00 0. -1.
         25    2    1    2    0    0  0.62802111142E+02 -0.38349649422E+03  0.95573469041E+03  0.10392741838E+04  0.12509342239E+03 0.  0.
         23    2    1    2    0    0 -0.62802111142E+02  0.38349649422E+03  0.43291314091E+03  0.58895316055E+03  0.91860609114E+02 0.  0.
          5    1    3    3  502    0 -0.29563901306E+02 -0.83792595107E+02  0.14658393247E+03  0.17146295493E+03  0.41800000000E+01 0. -1.
         -5    1    3    3    0  502  0.92366012448E+02 -0.29970389912E+03  0.80915075794E+03  0.86781122883E+03  0.41800000000E+01 0. -1.
        -11    1    4    4    0    0 -0.18202225969E+02  0.18645005260E+03  0.27396399954E+03  0.33189036773E+03  0.00000000000E+00 0.  1.
         11    1    4    4    0    0 -0.44599885173E+02  0.19704644162E+03  0.15894914136E+03  0.25706279282E+03  0.00000000000E+00 0. -1.
</event>
<event>
 8    1  0.3719512E-009  0.1600412E+03  0.7561462E-02  0.1188650E+00
          2   -1    0    0  501    0  0.00000000000E+00  0.00000000000E+00  0.62979542136E+03  0.62979542136E+03  0.00000000000E+00 0. -1.
         -2   -1    0    0    0  501 -0.00000000000E+00 -0.00000000000E+00 -0.43571328207E+02  0.43571328207E+02  0.00000000000E+00 0.  1.
         25    2    1    2    0    0  0.11265678405E+02 -0.12417128077E+03  0.30797217732E+03  0.35502109022E+03  0.12509072718E+03 0.  0.
         23    2    1    2    0    0 -0.11265678405E+02  0.12417128077E+03  0.27825191583E+03  0.31834565934E+03  0.91511789820E+02 0.  0.
          5    1    3    3  502    0  0.59629106512E+02 -0.85614052137E+02  0.24656322065E+03  0.26776162989E+03  0.41800000000E+01 0.  1.
         -5    1    3    3    0  502 -0.48363428107E+02 -0.38557228635E+02  0.61408956667E+02  0.87259460330E+02  0.41800000000E+01 0.  1.
        -11    1    4    4    0    0 -0.50522934958E+02  0.79574122600E+02  0.18777151332E+03  0.21010175906E+03  0.00000000000E+00 0. -1.
         11    1    4    4    0    0  0.39257256553E+02  0.44597158172E+02  0.90480402509E+02  0.10824390028E+03  0.00000000000E+00 0.  1.
</event>
<event>
 8    1  0.3719512E-009  0.1457765E+03  0.7561462E-02  0.1205761E+00
         -1   -1    0    0    0  501 -0.00000000000E+00  0.00000000000E+00  0.19917675160E+03  0.19917675160E+03  0.00000000000E+00 0.  1.
          1   -1    0    0  501    0  0.00000000000E+00 -0.00000000000E+00 -0.22758270195E+03  0.22758270195E+03  0.00000000000E+00 0. -1.
         25    2    1    2    0    0  0.60308426094E+02  0.11101843951E+03 -0.14732756585E+03  0.23090131409E+03  0.12509118682E+03 0.  0.
         23    2    1    2    0    0 -0.60308426094E+02 -0.11101843951E+03  0.11892161550E+03  0.19585813946E+03  0.90861763062E+02 0.  0.
          5    1    3    3  502    0  0.58752810937E+02  0.29531920397E+02 -0.13246909852E+03  0.14795121350E+03  0.41800000000E+01 0.  1.
         -5    1    3    3    0  502  0.15556151577E+01  0.81486519116E+02 -0.14858467336E+02  0.82950100589E+02  0.41800000000E+01 0.  1.
        -11    1    4    4    0    0 -0.10870430018E+02 -0.89464001678E+02  0.10829412354E+03  0.14088857668E+03  0.00000000000E+00 0.  1.
         11    1    4    4    0    0 -0.49437996076E+02 -0.21554437835E+02  0.10627491964E+02  0.54969562776E+02  0.00000000000E+00 0. -1.
</event>
<event>
 8    1  0.3719512E-009  0.9627472E+02  0.7561462E-02  0.1288331E+00
          1   -1    0    0  501    0  0.00000000000E+00  0.00000000000E+00  0.17937258109E+03  0.17937258109E+03  0.00000000000E+00 0. -1.
         -1   -1    0    0    0  501 -0.00000000000E+00 -0.00000000000E+00 -0.10664557157E+03  0.10664557157E+03  0.00000000000E+00 0.  1.
         25    2    1    2    0    0  0.32378746132E+02 -0.77831436398E+02  0.59556705602E+02  0.16217505682E+03  0.12509049597E+03 0.  0.
         23    2    1    2    0    0 -0.32378746132E+02  0.77831436398E+02  0.13170303918E+02  0.12384309584E+03  0.89763799986E+02 0.  0.
          5    1    3    3  502    0  0.42752474014E+02 -0.43719401628E+02 -0.28119661533E+02  0.67434026113E+02  0.41800000000E+01 0. -1.
         -5    1    3    3    0  502 -0.10373727881E+02 -0.34112034770E+02  0.87676367135E+02  0.94741030712E+02  0.41800000000E+01 0. -1.
        -11    1    4    4    0    0  0.10430774240E+02  0.68865394021E+01  0.35823997975E+02  0.37941854292E+02  0.00000000000E+00 0. -1.
         11    1    4    4    0    0 -0.42809520372E+02  0.70944896996E+02 -0.22653694057E+02  0.85901241544E+02  0.00000000000E+00 0.  1.
</event>
<event>
 8    1  0.3719512E-009  0.1084074E+03  0.7561462E-02  0.1263548E+00
         -1   -1    0    0    0  501 -0.00000000000E+00  0.00000000000E+00  0.29049326414E+02  0.29049326414E+02  0.00000000000E+00 0.  1.
          1   -1    0    0  501    0  0.00000000000E+00 -0.00000000000E+00 -0.94503291567E+03  0.94503291567E+03  0.00000000000E+00 0. -1.
         25    2    1    2    0    0 -0.22555066473E+01  0.18874101570E+02 -0.84904506524E+03  0.85842140608E+03  0.12509383913E+03 0.  0.
         23    2    1    2    0    0  0.22555066473E+01 -0.18874101570E+02 -0.66938524017E+02  0.11566083601E+03  0.92386925307E+02 0.  0.
          5    1    3    3  502    0 -0.60058739548E+02  0.24715635229E+02 -0.35105534906E+03  0.35703675627E+03  0.41800000000E+01 0.  1.
         -5    1    3    3    0  502  0.57803232900E+02 -0.58415336591E+01 -0.49798971618E+03  0.50138464981E+03  0.41800000000E+01 0.  1.
        -11    1    4    4    0    0  0.44789732875E+02  0.43933974194E+01 -0.24573017692E+02  0.51276264591E+02  0.00000000000E+00 0. -1.
         11    1    4    4    0    0 -0.42534226228E+02 -0.23267498989E+02 -0.42365506325E+02  0.64384571414E+02  0.00000000000E+00 0.  1.
</event>
<event>
 8    1  0.3719512E-009  0.7126134E+02  0.7561462E-02  0.1355856E+00
          3   -1    0    0  501    0  0.00000000000E+00  0.00000000000E+00  0.23212181072E+03  0.23212181072E+03  0.00000000000E+00 0. -1.
         -3   -1    0    0    0  501 -0.00000000000E+00 -0.00000000000E+00 -0.61304342428E+02  0.61304342428E+02  0.00000000000E+00 0.  1.
         25    2    1    2    0    0 -0.49965100525E+02  0.58425431845E+01  0.10321982091E+03  0.16979932219E+03  0.12508729674E+03 0.  0.
         23    2    1    2    0    0  0.49965100525E+02 -0.58425431845E+01  0.67597647384E+02  0.12362683097E+03  0.90462726144E+02 0.  0.
          5    1    3    3  502    0  0.17287192100E+02 -0.58516187742E+01 -0.20915611236E+02  0.28071758876E+02  0.41800000000E+01 0.  1.
         -5    1    3    3    0  502 -0.67252292625E+02  0.11694161959E+02  0.12413543215E+03  0.14172756331E+03  0.41800000000E+01 0.  1.
        -11    1    4    4    0    0  0.31654366139E+02  0.77696964473E+01  0.87485308231E+02  0.93359767752E+02  0.00000000000E+00 0. -1.
         11    1    4    4    0    0  0.18310734386E+02 -0.13612239632E+02 -0.19887660847E+02  0.30267063213E+02  0.00000000000E+00 0.  1.
</event>
<event>
 8    1  0.3719512E-009  0.9706051E+02  0.7561462E-02  0.1286602E+00
          1   -1    0    0  501    0  0.00000000000E+00  0.00000000000E+00  0.56686907771E+03  0.56686907771E+03  0.00000000000E+00 0. -1.
         -1   -1    0    0    0  501 -0.00000000000E+00 -0.00000000000E+00 -0.28419151125E+02  0.28419151125E+02  0.00000000000E+00 0.  1.
         25    2    1    2    0    0  0.46560681686E+02  0.40536714822E+02  0.35914650692E+03  0.38528522684E+03  0.12508944903E+03 0.  0.
         23    2    1    2    0    0 -0.46560681686E+02 -0.40536714822E+02  0.17930341966E+03  0.21000300199E+03  0.90224288398E+02 0.  0.
          5    1    3    3  502    0  0.70705510580E+02  0.10185093572E+02  0.98570970370E+02  0.12180605058E+03  0.41800000000E+01 0.  1.
         -5    1    3    3    0  502 -0.24144828894E+02  0.30351621250E+02  0.26057553655E+03  0.26347917626E+03  0.41800000000E+01 0.  1.
        -11    1    4    4    0    0 -0.57019584875E+02 -0.44542546709E+02  0.18410838612E+03  0.19781599877E+03  0.00000000000E+00 0. -1.
         11    1    4    4    0    0  0.10458903189E+02  0.40058318865E+01 -0.48049664619E+01  0.12187003229E+02  0.00000000000E+00 0.  1.
</event>
<event>
 8    1  0.3719512E-009  0.1502085E+03  0.7561462E-02  0.1200217E+00
          1   -1    0    0  501    0  0.00000000000E+00  0.00000000000E+00  0.54022304959E+03  0.54022304959E+03  0.00000000000E+00 0. -1.
         -1   -1    0    0    0  501 -0.00000000000E+00 -0.00000000000E+00 -0.56111904293E+02  0.56111904293E+02  0.00000000000E+00 0.  1.
         25    2    1    2    0    0  0.73121680694E+02 -0.11125424324E+03  0.20859844779E+03  0.27727965610E+03  0.12508560445E+03 0.  0.
         23    2    1    2    0    0 -0.73121680694E+02  0.11125424324E+03  0.27551269751E+03  0.31905529779E+03  0.90359004701E+02 0.  0.
          5    1    3    3  502    0 -0.55767237408E+01 -0.37969716684E+02  0.14970309958E+03  0.15460041933E+03  0.41800000000E+01 0. -1.
         -5    1    3    3    0  502  0.78698404435E+02 -0.73284526555E+02  0.58895348203E+02  0.12267923676E+03  0.41800000000E+01 0. -1.
        -11    1    4    4    0    0 -0.19987494894E+01  0.73774039368E+02  0.86811869158E+02  0.11394254917E+03  0.00000000000E+00 0. -1.
         11    1    4    4    0    0 -0.71122931204E+02  0.37480203871E+02  0.18870082835E+03  0.20511274862E+03  0.00000000000E+00 0.  1.
</event>
<event>
 8    1  0.3719512E-009  0.8074131E+02  0.7561462E-02  0.1326961E+00
         -1   -1    0    0    0  501 -0.00000000000E+00  0.00000000000E+00  0.97016763091E+02  0.97016763091E+02  0.00000000000E+00 0.  1.
          1   -1    0    0  501    0  0.00000000000E+00 -0.00000000000E+00 -0.12380583786E+03  0.12380583786E+03  0.00000000000E+00 0. -1.
         25    2    1    2    0    0 -0.45787219601E+01 -0.17407547672E+02 -0.20650558567E+01  0.12639427054E+03  0.12508900735E+03 0.  0.
         23    2    1    2    0    0  0.45787219601E+01  0.17407547672E+02 -0.24724018911E+02  0.94428330410E+02  0.89338933630E+02 0.  0.
          5    1    3    3  502    0 -0.30183634803E+02  0.32819455153E+02  0.36655914857E+02  0.57873110686E+02  0.41800000000E+01 0. -1.
         -5    1    3    3    0  502  0.25604912842E+02 -0.50227002826E+02 -0.38720970714E+02  0.68521159853E+02  0.41800000000E+01 0. -1.
        -11    1    4    4    0    0  0.16293791797E+02 -0.17162659083E+02  0.23896176597E+02  0.33631410524E+02  0.00000000000E+00 0.  1.
         11    1    4    4    0    0 -0.11715069837E+02  0.34570206755E+02 -0.48620195508E+02  0.60796919885E+02  0.00000000000E+00 0. -1.
</event>
<event>
 8    1  0.3719512E-009  0.1207461E+03  0.7561462E-02  0.1241871E+00
          2   -1    0    0  501    0  0.00000000000E+00  0.00000000000E+00  0.12159223085E+04  0.12159223085E+04  0.00000000000E+00 0. -1.
         -2   -1    0    0    0  501 -0.00000000000E+00 -0.00000000000E+00 -0.17739062193E+02  0.17739062193E+02  0.00000000000E+00 0.  1.
         25    2    1    2    0    0  0.53008173200E+02  0.51928245038E+02  0.88147334688E+03  0.89339262719E+03  0.12509482803E+03 0.  0.
         23    2    1    2    0    0 -0.53008173200E+02 -0.51928245038E+02  0.31670989945E+03  0.34026874353E+03  0.99856138280E+02 0.  0.
          5    1    3    3  502    0 -0.13435641341E+02  0.72958179428E+02  0.51439191749E+03  0.51973063175E+03  0.41800000000E+01 0. -1.
         -5    1    3    3    0  502  0.66443814541E+02 -0.21029934390E+02  0.36708142939E+03  0.37366199544E+03  0.41800000000E+01 0. -1.
        -11    1    4    4    0    0 -0.50781096915E+02 -0.57112466853E+01  0.57350188540E+02  0.76813945792E+02  0.00000000000E+00 0.  1.
         11    1    4    4    0    0 -0.22270762848E+01 -0.46216998353E+02  0.25935971091E+03  0.26345479773E+03  0.00000000000E+00 0. -1.
</event>
<event>
 8    1  0.3719512E-009  0.1258439E+03  0.7561462E-02  0.1233756E+00
          2   -1    0    0  501    0  0.00000000000E+00  0.00000000000E+00  0.27817886966E+02  0.27817886966E+02  0.00000000000E+00 0. -1.
         -2   -1    0    0    0  501 -0.00000000000E+00 -0.00000000000E+00 -0.61074507566E+03  0.61074507566E+03  0.00000000000E+00 0.  1.
         25    2    1    2    0    0  0.25129572901E+02  0.65894405777E+02 -0.31310858153E+03  0.34447059792E+03  0.12509772523E+03 0.  0.
         23    2    1    2    0    0 -0.25129572901E+02 -0.65894405777E+02 -0.26981860717E+03  0.29409236471E+03  0.93352397173E+02 0.  0.
          5    1    3    3  502    0 -0.33142737139E+02  0.75455120780E+02 -0.20911625475E+03  0.22480880027E+03  0.41800000000E+01 0. -1.
         -5    1    3    3    0  502  0.58272310040E+02 -0.95607150033E+01 -0.10399232677E+03  0.11966179765E+03  0.41800000000E+01 0. -1.
        -11    1    4    4    0    0 -0.56551290096E+02 -0.44416625151E+02 -0.21964274027E+03  0.23111429717E+03  0.00000000000E+00 0.  1.
         11    1    4    4    0    0  0.31421717195E+02 -0.21477780626E+02 -0.50175866895E+02  0.62978067538E+02  0.00000000000E+00 0. -1.
</event>
<event>
 8    1  0.3719512E-009  0.1319789E+03  0.7561462E-02  0.1224549E+00
          2   -1    0    0  501    0  0.00000000000E+00  0.00000000000E+00  0.57231769697E+03  0.57231769697E+03  0.00000000000E+00 0. -1.
         -2   -1    0    0    0  501 -0.00000000000E+00 -0.00000000000E+00 -0.39460309886E+02  0.39460309886E+02  0.00000000000E+00 0.  1.
         25    2    1    2    0    0  0.10265736559E+03  0.21544774007E+02  0.28445341523E+03  0.32797031640E+03  0.12509224999E+03 0.  0.
         23    2    1    2    0    0 -0.10265736559E+03 -0.21544774007E+02  0.24840397186E+03  0.28380769046E+03  0.88541289418E+02 0.  0.
          5    1    3    3  502    0  0.11903207008E+03 -0.13166640242E+02  0.24518971237E+03  0.27290559096E+03  0.41800000000E+01 0. -1.
         -5    1    3    3    0  502 -0.16374704485E+02  0.34711414249E+02  0.39263702855E+02  0.55064725442E+02  0.41800000000E+01 0. -1.
        -11    1    4    4    0    0 -0.29210303408E+02 -0.89008213183E+00  0.62044508813E+01  0.29875228570E+02  0.00000000000E+00 0.  1.
         11    1    4    4    0    0 -0.73447062184E+02 -0.20654691875E+02  0.24219952098E+03  0.25393246189E+03  0.00000000000E+00 0. -1.
</event>
<event>
 8    1  0.3719512E-009  0.1292306E+03  0.7561462E-02  0.1228602E+00
         -1   -1    0    0    0  501 -0.00000000000E+00  0.00000000000E+00  0.30546298469E+03  0.30546298469E+03  0.00000000000E+00 0.  1.
          1   -1    0    0  501    0  0.00000000000E+00 -0.00000000000E+00 -0.69330611748E+02  0.69330611748E+02  0.00000000000E+00 0. -1.
         25    2    1    2    0    0 -0.76517889436E+02  0.46676690680E+02  0.81823889451E+02  0.17428768428E+03  0.12508935666E+03 0.  0.
         23    2    1    2    0    0  0.76517889436E+02 -0.46676690680E+02  0.15430848350E+03  0.20050591216E+03  0.91421069105E+02 0.  0.
          5    1    3    3  502    0 -0.70168081978E+02  0.74039171939E+02  0.98074646718E+02  0.14156788986E+03  0.41800000000E+01 0. -1.
         -5    1    3    3    0  502 -0.63498074583E+01 -0.27362481259E+02 -0.16250757267E+02  0.32719794424E+02  0.41800000000E+01 0. -1.
        -11    1    4    4    0    0  0.37612292330E+02 -0.72220901350E+02  0.95233551761E+02  0.12529953115E+03  0.00000000000E+00 0.  1.
         11    1    4    4    0    0  0.38905597106E+02  0.25544210670E+02  0.59074931734E+02  0.75206381008E+02  0.00000000000E+00 0. -1.
</event>
<event>
 8    1  0.3719512E-009  0.2351221E+03  0.7561462E-02  0.1123086E+00
          1   -1    0    0  501    0  0.00000000000E+00  0.00000000000E+00  0.65984198303E+02  0.65984198303E+02  0.00000000000E+00 0. -1.
         -1   -1    0    0    0  501 -0.00000000000E+00 -0.00000000000E+00 -0.95635422820E+03  0.95635422820E+03  0.00000000000E+00 0.  1.
         25    2    1    2    0    0  0.22373514858E+03 -0.33805606317E+02 -0.46890641612E+03  0.53546303097E+03  0.12508874741E+03 0.  0.
         23    2    1    2    0    0 -0.22373514858E+03  0.33805606317E+02 -0.42146361378E+03  0.48687539554E+03  0.90641256133E+02 0.  0.
          5    1    3    3  502    0  0.18913459239E+03  0.49349407680E+01 -0.43192307005E+03  0.47156257116E+03  0.41800000000E+01 0.  1.
         -5    1    3    3    0  502  0.34600556186E+02 -0.38740547085E+02 -0.36983346068E+02  0.63900459805E+02  0.41800000000E+01 0.  1.
        -11    1    4    4    0    0 -0.43031612132E+02 -0.70990212545E+01 -0.16385435965E+03  0.16955933157E+03  0.00000000000E+00 0.  1.
         11    1    4    4    0    0 -0.18070353644E+03  0.40904627572E+02 -0.25760925413E+03  0.31731606397E+03  0.00000000000E+00 0. -1.
</event>
<event>
 8    1  0.3719512E-009  0.8270352E+02  0.7561462E-02  0.1321550E+00
         -1   -1    0    0    0  501 -0.00000000000E+00  0.00000000000E+00  0.68469185451E+02  0.68469185451E+02  0.00000000000E+00 0.  1.
          1   -1    0    0  501    0  0.00000000000E+00 -0.00000000000E+00 -0.18200616601E+03  0.18200616601E+03  0.00000000000E+00 0. -1.
         25    2    1    2    0    0 -0.99540471948E+01  0.21120277688E+02 -0.86336050765E+02  0.15377363636E+03  0.12508904186E+03 0.  0.
         23    2    1    2    0    0  0.99540471948E+01 -0.21120277688E+02 -0.27200929792E+02  0.96701715100E+02  0.89811925358E+02 0.  0.
          5    1    3    3  502    0  0.28621273413E+02  0.31689238790E+02  0.14440000734E+02  0.45269980871E+02  0.41800000000E+01 0.  1.
         -5    1    3    3    0  502 -0.38575320608E+02 -0.10568961101E+02 -0.10077605150E+03  0.10850365549E+03  0.41800000000E+01 0.  1.
        -11    1    4    4    0    0  0.44124364128E+02 -0.19029169000E+02  0.67055639163E+01  0.48518381774E+02  0.00000000000E+00 0.  1.
         11    1    4    4    0    0 -0.34170316933E+02 -0.20911086883E+01 -0.33906493708E+02  0.48183333326E+02  0.00000000000E+00 0. -1.
</event>
<event>
 8    1  0.3719512E-009  0.1423264E+03  0.7561462E-02  0.1210232E+00
          2   -1    0    0  501    0  0.00000000000E+00  0.00000000000E+00  0.27253704474E+03  0.27253704474E+03  0.00000000000E+00 0. -1.
         -2   -1    0    0    0  501 -0.00000000000E+00 -0.00000000000E+00 -0.81541401077E+02  0.81541401077E+02  0.00000000000E+00 0.  1.
         25    2    1    2    0    0 -0.96031656149E+02 -0.11801857540E+02  0.65648141118E+02  0.17122672397E+03  0.12509016647E+03 0.  0.
         23    2    1    2    0    0  0.96031656149E+02  0.11801857540E+02  0.12534750255E+03  0.18285172184E+03  0.91440652682E+02 0.  0.
          5    1    3    3  502    0 -0.78202613579E+02 -0.64000509709E+02  0.54163055491E+02  0.11472934670E+03  0.41800000000E+01 0.  1.
         -5    1    3    3    0  502 -0.17829042570E+02  0.52198652169E+02  0.11485085627E+02  0.56497377276E+02  0.41800000000E+01 0.  1.
        -11    1    4    4    0    0  0.76101658724E+02  0.45775352519E+02  0.62187061489E+02  0.10841621639E+03  0.00000000000E+00 0.  1.
         11    1    4    4    0    0  0.19929997425E+02 -0.33973494979E+02  0.63160441057E+02  0.74435505460E+02  0.00000000000E+00 0. -1.
</event>
<event>
 8    1  0.3719512E-009  0.1077958E+03  0.7561462E-02  0.1264707E+00
         -1   -1    0    0    0  501 -0.00000000000E+00  0.00000000000E+00  0.31690187996E+02  0.31690187996E+02  0.00000000000E+00 0.  1.
          1   -1    0    0  501    0  0.00000000000E+00 -0.00000000000E+00 -0.49601645198E+03  0.49601645198E+03  0.00000000000E+00 0. -1.
         25    2    1    2    0    0  0.45225493043E+02 -0.37671991279E+02 -0.21082761427E+03  0.25211046887E+03  0.12508749510E+03 0.  0.
         23    2    1    2    0    0 -0.45225493043E+02  0.37671991279E+02 -0.25349864971E+03  0.27559617110E+03  0.90703693257E+02 0.  0.
          5    1    3    3  502    0  0.26506420859E+01 -0.73293731211E+02 -0.16272542322E+03  0.17853860283E+03  0.41800000000E+01 0. -1.
         -5    1    3    3    0  502  0.42574850957E+02  0.35621739931E+02 -0.48102191051E+02  0.73571866047E+02  0.41800000000E+01 0. -1.
        -11    1    4    4    0    0  0.44495122492E+01  0.36503435792E+02 -0.32488919631E+02  0.49069632999E+02  0.00000000000E+00 0.  1.
         11    1    4    4    0    0 -0.49675005292E+02  0.11685554871E+01 -0.22100973008E+03  0.22652653810E+03  0.00000000000E+00 0. -1.
</event>
<event>
 8    1  0.3719512E-009  0.7159800E+02  0.7561462E-02  0.1354742E+00
          1   -1    0    0  501    0  0.00000000000E+00  0.00000000000E+00  0.56377463584E+02  0.56377463584E+02  0.00000000000E+00 0. -1.
         -1   -1    0    0    0  501 -0.00000000000E+00 -0.00000000000E+00 -0.24424539985E+03  0.24424539985E+03  0.00000000000E+00 0.  1.
         25    2    1    2    0    0  0.31865333467E+02  0.28424335402E+02 -0.87746819840E+02  0.15865057562E+03  0.12508860233E+03 0.  0.
         23    2    1    2    0    0 -0.31865333467E+02 -0.28424335402E+02 -0.10012111643E+03  0.14197228782E+03  0.91151249212E+02 0.  0.
          5    1    3    3  502    0  0.60828351279E+01 -0.36843679354E+01  0.31428054982E+02  0.32492622089E+02  0.41800000000E+01 0. -1.
         -5    1    3    3    0  502  0.25782498339E+02  0.32108703337E+02 -0.11917487482E+03  0.12615795353E+03  0.41800000000E+01 0. -1.
        -11    1    4    4    0    0  0.18462487626E+02 -0.38071742542E+02 -0.72017932301E+02  0.83527861234E+02  0.00000000000E+00 0.  1.
         11    1    4    4    0    0 -0.50327821092E+02  0.96474071395E+01 -0.28103184129E+02  0.58444426583E+02  0.00000000000E+00 0. -1.
</event>
<event>
 8    1  0.3719512E-009  0.1178416E+03  0.7561462E-02  0.1246701E+00
         -1   -1    0    0    0  501 -0.00000000000E+00  0.00000000000E+00  0.11277134654E+03  0.11277134654E+03  0.00000000000E+00 0.  1.
          1   -1    0    0  501    0  0.00000000000E+00 -0.00000000000E+00 -0.15685056732E+03  0.15685056732E+03  0.00000000000E+00 0. -1.
         25    2    1    2    0    0 -0.36370542254E+02  0.65029076167E+02 -0.17800172182E+02  0.14668188694E+03  0.12508849962E+03 0.  0.
         23    2    1    2    0    0  0.36370542254E+02 -0.65029076167E+02 -0.26279048603E+02  0.12294002692E+03  0.94191638338E+02 0.  0.
          5    1    3    3  502    0  0.11997526443E+02 -0.17729049162E+02 -0.42356243918E+02  0.47642246208E+02  0.41800000000E+01 0.  1.
         -5    1    3    3    0  502 -0.48368068697E+02  0.82758125329E+02  0.24556071736E+02  0.99039640733E+02  0.41800000000E+01 0.  1.
        -11    1    4    4    0    0  0.67250572440E+02 -0.40652901095E+02 -0.63517930435E+01  0.78839350174E+02  0.00000000000E+00 0.  1.
         11    1    4    4    0    0 -0.30880030186E+02 -0.24376175071E+02 -0.19927255560E+02  0.44100676747E+02  0.00000000000E+00 0. -1.
</event>
<event>
 8    1  0.3719512E-009  0.9141179E+02  0.7561462E-02  0.1299468E+00
         -1   -1    0    0    0  501 -0.00000000000E+00  0.00000000000E+00  0.10909652004E+03  0.10909652004E+03  0.00000000000E+00 0.  1.
          1   -1    0    0  501    0  0.00000000000E+00 -0.00000000000E+00 -0.13572690767E+03  0.13572690767E+03  0.00000000000E+00 0. -1.
         25    2    1    2    0    0 -0.46220131320E+02 -0.15079715824E+01 -0.44971719097E+02  0.14074196442E+03  0.12508905033E+03 0.  0.
         23    2    1    2    0    0  0.46220131320E+02  0.15079715824E+01  0.18341331462E+02  0.10408146329E+03  0.91421945087E+02 0.  0.
          5    1    3    3  502    0 -0.63202957871E+02 -0.31958008411E+02 -0.68383348747E+02  0.98537723594E+02  0.41800000000E+01 0.  1.
         -5    1    3    3    0  502  0.16982826551E+02  0.30450036829E+02  0.23411629650E+02  0.42204240822E+02  0.41800000000E+01 0.  1.
        -11    1    4    4    0    0 -0.14829526300E+02  0.48994010237E+01  0.36994174085E+02  0.40155795309E+02  0.00000000000E+00 0.  1.
         11    1    4    4    0    0  0.61049657620E+02 -0.33914294412E+01 -0.18652842622E+02  0.63925667983E+02  0.00000000000E+00 0. -1.
</event>
<event>
 8    1  0.3719512E-009  0.9420982E+02  0.7561462E-02  0.1292966E+00
          2   -1    0    0  501    0  0.00000000000E+00  0.00000000000E+00  0.31340448790E+03  0.31340448790E+03  0.00000000000E+00 0. -1.
         -2   -1    0    0    0  501 -0.00000000000E+00 -0.00000000000E+00 -0.46722321958E+02  0.46722321958E+02  0.00000000000E+00 0.  1.
         25    2    1    2    0    0 -0.46003413915E+02 -0.20046187594E+02  0.18221341501E+03  0.22664266366E+03  0.12508798763E+03 0.  0.
         23    2    1    2    0    0  0.46003413915E+02  0.20046187594E+02  0.84468750926E+02  0.13348414620E+03  0.90359745875E+02 0.  0.
          5    1    3    3  502    0  0.37624115869E+02  0.15395241595E+02  0.35986986905E+02  0.54452944688E+02  0.41800000000E+01 0. -1.
         -5    1    3    3    0  502 -0.83627529784E+02 -0.35441429189E+02  0.14622642811E+03  0.17218971897E+03  0.41800000000E+01 0. -1.
        -11    1    4    4    0    0  0.15723439577E+02 -0.58597617466E+01 -0.17354948407E+02  0.24140372700E+02  0.00000000000E+00 0.  1.
         11    1    4    4    0    0  0.30279974338E+02  0.25905949340E+02  0.10182369933E+03  0.10934377350E+03  0.00000000000E+00 0. -1.
</event>
<event>
 8    1  0.3719512E-009  0.6379037E+02  0.7561462E-02  0.1382580E+00
         -3   -1    0    0    0  501 -0.00000000000E+00  0.00000000000E+00  0.99146847250E+02  0.99146847250E+02  0.00000000000E+00 0.  1.
          3   -1    0    0  501    0  0.00000000000E+00 -0.00000000000E+00 -0.17352722015E+03  0.17352722015E+03  0.00000000000E+00 0. -1.
         25    2    1    2    0    0  0.13590080114E+02 -0.53720745635E+02 -0.92226840037E+02  0.16499714624E+03  0.12509060498E+03 0.  0.
         23    2    1    2    0    0 -0.13590080114E+02  0.53720745635E+02  0.17846467136E+02  0.10767692116E+03  0.90582637256E+02 0.  0.
          5    1    3    3  502    0  0.21533404600E+01 -0.57852552008E+02  0.12591220860E+02  0.59393315211E+02  0.41800000000E+01 0.  1.
         -5    1    3    3    0  502  0.11436739654E+02  0.41318063731E+01 -0.10481806090E+03  0.10560383103E+03  0.41800000000E+01 0.  1.
        -11    1    4    4    0    0 -0.32643554537E+01  0.36161775638E+02  0.54650055751E+02  0.65612183529E+02  0.00000000000E+00 0.  1.
         11    1    4    4    0    0 -0.10325724660E+02  0.17558969997E+02 -0.36803588615E+02  0.42064737632E+02  0.00000000000E+00 0. -1.
</event>
<event>
 8    1  0.3719512E-009  0.1308527E+03  0.7561462E-02  0.1226196E+00
         -2   -1    0    0    0  501 -0.00000000000E+00  0.00000000000E+00  0.18394058782E+02  0.18394058782E+02  0.00000000000E+00 0.  1.
          2   -1    0    0  501    0  0.00000000000E+00 -0.00000000000E+00 -0.10237933493E+04  0.10237933493E+04  0.00000000000E+00 0. -1.
         25    2    1    2    0    0 -0.47284439833E+02 -0.73444073622E+02 -0.59227185295E+03  0.61160711929E+03  0.12508984914E+03 0.  0.
         23    2    1    2    0    0  0.47284439833E+02  0.73444073622E+02 -0.41312743755E+03  0.43058028878E+03  0.84233338007E+02 0.  0.
          5    1    3    3  502    0  0.20989715281E+02 -0.78041257663E+02 -0.38068639301E+03  0.38919225104E+03  0.41800000000E+01 0.  1.
         -5    1    3    3    0  502 -0.68274155114E+02  0.45971840413E+01 -0.21158545994E+03  0.22241486825E+03  0.41800000000E+01 0.  1.
        -11    1    4    4    0    0  0.16320929519E+02 -0.12704268501E+02 -0.28530873091E+02  0.35238925890E+02  0.00000000000E+00 0.  1.
         11    1    4    4    0    0  0.30963510315E+02  0.86148342123E+02 -0.38459656446E+03  0.39534136289E+03  0.00000000000E+00 0. -1.
</event>
<event>
 8    1  0.3719512E-009  0.9710059E+02  0.7561462E-02  0.1286514E+00
         -2   -1    0    0    0  501 -0.00000000000E+00  0.00000000000E+00  0.10077800155E+03  0.10077800155E+03  0.00000000000E+00 0.  1.
          2   -1    0    0  501    0  0.00000000000E+00 -0.00000000000E+00 -0.22432638054E+03  0.22432638054E+03  0.00000000000E+00 0. -1.
         25    2    1    2    0    0  0.89198078510E+02 -0.33379675562E+02 -0.11310920422E+03  0.19367730288E+03  0.12508679236E+03 0.  0.
         23    2    1    2    0    0 -0.89198078510E+02  0.33379675562E+02 -0.10439174772E+02  0.13142707920E+03  0.89964442019E+02 0.  0.
          5    1    3    3  502    0  0.84319493396E+02 -0.36310682823E+02 -0.12414489771E+02  0.92735293227E+02  0.41800000000E+01 0.  1.
         -5    1    3    3    0  502  0.48785851137E+01  0.29310072610E+01 -0.10069471444E+03  0.10094200966E+03  0.41800000000E+01 0.  1.
        -11    1    4    4    0    0 -0.45852989332E+02  0.17141247103E+02 -0.50412229921E+02  0.70268854470E+02  0.00000000000E+00 0. -1.
         11    1    4    4    0    0 -0.43345089177E+02  0.16238428460E+02  0.39973055149E+02  0.61158224734E+02  0.00000000000E+00 0.  1.
</event>
<event>
 8    1  0.3719512E-009  0.1182522E+03  0.7561462E-02  0.1246008E+00
         -4   -1    0    0    0  501 -0.00000000000E+00  0.00000000000E+00  0.53834612909E+03  0.53834612909E+03  0.00000000000E+00 0. -1.
          4   -1    0    0  501    0  0.00000000000E+00 -0.00000000000E+00 -0.44015982628E+02  0.44015982628E+02  0.00000000000E+00 0.  1.
         25    2    1    2    0    0 -0.26905151208E+02  0.42015203753E+02  0.44160551426E+03  0.46168297818E+03  0.12508628067E+03 0.  0.
         23    2    1    2    0    0  0.26905151208E+02 -0.42015203753E+02  0.52724632205E+02  0.12067913354E+03  0.96407478561E+02 0.  0.
          5    1    3    3  502    0 -0.37930923109E+02  0.79867322311E+02  0.23100021789E+03  0.24737848970E+03  0.41800000000E+01 0. -1.
         -5    1    3    3    0  502  0.11025771902E+02 -0.37852118558E+02  0.21060529636E+03  0.21430448848E+03  0.41800000000E+01 0. -1.
        -11    1    4    4    0    0  0.38928423077E+01  0.31279198858E+02  0.18787149869E+02  0.36694679487E+02  0.00000000000E+00 0.  1.
         11    1    4    4    0    0  0.23012308900E+02 -0.73294402611E+02  0.33937482336E+02  0.83984454051E+02  0.00000000000E+00 0. -1.
</event>
<event>
 8    1  0.3719512E-009  0.1035052E+03  0.7561462E-02  0.1273093E+00
          4   -1    0    0  501    0  0.00000000000E+00  0.00000000000E+00  0.87782470781E+02  0.87782470781E+02  0.00000000000E+00 0. -1.
         -4   -1    0    0    0  501 -0.00000000000E+00 -0.00000000000E+00 -0.19400834831E+03  0.19400834831E+03  0.00000000000E+00 0.  1.
         25    2    1    2    0    0 -0.51844125947E+02  0.18892039065E+02 -0.11567817596E+02  0.13720937471E+03  0.12509146881E+03 0.  0.
         23    2    1    2    0    0  0.51844125947E+02 -0.18892039065E+02 -0.94658059930E+02  0.14458144438E+03  0.94334104192E+02 0.  0.
          5    1    3    3  502    0 -0.11438448216E+01  0.46378394046E+02  0.38724646359E+02  0.60575031579E+02  0.41800000000E+01 0. -1.
         -5    1    3    3    0  502 -0.50700281125E+02 -0.27486354981E+02 -0.50292463955E+02  0.76634343130E+02  0.41800000000E+01 0. -1.
        -11    1    4    4    0    0 -0.24418944359E+02 -0.71581485734E+01 -0.48225985712E+02  0.54527696013E+02  0.00000000000E+00 0.  1.
         11    1    4    4    0    0  0.76263070306E+02 -0.11733890492E+02 -0.46432074218E+02  0.90053748366E+02  0.00000000000E+00 0. -1.
</event>
<event>
 8    1  0.3719512E-009  0.1208027E+03  0.7561462E-02  0.1241779E+00
          2   -1    0    0  501    0  0.00000000000E+00  0.00000000000E+00  0.21490445746E+03  0.21490445746E+03  0.00000000000E+00 0.  1.
         -2   -1    0    0    0  501 -0.00000000000E+00 -0.00000000000E+00 -0.71058857412E+02  0.71058857412E+02  0.00000000000E+00 0. -1.
         25    2    1    2    0    0 -0.52972583430E+02 -0.25324762898E+02  0.83838123128E+02  0.16162478962E+03  0.12508518504E+03 0.  0.
         23    2    1    2    0    0  0.52972583430E+02  0.25324762898E+02  0.60007476915E+02  0.12433852525E+03  0.91715502316E+02 0.  0.
          5    1    3    3  502    0 -0.28636447719E+02  0.48523539418E+02  0.16984848702E+02  0.58996080388E+02  0.41800000000E+01 0. -1.
         -5    1    3    3    0  502 -0.24336135710E+02 -0.73848302316E+02  0.66853274426E+02  0.10262870923E+03  0.41800000000E+01 0. -1.
        -11    1    4    4    0    0  0.74407326639E+02  0.45622783425E+00  0.31290516730E+02  0.80720225710E+02  0.00000000000E+00 0. -1.
         11    1    4    4    0    0 -0.21434743209E+02  0.24868535064E+02  0.28716960186E+02  0.43618299542E+02  0.00000000000E+00 0.  1.
</event>
<event>
 8    1  0.3719512E-009  0.7204649E+02  0.7561462E-02  0.1353269E+00
          3   -1    0    0  501    0  0.00000000000E+00  0.00000000000E+00  0.12033044127E+03  0.12033044127E+03  0.00000000000E+00 0. -1.
         -3   -1    0    0    0  501 -0.00000000000E+00 -0.00000000000E+00 -0.11661978189E+03  0.11661978189E+03  0.00000000000E+00 0.  1.
         25    2    1    2    0    0 -0.10926109213E+02  0.49610727671E+02  0.24899742192E+01  0.13503800642E+03  0.12509380098E+03 0.  0.
         23    2    1    2    0    0  0.10926109213E+02 -0.49610727671E+02  0.12206851618E+01  0.10191221675E+03  0.88340283491E+02 0.  0.
          5    1    3    3  502    0 -0.76609125007E+01  0.41723435606E+01  0.60438888362E+02  0.61208084904E+02  0.41800000000E+01 0.  1.
         -5    1    3    3    0  502 -0.32651967119E+01  0.45438384111E+02 -0.57948914143E+02  0.73829921512E+02  0.41800000000E+01 0.  1.
        -11    1    4    4    0    0  0.31580854881E+01 -0.68331505432E+02  0.22993467089E+02  0.72165557348E+02  0.00000000000E+00 0. -1.
         11    1    4    4    0    0  0.77680237246E+01  0.18720777760E+02 -0.21772781927E+02  0.29746659399E+02  0.00000000000E+00 0.  1.
</event>
<event>
 8    1  0.3719512E-009  0.1773875E+03  0.7561462E-02  0.1170356E+00
         -2   -1    0    0    0  501 -0.00000000000E+00  0.00000000000E+00  0.15288999084E+03  0.15288999084E+03  0.00000000000E+00 0.  1.
          2   -1    0    0  501    0  0.00000000000E+00 -0.00000000000E+00 -0.27599136157E+03  0.27599136157E+03  0.00000000000E+00 0. -1.
         25    2    1    2    0    0 -0.12059276376E+03 -0.10485009994E+03 -0.13706100343E+03  0.24488582480E+03  0.12508873011E+03 0.  0.
         23    2    1    2    0    0  0.12059276376E+03  0.10485009994E+03  0.13959632696E+02  0.18399552761E+03  0.90129488550E+02 0.  0.
          5    1    3    3  502    0 -0.11660772897E+03 -0.12663594428E+03 -0.93752900017E+02  0.19606402909E+03  0.41800000000E+01 0.  1.
         -5    1    3    3    0  502 -0.39850347888E+01  0.21785844343E+02 -0.43308103410E+02  0.48821795717E+02  0.41800000000E+01 0.  1.
        -11    1    4    4    0    0  0.61309533995E+02  0.59100298171E+02  0.52231041432E+02  0.99898878330E+02  0.00000000000E+00 0.  1.
         11    1    4    4    0    0  0.59283229762E+02  0.45749801770E+02 -0.38271408736E+02  0.84096649277E+02  0.00000000000E+00 0. -1.
</event>
<event>
 8    1  0.3719512E-009  0.9319783E+02  0.7561462E-02  0.1295287E+00
         -2   -1    0    0    0  501 -0.00000000000E+00  0.00000000000E+00  0.21699413716E+02  0.21699413716E+02  0.00000000000E+00 0.  1.
          2   -1    0    0  501    0  0.00000000000E+00 -0.00000000000E+00 -0.76547446966E+03  0.76547446966E+03  0.00000000000E+00 0. -1.
         25    2    1    2    0    0 -0.51117842725E+02 -0.43993160089E+02 -0.38816086801E+03  0.41335806220E+03  0.12509035194E+03 0.  0.
         23    2    1    2    0    0  0.51117842725E+02  0.43993160089E+02 -0.35561418793E+03  0.37381582118E+03  0.93425829005E+02 0.  0.
          5    1    3    3  502    0 -0.63706829508E+02 -0.48018272576E+02 -0.39111048392E+03  0.39918566816E+03  0.41800000000E+01 0. -1.
         -5    1    3    3    0  502  0.12588986784E+02  0.40251124869E+01  0.29496159121E+01  0.14172394039E+02  0.41800000000E+01 0. -1.
        -11    1    4    4    0    0  0.29667394481E+02 -0.12519514983E+02 -0.35024742275E+02  0.47577569527E+02  0.00000000000E+00 0.  1.
         11    1    4    4    0    0  0.21450448244E+02  0.56512675073E+02 -0.32058944566E+03  0.32623825165E+03  0.00000000000E+00 0. -1.
</event>
<event>
 8    1  0.3719512E-009  0.1023389E+03  0.7561462E-02  0.1275453E+00
         -2   -1    0    0    0  501 -0.00000000000E+00  0.00000000000E+00  0.40941003034E+02  0.40941003034E+02  0.00000000000E+00 0.  1.
          2   -1    0    0  501    0  0.00000000000E+00 -0.00000000000E+00 -0.33992946669E+03  0.33992946669E+03  0.00000000000E+00 0. -1.
         25    2    1    2    0    0  0.20847055175E+02  0.10194464996E+02 -0.23260933978E+03  0.26512990320E+03  0.12509290063E+03 0.  0.
         23    2    1    2    0    0 -0.20847055175E+02 -0.10194464996E+02 -0.66379123872E+02  0.11574056653E+03  0.91930211724E+02 0.  0.
          5    1    3    3  502    0 -0.48490534896E+02 -0.16067439158E+01 -0.14345395919E+03  0.15149397483E+03  0.41800000000E+01 0. -1.
         -5    1    3    3    0  502  0.69337590071E+02  0.11801208911E+02 -0.89155380589E+02  0.11363592837E+03  0.41800000000E+01 0. -1.
        -11    1    4    4    0    0  0.12844043072E+02 -0.39084322647E+02 -0.71960939056E+01  0.41765266511E+02  0.00000000000E+00 0. -1.
         11    1    4    4    0    0 -0.33691098247E+02  0.28889857652E+02 -0.59183029966E+02  0.73975300014E+02  0.00000000000E+00 0.  1.
</event>
<event>
 8    1  0.3719512E-009  0.9372359E+02  0.7561462E-02  0.1294077E+00
         -2   -1    0    0    0  501 -0.00000000000E+00  0.00000000000E+00  0.28017709466E+02  0.28017709466E+02  0.00000000000E+00 0.  1.
          2   -1    0    0  501    0  0.00000000000E+00 -0.00000000000E+00 -0.48203921123E+03  0.48203921123E+03  0.00000000000E+00 0. -1.
         25    2    1    2    0    0  0.10348912298E+02  0.37037135772E+02 -0.31373818356E+03  0.33993936423E+03  0.12509306184E+03 0.  0.
         23    2    1    2    0    0 -0.10348912298E+02 -0.37037135772E+02 -0.14028331820E+03  0.17011755646E+03  0.88214081856E+02 0.  0.
          5    1    3    3  502    0  0.62819604827E+01  0.76651878512E+02 -0.26941016100E+03  0.28020399846E+03  0.41800000000E+01 0.  1.
         -5    1    3    3    0  502  0.40669518149E+01 -0.39614742740E+02 -0.44328022562E+02  0.59735365770E+02  0.41800000000E+01 0.  1.
        -11    1    4    4    0    0 -0.30678850023E+02 -0.39378772444E+02 -0.30621044286E+02  0.58562171331E+02  0.00000000000E+00 0.  1.
         11    1    4    4    0    0  0.20329937726E+02  0.23416366718E+01 -0.10966227392E+03  0.11155538513E+03  0.00000000000E+00 0. -1.
</event>
<event>
 8    1  0.3719512E-009  0.8317143E+02  0.7561462E-02  0.1320285E+00
          2   -1    0    0  501    0  0.00000000000E+00  0.00000000000E+00  0.97060223776E+03  0.97060223776E+03  0.00000000000E+00 0. -1.
         -2   -1    0    0    0  501 -0.00000000000E+00 -0.00000000000E+00 -0.14439685324E+02  0.14439685324E+02  0.00000000000E+00 0.  1.
         25    2    1    2    0    0  0.15705837348E+02 -0.26659146097E+02  0.69028115269E+03  0.70220650605E+03  0.12509406058E+03 0.  0.
         23    2    1    2    0    0 -0.15705837348E+02  0.26659146097E+02  0.26588139975E+03  0.28283541703E+03  0.91354096767E+02 0.  0.
          5    1    3    3  502    0  0.40662856794E+02 -0.41531235555E+01  0.64154610288E+03  0.64286047544E+03  0.41800000000E+01 0. -1.
         -5    1    3    3    0  502 -0.24957019446E+02 -0.22506022542E+02  0.48735049802E+02  0.59346030613E+02  0.41800000000E+01 0. -1.
        -11    1    4    4    0    0  0.35261101278E+02  0.18350920926E+02  0.16227907623E+03  0.16707662956E+03  0.00000000000E+00 0. -1.
         11    1    4    4    0    0 -0.50966938626E+02  0.83082251716E+01  0.10360232352E+03  0.11575878747E+03  0.00000000000E+00 0.  1.
</event>
<event>
 8    1  0.3719512E-009  0.1224399E+03  0.7561462E-02  0.1239125E+00
         -2   -1    0    0    0  501 -0.00000000000E+00  0.00000000000E+00  0.40117599688E+03  0.40117599688E+03  0.00000000000E+00 0. -1.
          2   -1    0    0  501    0  0.00000000000E+00 -0.00000000000E+00 -0.73981541823E+02  0.73981541823E+02  0.00000000000E+00 0.  1.
         25    2    1    2    0    0 -0.50866224008E+02 -0.60385238993E+02  0.26139672542E+02  0.15021280342E+03  0.12508738544E+03 0.  0.
         23    2    1    2    0    0  0.50866224008E+02  0.60385238993E+02  0.30105478251E+03  0.32494473528E+03  0.93388163502E+02 0.  0.
          5    1    3    3  502    0 -0.17769007747E+02 -0.88517648490E+02  0.46971045635E+02  0.10185707270E+03  0.41800000000E+01 0.  1.
         -5    1    3    3    0  502 -0.33097216261E+02  0.28132409497E+02 -0.20831373093E+02  0.48355730718E+02  0.41800000000E+01 0.  1.
        -11    1    4    4    0    0  0.98065148072E+01  0.68338165427E+02  0.11403075314E+03  0.13330148254E+03  0.00000000000E+00 0.  1.
         11    1    4    4    0    0  0.41059709201E+02 -0.79529264339E+01  0.18702402937E+03  0.19164325274E+03  0.00000000000E+00 0. -1.
</event>
<event>
 8    1  0.3719512E-009  0.1713981E+03  0.7561462E-02  0.1176398E+00
         -1   -1    0    0    0  501 -0.00000000000E+00  0.00000000000E+00  0.19872894088E+02  0.19872894088E+02  0.00000000000E+00 0.  1.
          1   -1    0    0  501    0  0.00000000000E+00 -0.00000000000E+00 -0.21572992464E+04  0.21572992464E+04  0.00000000000E+00 0. -1.
         25    2    1    2    0    0  0.14228329550E+03  0.76023296674E+02 -0.14848209174E+04  0.14987876632E+04  0.12508886758E+03 0.  0.
         23    2    1    2    0    0 -0.14228329550E+03 -0.76023296674E+02 -0.65260543490E+03  0.67838447727E+03  0.91036078189E+02 0.  0.
          5    1    3    3  502    0  0.16225355167E+02  0.14603327589E+02 -0.30622843635E+02  0.37838476175E+02  0.41800000000E+01 0. -1.
         -5    1    3    3    0  502  0.12605794033E+03  0.61419969085E+02 -0.14541980738E+04  0.14609491870E+04  0.41800000000E+01 0. -1.
        -11    1    4    4    0    0 -0.12781737719E+03 -0.28973935604E+02 -0.39672964468E+03  0.41781716315E+03  0.00000000000E+00 0.  1.
         11    1    4    4    0    0 -0.14465918315E+02 -0.47049361069E+02 -0.25587579022E+03  0.26056731413E+03  0.00000000000E+00 0. -1.
</event>
<event>
 8    1  0.3719512E-009  0.9524051E+02  0.7561462E-02  0.1290635E+00
          2   -1    0    0  501    0  0.00000000000E+00  0.00000000000E+00  0.27630343046E+03  0.27630343046E+03  0.00000000000E+00 0. -1.
         -2   -1    0    0    0  501 -0.00000000000E+00 -0.00000000000E+00 -0.60267619328E+02  0.60267619328E+02  0.00000000000E+00 0.  1.
         25    2    1    2    0    0 -0.36992607282E+02 -0.34201577711E+02  0.18290376506E+03  0.22724307082E+03  0.12508966804E+03 0.  0.
         23    2    1    2    0    0  0.36992607282E+02  0.34201577711E+02  0.33132046070E+02  0.10932797897E+03  0.91195798134E+02 0.  0.
          5    1    3    3  502    0  0.25789681267E+02  0.39696329329E+01  0.13912354745E+03  0.14161108537E+03  0.41800000000E+01 0.  1.
         -5    1    3    3    0  502 -0.62782288549E+02 -0.38171210644E+02  0.43780217613E+02  0.85631985448E+02  0.41800000000E+01 0.  1.
        -11    1    4    4    0    0  0.72945696971E+01  0.54179424824E+02 -0.74991138359E+01  0.55180227705E+02  0.00000000000E+00 0. -1.
         11    1    4    4    0    0  0.29698037585E+02 -0.19977847112E+02  0.40631159906E+02  0.54147751264E+02  0.00000000000E+00 0.  1.
</event>
<event>
 8    1  0.3719512E-009  0.1123856E+03  0.7561462E-02  0.1256215E+00
         -1   -1    0    0    0  501 -0.00000000000E+00  0.00000000000E+00  0.25255474862E+02  0.25255474862E+02  0.00000000000E+00 0.  1.
          1   -1    0    0  501    0  0.00000000000E+00 -0.00000000000E+00 -0.72345631463E+03  0.72345631463E+03  0.00000000000E+00 0. -1.
         25    2    1    2    0    0  0.10271572379E+02 -0.78284719522E+02 -0.34057072611E+03  0.37130847292E+03  0.12509020771E+03 0.  0.
         23    2    1    2    0    0 -0.10271572379E+02  0.78284719522E+02 -0.35763011366E+03  0.37740331658E+03  0.91104130858E+02 0.  0.
          5    1    3    3  502    0  0.40316840315E+02 -0.74569339622E+02 -0.11108975706E+03  0.13980143257E+03  0.41800000000E+01 0.  1.
         -5    1    3    3    0  502 -0.30045267937E+02 -0.37153798997E+01 -0.22948096905E+03  0.23150704035E+03  0.41800000000E+01 0.  1.
        -11    1    4    4    0    0 -0.16536358839E+02  0.92413305903E+02 -0.34468978760E+03  0.35724602159E+03  0.00000000000E+00 0.  1.
         11    1    4    4    0    0  0.62647864603E+01 -0.14128586381E+02 -0.12940326064E+02  0.20157294986E+02  0.00000000000E+00 0. -1.
</event>
<event>
 8    1  0.3719512E-009  0.6723456E+02  0.7561462E-02  0.1369758E+00
          1   -1    0    0  501    0  0.00000000000E+00  0.00000000000E+00  0.11439958796E+03  0.11439958796E+03  0.00000000000E+00 0. -1.
         -1   -1    0    0    0  501 -0.00000000000E+00 -0.00000000000E+00 -0.15237836550E+03  0.15237836550E+03  0.00000000000E+00 0.  1.
         25    2    1    2    0    0 -0.20812743884E+02  0.62684937616E+02 -0.59579649567E+02  0.15349183691E+03  0.12508971837E+03 0.  0.
         23    2    1    2    0    0  0.20812743884E+02 -0.62684937616E+02  0.21600872024E+02  0.11328611655E+03  0.89468289462E+02 0.  0.
          5    1    3    3  502    0 -0.60438453403E+01  0.36311285911E+02 -0.97801403243E+02  0.10458309819E+03  0.41800000000E+01 0.  1.
         -5    1    3    3    0  502 -0.14768898543E+02  0.26373651705E+02  0.38221753677E+02  0.48908738714E+02  0.41800000000E+01 0.  1.
        -11    1    4    4    0    0  0.81440824689E+01 -0.40926270553E+02  0.56508335808E+02  0.70245837716E+02  0.00000000000E+00 0. -1.
         11    1    4    4    0    0  0.12668661415E+02 -0.21758667063E+02 -0.34907463784E+02  0.43040278836E+02  0.00000000000E+00 0.  1.
</event>
<event>
 8    1  0.3719512E-009  0.1279679E+03  0.7561462E-02  0.1230503E+00
          1   -1    0    0  501    0  0.00000000000E+00  0.00000000000E+00  0.29170888481E+03  0.29170888481E+03  0.00000000000E+00 0.  1.
         -1   -1    0    0    0  501 -0.00000000000E+00 -0.00000000000E+00 -0.81313701979E+02  0.81313701979E+02  0.00000000000E+00 0. -1.
         25    2    1    2    0    0  0.10641994890E+03 -0.16920262461E+02  0.95933112578E+02  0.19096015734E+03  0.12510443156E+03 0.  0.
         23    2    1    2    0    0 -0.10641994890E+03  0.16920262461E+02  0.11446207025E+03  0.18206242945E+03  0.91834970931E+02 0.  0.
          5    1    3    3  502    0  0.93456597453E+02  0.18976069562E+00  0.12403034724E+03  0.15535498400E+03  0.41800000000E+01 0.  1.
         -5    1    3    3    0  502  0.12963351446E+02 -0.17110023156E+02 -0.28097234660E+02  0.35605173341E+02  0.41800000000E+01 0.  1.
        -11    1    4    4    0    0 -0.74051171527E+02 -0.32958819031E+02  0.76907305176E+02  0.11173447698E+03  0.00000000000E+00 0.  1.
         11    1    4    4    0    0 -0.32368777372E+02  0.49879081491E+02  0.37554765076E+02  0.70327952472E+02  0.00000000000E+00 0. -1.
</event>
<event>
 8    1  0.3719512E-009  0.8177885E+02  0.7561462E-02  0.1324078E+00
          3   -1    0    0  501    0  0.00000000000E+00  0.00000000000E+00  0.11326362542E+03  0.11326362542E+03  0.00000000000E+00 0. -1.
         -3   -1    0    0    0  501 -0.00000000000E+00 -0.00000000000E+00 -0.13546912529E+03  0.13546912529E+03  0.00000000000E+00 0.  1.
         25    2    1    2    0    0  0.91042400194E+01  0.40410431974E+02  0.31095567015E+02  0.13538655952E+03  0.12508675394E+03 0.  0.
         23    2    1    2    0    0 -0.91042400194E+01 -0.40410431974E+02 -0.53301066882E+02  0.11334619119E+03  0.91051991340E+02 0.  0.
          5    1    3    3  502    0  0.11026636140E+02 -0.35775397165E+02  0.44061379467E+02  0.57968468217E+02  0.41800000000E+01 0. -1.
         -5    1    3    3    0  502 -0.19223961208E+01  0.76185829139E+02 -0.12965812452E+02  0.77418091303E+02  0.41800000000E+01 0. -1.
        -11    1    4    4    0    0 -0.13098011961E+02 -0.51431830951E+01 -0.71908018409E+02  0.73271913863E+02  0.00000000000E+00 0.  1.
         11    1    4    4    0    0  0.39937719420E+01 -0.35267248879E+02  0.18606951527E+02  0.40074277323E+02  0.00000000000E+00 0. -1.
</event>
<event>
 8    1  0.3719512E-009  0.1829533E+03  0.7561462E-02  0.1164975E+00
          2   -1    0    0  501    0  0.00000000000E+00  0.00000000000E+00  0.29513201785E+03  0.29513201785E+03  0.00000000000E+00 0. -1.
         -2   -1    0    0    0  501 -0.00000000000E+00 -0.00000000000E+00 -0.13029253071E+03  0.13029253071E+03  0.00000000000E+00 0.  1.
         25    2    1    2    0    0 -0.53930817806E+02 -0.15321811073E+03  0.10514725359E+03  0.23040969375E+03  0.12509340300E+03 0.  0.
         23    2    1    2    0    0  0.53930817806E+02  0.15321811073E+03  0.59692233543E+02  0.19501485481E+03  0.89907220427E+02 0.  0.
          5    1    3    3  502    0  0.18527441855E+02 -0.10059657846E+03  0.95918718744E+02  0.14028831279E+03  0.41800000000E+01 0.  1.
         -5    1    3    3    0  502 -0.72458259661E+02 -0.52621532273E+02  0.92285348436E+01  0.90121380966E+02  0.41800000000E+01 0.  1.
        -11    1    4    4    0    0  0.63173140575E+02  0.89786927979E+02  0.36097550746E+01  0.10984338149E+03  0.00000000000E+00 0.  1.
         11    1    4    4    0    0 -0.92423227691E+01  0.63431182752E+02  0.56082478468E+02  0.85171473315E+02  0.00000000000E+00 0. -1.
</event>
<event>
 8    1  0.3719512E-009  0.8413988E+02  0.7561462E-02  0.1317697E+00
          2   -1    0    0  501    0  0.00000000000E+00  0.00000000000E+00  0.97600009031E+03  0.97600009031E+03  0.00000000000E+00 0. -1.
         -2   -1    0    0    0  501 -0.00000000000E+00 -0.00000000000E+00 -0.19597892389E+02  0.19597892389E+02  0.00000000000E+00 0.  1.
         25    2    1    2    0    0 -0.16629419827E+01  0.39943736648E+02  0.80437884899E+03  0.81502798753E+03  0.12508805014E+03 0.  0.
         23    2    1    2    0    0  0.16629419827E+01 -0.39943736648E+02  0.15202334893E+03  0.18056999517E+03  0.88860323318E+02 0.  0.
          5    1    3    3  502    0 -0.52660962592E+02 -0.30814930262E+01  0.19708038630E+03  0.20406083320E+03  0.41800000000E+01 0.  1.
         -5    1    3    3    0  502  0.50998020609E+02  0.43025229675E+02  0.60729846269E+03  0.61096715433E+03  0.41800000000E+01 0.  1.
        -11    1    4    4    0    0 -0.95980840491E+01 -0.32605985659E+01 -0.98957006875E+01  0.14166143177E+02  0.00000000000E+00 0.  1.
         11    1    4    4    0    0  0.11261026032E+02 -0.36683138083E+02  0.16191904962E+03  0.16640385199E+03  0.00000000000E+00 0. -1.
</event>
<event>
 8    1  0.3719512E-009  0.1965536E+03  0.7561462E-02  0.1152680E+00
         -2   -1    0    0    0  501 -0.00000000000E+00  0.00000000000E+00  0.18263066310E+03  0.18263066310E+03  0.00000000000E+00 0. -1.
          2   -1    0    0  501    0  0.00000000000E+00 -0.00000000000E+00 -0.37316836488E+03  0.37316836488E+03  0.00000000000E+00 0.  1.
         25    2    1    2    0    0 -0.16911484452E+03 -0.32909976216E+02  0.75058678984E+02  0.22575039107E+03  0.12508611676E+03 0.  0.
         23    2    1    2    0    0  0.16911484452E+03  0.32909976216E+02 -0.26559638077E+03  0.33004863691E+03  0.93315422498E+02 0.  0.
          5    1    3    3  502    0 -0.12155702499E+03 -0.76555453580E+02  0.72614604160E+02  0.16101925641E+03  0.41800000000E+01 0.  1.
         -5    1    3    3    0  502 -0.47557819533E+02  0.43645477363E+02  0.24440748246E+01  0.64731134663E+02  0.41800000000E+01 0.  1.
        -11    1    4    4    0    0  0.12274241914E+03  0.53590173888E+02 -0.23578778173E+03  0.27117058507E+03  0.00000000000E+00 0.  1.
         11    1    4    4    0    0  0.46372425381E+02 -0.20680197671E+02 -0.29808599031E+02  0.58878051833E+02  0.00000000000E+00 0. -1.
</event>
<event>
 8    1  0.3719512E-009  0.9116728E+02  0.7561462E-02  0.1300049E+00
          2   -1    0    0  501    0  0.00000000000E+00  0.00000000000E+00  0.71912870960E+03  0.71912870960E+03  0.00000000000E+00 0. -1.
         -2   -1    0    0    0  501 -0.00000000000E+00 -0.00000000000E+00 -0.35837910940E+02  0.35837910940E+02  0.00000000000E+00 0.  1.
         25    2    1    2    0    0 -0.23453994648E+02  0.15656757770E+00  0.63626643470E+03  0.64886951441E+03  0.12508619598E+03 0.  0.
         23    2    1    2    0    0  0.23453994648E+02 -0.15656757770E+00  0.47024363954E+02  0.10609710613E+03  0.92169359034E+02 0.  0.
          5    1    3    3  502    0 -0.45444175140E+02  0.26467498705E+02  0.58300182378E+03  0.58538389154E+03  0.41800000000E+01 0.  1.
         -5    1    3    3    0  502  0.21990180492E+02 -0.26310931128E+02  0.53264610926E+02  0.63485622876E+02  0.41800000000E+01 0.  1.
        -11    1    4    4    0    0  0.26798631145E+01 -0.45279710999E+02  0.24511662761E+02  0.51558272913E+02  0.00000000000E+00 0. -1.
         11    1    4    4    0    0  0.20774131533E+02  0.45123143421E+02  0.22512701192E+02  0.54538833213E+02  0.00000000000E+00 0.  1.
</event>
<event>
 8    1  0.3719512E-009  0.1244808E+03  0.7561462E-02  0.1235883E+00
         -1   -1    0    0    0  501 -0.00000000000E+00  0.00000000000E+00  0.32639317008E+03  0.32639317008E+03  0.00000000000E+00 0.  1.
          1   -1    0    0  501    0  0.00000000000E+00 -0.00000000000E+00 -0.72305555342E+02  0.72305555342E+02  0.00000000000E+00 0. -1.
         25    2    1    2    0    0 -0.75783187195E+02 -0.43310499462E+02  0.23105121292E+03  0.27686073374E+03  0.12509321353E+03 0.  0.
         23    2    1    2    0    0  0.75783187195E+02  0.43310499462E+02  0.23036401824E+02  0.12183799168E+03  0.81822549358E+02 0.  0.
          5    1    3    3  502    0 -0.84738047049E+02  0.13398874997E+01  0.71735862884E+02  0.11111182808E+03  0.41800000000E+01 0. -1.
         -5    1    3    3    0  502  0.89548598534E+01 -0.44650386962E+02  0.15931535003E+03  0.16574890566E+03  0.41800000000E+01 0. -1.
        -11    1    4    4    0    0 -0.93160536915E+01  0.31029997524E+02 -0.14742459686E+01  0.32431820854E+02  0.00000000000E+00 0. -1.
         11    1    4    4    0    0  0.85099240887E+02  0.12280501939E+02  0.24510647793E+02  0.89406170831E+02  0.00000000000E+00 0.  1.
</event>
<event>
 8    1  0.3719512E-009  0.7384330E+02  0.7561462E-02  0.1347491E+00
          1   -1    0    0  501    0  0.00000000000E+00  0.00000000000E+00  0.15743642976E+03  0.15743642976E+03  0.00000000000E+00 0. -1.
         -1   -1    0    0    0  501 -0.00000000000E+00 -0.00000000000E+00 -0.23836800278E+03  0.23836800278E+03  0.00000000000E+00 0.  1.
         25    2    1    2    0    0  0.10129853950E+02  0.74182671934E-01 -0.20621414130E+03  0.24140044654E+03  0.12508910454E+03 0.  0.
         23    2    1    2    0    0 -0.10129853950E+02 -0.74182671934E-01  0.12528256828E+03  0.15440398599E+03  0.89678590154E+02 0.  0.
          5    1    3    3  502    0 -0.20270875429E+02  0.46057385179E+02 -0.34884064379E+02  0.61372318416E+02  0.41800000000E+01 0.  1.
         -5    1    3    3    0  502  0.30400729379E+02 -0.45983202507E+02 -0.17133007692E+03  0.18002812812E+03  0.41800000000E+01 0.  1.
        -11    1    4    4    0    0  0.14950290928E+02 -0.60497139525E+01 -0.84509259496E+01  0.18207921000E+02  0.00000000000E+00 0.  1.
         11    1    4    4    0    0 -0.25080144878E+02  0.59755312806E+01  0.13373349423E+03  0.13619606499E+03  0.00000000000E+00 0. -1.
</event>
<event>
 8    1  0.3719512E-009  0.6827802E+02  0.7561462E-02  0.1366049E+00
          1   -1    0    0  501    0  0.00000000000E+00  0.00000000000E+00  0.95671113185E+02  0.95671113185E+02  0.00000000000E+00 0. -1.
         -1   -1    0    0    0  501 -0.00000000000E+00 -0.00000000000E+00 -0.17307804111E+03  0.17307804111E+03  0.00000000000E+00 0.  1.
         25    2    1    2    0    0 -0.51115752104E+02 -0.27615837137E+02 -0.87433578175E+02  0.16330275643E+03  0.12509078739E+03 0.  0.
         23    2    1    2    0    0  0.51115752104E+02  0.27615837137E+02  0.10026650248E+02  0.10544639787E+03  0.87423992902E+02 0.  0.
          5    1    3    3  502    0 -0.45586522471E+02 -0.11236704317E+01  0.21780768395E+02  0.50707671393E+02  0.41800000000E+01 0.  1.
         -5    1    3    3    0  502 -0.55292296339E+01 -0.26492166706E+02 -0.10921434657E+03  0.11259508503E+03  0.41800000000E+01 0.  1.
        -11    1    4    4    0    0  0.40880568977E+02  0.85854657634E+01 -0.35649815572E+02  0.54916668622E+02  0.00000000000E+00 0.  1.
         11    1    4    4    0    0  0.10235183128E+02  0.19030371374E+02  0.45676465820E+02  0.50529729250E+02  0.00000000000E+00 0. -1.
</event>
<event>
 8    1  0.3719512E-009  0.1984740E+03  0.7561462E-02  0.1151033E+00
         -1   -1    0    0    0  501 -0.00000000000E+00  0.00000000000E+00  0.86839616350E+02  0.86839616350E+02  0.00000000000E+00 0.  1.
          1   -1    0    0  501    0  0.00000000000E+00 -0.00000000000E+00 -0.63912700673E+03  0.63912700673E+03  0.00000000000E+00 0. -1.
         25    2    1    2    0    0 -0.99527416749E+02  0.15014725818E+03 -0.12374264211E+03  0.25181220551E+03  0.12508892655E+03 0.  0.
         23    2    1    2    0    0  0.99527416749E+02 -0.15014725818E+03 -0.42854474827E+03  0.47415441757E+03  0.93391137720E+02 0.  0.
          5    1    3    3  502    0 -0.25286712702E+02  0.11747081214E+03 -0.23014322560E+02  0.12241707801E+03  0.41800000000E+01 0. -1.
         -5    1    3    3    0  502 -0.74240704047E+02  0.32676446032E+02 -0.10072831955E+03  0.12939512750E+03  0.41800000000E+01 0. -1.
        -11    1    4    4    0    0  0.10803596383E+03 -0.10897981932E+03 -0.38070758497E+03  0.41047123621E+03  0.00000000000E+00 0.  1.
         11    1    4    4    0    0 -0.85085470812E+01 -0.41167438856E+02 -0.47837163303E+02  0.63683181361E+02  0.00000000000E+00 0. -1.
</event>
<event>
 8    1  0.3719512E-009  0.1251667E+03  0.7561462E-02  0.1234809E+00
          2   -1    0    0  501    0  0.00000000000E+00  0.00000000000E+00  0.58418139934E+02  0.58418139934E+02  0.00000000000E+00 0. -1.
         -2   -1    0    0    0  501 -0.00000000000E+00 -0.00000000000E+00 -0.29111917910E+03  0.29111917910E+03  0.00000000000E+00 0.  1.
         25    2    1    2    0    0  0.68073410386E+02  0.12492626192E+02 -0.14978902108E+03  0.20705957235E+03  0.12508741245E+03 0.  0.
         23    2    1    2    0    0 -0.68073410386E+02 -0.12492626192E+02 -0.82912018085E+02  0.14247774669E+03  0.92927125465E+02 0.  0.
          5    1    3    3  502    0  0.60670278691E+02  0.63825503897E+02 -0.73844403165E+02  0.11500019975E+03  0.41800000000E+01 0.  1.
         -5    1    3    3    0  502  0.74031316944E+01 -0.51332877705E+02 -0.75944617918E+02  0.92059372598E+02  0.41800000000E+01 0.  1.
        -11    1    4    4    0    0 -0.12498840069E+02  0.34920773355E+02 -0.50251883129E+02  0.62457450899E+02  0.00000000000E+00 0. -1.
         11    1    4    4    0    0 -0.55574570317E+02 -0.47413399547E+02 -0.32660134956E+02  0.80020295787E+02  0.00000000000E+00 0.  1.
</event>
<event>
 8    1  0.3719512E-009  0.8040490E+02  0.7561462E-02  0.1327906E+00
         -3   -1    0    0    0  501 -0.00000000000E+00  0.00000000000E+00  0.97183083445E+02  0.97183083445E+02  0.00000000000E+00 0.  1.
          3   -1    0    0  501    0  0.00000000000E+00 -0.00000000000E+00 -0.12809070797E+03  0.12809070797E+03  0.00000000000E+00 0. -1.
         25    2    1    2    0    0  0.12704457436E+01  0.65418359719E+01  0.65540190289E+01  0.12544477830E+03  0.12509607343E+03 0.  0.
         23    2    1    2    0    0 -0.12704457436E+01 -0.65418359719E+01 -0.37461643552E+02  0.99829013115E+02  0.92293268832E+02 0.  0.
          5    1    3    3  502    0 -0.25340070372E+02 -0.18471721497E+02  0.55709141422E+02  0.64064846051E+02  0.41800000000E+01 0.  1.
         -5    1    3    3    0  502  0.26610516116E+02  0.25013557468E+02 -0.49155122393E+02  0.61379932247E+02  0.41800000000E+01 0.  1.
        -11    1    4    4    0    0  0.19857699479E+01  0.42859899199E+02 -0.14874558361E+02  0.45411085960E+02  0.00000000000E+00 0.  1.
         11    1    4    4    0    0 -0.32562156915E+01 -0.49401735171E+02 -0.22587085190E+02  0.54417927155E+02  0.00000000000E+00 0. -1.
</event>
<event>
 8    1  0.3719512E-009  0.9394155E+02  0.7561462E-02  0.1293578E+00
         -1   -1    0    0    0  501 -0.00000000000E+00  0.00000000000E+00  0.96015557121E+03  0.96015557121E+03  0.00000000000E+00 0.  1.
          1   -1    0    0  501    0  0.00000000000E+00 -0.00000000000E+00 -0.15464505587E+02  0.15464505587E+02  0.00000000000E+00 0. -1.
         25    2    1    2    0    0 -0.29794260901E+02  0.17000884709E+02  0.70434681648E+03  0.71619049987E+03  0.12509063181E+03 0.  0.
         23    2    1    2    0    0  0.29794260901E+02 -0.17000884709E+02  0.24034424915E+03  0.25942957692E+03  0.91441889855E+02 0.  0.
          5    1    3    3  502    0  0.33634778325E+02 -0.36797705071E+01  0.50057307076E+03  0.50173270831E+03  0.41800000000E+01 0.  1.
         -5    1    3    3    0  502 -0.63429039226E+02  0.20680655216E+02  0.20377374572E+03  0.21445779156E+03  0.41800000000E+01 0.  1.
        -11    1    4    4    0    0  0.56631577767E+02 -0.19726493208E+02  0.10070145866E+03  0.11720517868E+03  0.00000000000E+00 0.  1.
         11    1    4    4    0    0 -0.26837316866E+02  0.27256084989E+01  0.13964279049E+03  0.14222439824E+03  0.00000000000E+00 0. -1.
</event>
<event>
 8    1  0.3719512E-009  0.9047961E+02  0.7561462E-02  0.1301694E+00
         -1   -1    0    0    0  501 -0.00000000000E+00  0.00000000000E+00  0.33210875628E+03  0.33210875628E+03  0.00000000000E+00 0. -1.
          1   -1    0    0  501    0  0.00000000000E+00 -0.00000000000E+00 -0.48739313074E+02  0.48739313074E+02  0.00000000000E+00 0.  1.
         25    2    1    2    0    0  0.41481217418E+02 -0.38835691251E+02  0.20984262417E+03  0.25082185940E+03  0.12509506754E+03 0.  0.
         23    2    1    2    0    0 -0.41481217418E+02  0.38835691251E+02  0.73526819043E+02  0.13002620996E+03  0.90948995839E+02 0.  0.
          5    1    3    3  502    0 -0.32128660015E+02 -0.64396090930E+01  0.14117692624E+03  0.14499005574E+03  0.41800000000E+01 0. -1.
         -5    1    3    3    0  502  0.73609877432E+02 -0.32396082158E+02  0.68665697923E+02  0.10583180366E+03  0.41800000000E+01 0. -1.
        -11    1    4    4    0    0 -0.12412822650E+02 -0.61353372442E+01  0.75188350860E+02  0.76452656163E+02  0.00000000000E+00 0. -1.
         11    1    4    4    0    0 -0.29068394768E+02  0.44971028495E+02 -0.16615318175E+01  0.53573553796E+02  0.00000000000E+00 0.  1.
</event>
<event>
 8    1  0.3719512E-009  0.3528482E+03  0.7561462E-02  0.1061452E+00
          3   -1    0    0  501    0  0.00000000000E+00  0.00000000000E+00  0.80436538204E+02  0.80436538204E+02  0.00000000000E+00 0. -1.
         -3   -1    0    0    0  501 -0.00000000000E+00 -0.00000000000E+00 -0.15906642107E+04  0.15906642107E+04  0.00000000000E+00 0.  1.
         25    2    1    2    0    0  0.42725723967E+02 -0.33752953033E+03 -0.80659091767E+03  0.88430067571E+03  0.12508838981E+03 0.  0.
         23    2    1    2    0    0 -0.42725723967E+02  0.33752953033E+03 -0.70363675479E+03  0.78680007315E+03  0.90542813569E+02 0.  0.
          5    1    3    3  502    0 -0.52630958740E+01 -0.29812196649E+03 -0.62863515478E+03  0.69577585277E+03  0.41800000000E+01 0. -1.
         -5    1    3    3    0  502  0.47988819841E+02 -0.39407563846E+02 -0.17795576289E+03  0.18852482294E+03  0.41800000000E+01 0. -1.
        -11    1    4    4    0    0 -0.35368013506E+00  0.22530339871E+03 -0.38162183630E+03  0.44316698038E+03  0.00000000000E+00 0. -1.
         11    1    4    4    0    0 -0.42372043832E+02  0.11222613162E+03 -0.32201491849E+03  0.34363309277E+03  0.00000000000E+00 0.  1.
</event>
<event>
 8    1  0.3719512E-009  0.1046701E+03  0.7561462E-02  0.1270771E+00
          1   -1    0    0  501    0  0.00000000000E+00  0.00000000000E+00  0.10579038614E+03  0.10579038614E+03  0.00000000000E+00 0. -1.
         -1   -1    0    0    0  501 -0.00000000000E+00 -0.00000000000E+00 -0.14925514731E+03  0.14925514731E+03  0.00000000000E+00 0.  1.
         25    2    1    2    0    0  0.26142833911E+02 -0.57495473042E+02 -0.41728855152E+02  0.14621441322E+03  0.12509268602E+03 0.  0.
         23    2    1    2    0    0 -0.26142833911E+02  0.57495473042E+02 -0.17359060171E+01  0.10883112023E+03  0.88611636799E+02 0.  0.
          5    1    3    3  502    0 -0.27622096507E+02 -0.51087833962E+02  0.22215347259E+02  0.62321272838E+02  0.41800000000E+01 0. -1.
         -5    1    3    3    0  502  0.53764930418E+02 -0.64076390808E+01 -0.63944202411E+02  0.83893140384E+02  0.41800000000E+01 0. -1.
        -11    1    4    4    0    0 -0.46246959999E+02  0.13093097968E+02  0.23987785934E+02  0.53718008131E+02  0.00000000000E+00 0. -1.
         11    1    4    4    0    0  0.20104126088E+02  0.44402375074E+02 -0.25723691951E+02  0.55113112102E+02  0.00000000000E+00 0.  1.
</event>
<event>
 8    1  0.3719512E-009  0.1132441E+03  0.7561462E-02  0.1254678E+00
         -2   -1    0    0    0  501 -0.00000000000E+00  0.00000000000E+00  0.17514081935E+03  0.17514081935E+03  0.00000000000E+00 0.  1.
          2   -1    0    0  501    0  0.00000000000E+00 -0.00000000000E+00 -0.88449335342E+02  0.88449335342E+02  0.00000000000E+00 0. -1.
         25    2    1    2    0    0  0.32398726918E+02  0.47835416655E+02  0.67622252073E+02  0.15348978211E+03  0.12509372344E+03 0.  0.
         23    2    1    2    0    0 -0.32398726918E+02 -0.47835416655E+02  0.19069231935E+02  0.11010037259E+03  0.91763564907E+02 0.  0.
          5    1    3    3  502    0 -0.33296936650E+02 -0.14158653795E+02  0.49187568799E+02  0.61204924573E+02  0.41800000000E+01 0.  1.
         -5    1    3    3    0  502  0.65695663568E+02  0.61994070451E+02  0.18434683274E+02  0.92284857534E+02  0.41800000000E+01 0.  1.
        -11    1    4    4    0    0 -0.16635659804E+02  0.22262800664E+02  0.25820546645E+02  0.37935182872E+02  0.00000000000E+00 0.  1.
         11    1    4    4    0    0 -0.15763067114E+02 -0.70098217319E+02 -0.67513147095E+01  0.72165189714E+02  0.00000000000E+00 0. -1.
</event>
<event>
 8    1  0.3719512E-009  0.1971300E+03  0.7561462E-02  0.1152183E+00
          2   -1    0    0  501    0  0.00000000000E+00  0.00000000000E+00  0.35280484809E+03  0.35280484809E+03  0.00000000000E+00 0. -1.
         -2   -1    0    0    0  501 -0.00000000000E+00 -0.00000000000E+00 -0.14959948358E+03  0.14959948358E+03  0.00000000000E+00 0.  1.
         25    2    1    2    0    0 -0.51010695495E+02  0.18821659413E+03  0.45435854700E+02  0.23609259917E+03  0.12509085149E+03 0.  0.
         23    2    1    2    0    0  0.51010695495E+02 -0.18821659413E+03  0.15776950980E+03  0.26631173250E+03  0.89460288851E+02 0.  0.
          5    1    3    3  502    0 -0.53786151513E+02  0.17279787735E+03  0.80000944162E+02  0.19791331430E+03  0.41800000000E+01 0.  1.
         -5    1    3    3    0  502  0.27754560178E+01  0.15418716787E+02 -0.34565089463E+02  0.38179284868E+02  0.41800000000E+01 0.  1.
        -11    1    4    4    0    0  0.27323884665E+02 -0.14670453207E+03  0.66685438366E+02  0.16344957049E+03  0.00000000000E+00 0.  1.
         11    1    4    4    0    0  0.23686810830E+02 -0.41512062066E+02  0.91084071438E+02  0.10286216201E+03  0.00000000000E+00 0. -1.
</event>
<event>
 8    1  0.3719512E-009  0.1238701E+03  0.7561462E-02  0.1236846E+00
         -2   -1    0    0    0  501 -0.00000000000E+00  0.00000000000E+00  0.84233239988E+02  0.84233239988E+02  0.00000000000E+00 0.  1.
          2   -1    0    0  501    0  0.00000000000E+00 -0.00000000000E+00 -0.25189803975E+03  0.25189803975E+03  0.00000000000E+00 0. -1.
         25    2    1    2    0    0 -0.53048433968E+02  0.80035545023E+02 -0.79988325792E+02  0.17681970067E+03  0.12508896621E+03 0.  0.
         23    2    1    2    0    0  0.53048433968E+02 -0.80035545023E+02 -0.87676473970E+02  0.15931157907E+03  0.92049933866E+02 0.  0.
          5    1    3    3  502    0 -0.16823865431E+02 -0.20781690066E+02  0.17240686973E+02  0.32087922609E+02  0.41800000000E+01 0. -1.
         -5    1    3    3    0  502 -0.36224568536E+02  0.10081723509E+03 -0.97229012765E+02  0.14473177806E+03  0.41800000000E+01 0. -1.
        -11    1    4    4    0    0  0.26764425828E+02 -0.82819811134E+02 -0.97878791938E+02  0.13097982103E+03  0.00000000000E+00 0. -1.
         11    1    4    4    0    0  0.26284008140E+02  0.27842661116E+01  0.10202317968E+02  0.28331758039E+02  0.00000000000E+00 0.  1.
</event>
<event>
 8    1  0.3719512E-009  0.1228168E+03  0.7561462E-02  0.1238521E+00
          1   -1    0    0  501    0  0.00000000000E+00  0.00000000000E+00  0.72671794099E+02  0.72671794099E+02  0.00000000000E+00 0. -1.
         -1   -1    0    0    0  501 -0.00000000000E+00 -0.00000000000E+00 -0.29656204693E+03  0.29656204693E+03  0.00000000000E+00 0.  1.
         25    2    1    2    0    0 -0.79793193621E+02  0.44179774300E+02 -0.16154050240E+03  0.22374566460E+03  0.12509189544E+03 0.  0.
         23    2    1    2    0    0  0.79793193621E+02 -0.44179774300E+02 -0.62349750434E+02  0.14548817643E+03  0.94659980443E+02 0.  0.
          5    1    3    3  502    0 -0.48111125779E+02 -0.27467841887E+02 -0.12582950981E+03  0.13754890294E+03  0.41800000000E+01 0.  1.
         -5    1    3    3    0  502 -0.31682067842E+02  0.71647616188E+02 -0.35710992591E+02  0.86196761656E+02  0.41800000000E+01 0.  1.
        -11    1    4    4    0    0  0.10711110552E+02 -0.41101398562E+02 -0.63420049046E+02  0.76329256999E+02  0.00000000000E+00 0.  1.
         11    1    4    4    0    0  0.69082083069E+02 -0.30783757384E+01  0.10702986117E+01  0.69158919435E+02  0.00000000000E+00 0. -1.
</event>
<event>
 8    1  0.3719512E-009  0.3530309E+03  0.7561462E-02  0.1061378E+00
         -2   -1    0    0    0  501 -0.00000000000E+00  0.00000000000E+00  0.10784612419E+03  0.10784612419E+03  0.00000000000E+00 0.  1.
          2   -1    0    0  501    0  0.00000000000E+00 -0.00000000000E+00 -0.12663736087E+04  0.12663736087E+04  0.00000000000E+00 0. -1.
         25    2    1    2    0    0  0.28233269666E+03  0.18276037974E+03 -0.38767092683E+03  0.52825147732E+03  0.12509103793E+03 0.  0.
         23    2    1    2    0    0 -0.28233269666E+03 -0.18276037974E+03 -0.77085655766E+03  0.84596825555E+03  0.91265266767E+02 0.  0.
          5    1    3    3  502    0  0.28464719102E+02  0.78417821485E+02 -0.76003058476E+02  0.11293153792E+03  0.41800000000E+01 0. -1.
         -5    1    3    3    0  502  0.25386797755E+03  0.10434255826E+03 -0.31166786836E+03  0.41531993939E+03  0.41800000000E+01 0. -1.
        -11    1    4    4    0    0 -0.11790711781E+03 -0.12962710654E+03 -0.40982621738E+03  0.44571605718E+03  0.00000000000E+00 0.  1.
         11    1    4    4    0    0 -0.16442557884E+03 -0.53133273208E+02 -0.36103034028E+03  0.40025219837E+03  0.00000000000E+00 0. -1.
</event>
<event>
 8    1  0.3719512E-009  0.1274915E+03  0.7561462E-02  0.1231226E+00
          2   -1    0    0  501    0  0.00000000000E+00  0.00000000000E+00  0.31974024414E+03  0.31974024414E+03  0.00000000000E+00 0.  1.
         -2   -1    0    0    0  501 -0.00000000000E+00 -0.00000000000E+00 -0.67767447820E+02  0.67767447820E+02  0.00000000000E+00 0. -1.
         25    2    1    2    0    0  0.59815678863E+02 -0.57092401669E+02  0.65274707124E+02  0.16353975765E+03  0.12508799772E+03 0.  0.
         23    2    1    2    0    0 -0.59815678863E+02  0.57092401669E+02  0.18669808919E+03  0.22396793431E+03  0.92021743763E+02 0.  0.
          5    1    3    3  502    0 -0.93573622543E+01 -0.76016230409E+02  0.44858957972E+02  0.88858460623E+02  0.41800000000E+01 0. -1.
         -5    1    3    3    0  502  0.69173041117E+02  0.18923828739E+02  0.20415749152E+02  0.74681297023E+02  0.41800000000E+01 0. -1.
        -11    1    4    4    0    0 -0.65617564389E+02  0.67744240103E+02  0.18936250136E+03  0.21154929389E+03  0.00000000000E+00 0.  1.
         11    1    4    4    0    0  0.58018855262E+01 -0.10651838434E+02 -0.26644121697E+01  0.12418640420E+02  0.00000000000E+00 0. -1.
</event>
<event>
 8    1  0.3719512E-009  0.2861070E+03  0.7561462E-02  0.1092399E+00
         -2   -1    0    0    0  501 -0.00000000000E+00  0.00000000000E+00  0.45589374708E+02  0.45589374708E+02  0.00000000000E+00 0.  1.
          2   -1    0    0  501    0  0.00000000000E+00 -0.00000000000E+00 -0.19313604142E+04  0.19313604142E+04  0.00000000000E+00 0. -1.
         25    2    1    2    0    0 -0.14070802730E+03 -0.23721845619E+03 -0.89996040797E+03  0.94955151647E+03  0.12509197263E+03 0.  0.
         23    2    1    2    0    0  0.14070802730E+03  0.23721845619E+03 -0.98581063151E+03  0.10273982724E+04  0.87482935919E+02 0.  0.
          5    1    3    3  502    0 -0.69041800324E+01 -0.10722342776E+03 -0.22666022106E+03  0.25087219729E+03  0.41800000000E+01 0.  1.
         -5    1    3    3    0  502 -0.13380384727E+03 -0.12999502843E+03 -0.67330018690E+03  0.69867931918E+03  0.41800000000E+01 0.  1.
        -11    1    4    4    0    0  0.77763906898E+02  0.16420013750E+03 -0.49688636551E+03  0.52906046025E+03  0.00000000000E+00 0.  1.
         11    1    4    4    0    0  0.62944120405E+02  0.73018318687E+02 -0.48892426599E+03  0.49833781217E+03  0.00000000000E+00 0. -1.
</event>
<event>
 8    1  0.3719512E-009  0.1030784E+03  0.7561462E-02  0.1273953E+00
         -2   -1    0    0    0  501 -0.00000000000E+00  0.00000000000E+00  0.17755705167E+02  0.17755705167E+02  0.00000000000E+00 0.  1.
          2   -1    0    0  501    0  0.00000000000E+00 -0.00000000000E+00 -0.10644593072E+04  0.10644593072E+04  0.00000000000E+00 0. -1.
         25    2    1    2    0    0 -0.68238125217E+01  0.84433976409E+02 -0.57411369410E+03  0.59366044017E+03  0.12510205308E+03 0.  0.
         23    2    1    2    0    0  0.68238125217E+01 -0.84433976409E+02 -0.47258990795E+03  0.48855457221E+03  0.90380795203E+02 0.  0.
          5    1    3    3  502    0 -0.14827883248E+01  0.69876140122E+02 -0.11760677916E+03  0.13687110917E+03  0.41800000000E+01 0.  1.
         -5    1    3    3    0  502 -0.53410241969E+01  0.14557836286E+02 -0.45650691494E+03  0.45678933101E+03  0.41800000000E+01 0.  1.
        -11    1    4    4    0    0  0.38117748561E+02 -0.10108949635E+02 -0.10352698044E+03  0.11078352448E+03  0.00000000000E+00 0.  1.
         11    1    4    4    0    0 -0.31293936039E+02 -0.74325026774E+02 -0.36906292750E+03  0.37777104772E+03  0.00000000000E+00 0. -1.
</event>
<event>
 8    1  0.3719512E-009  0.6744841E+02  0.7561462E-02  0.1368991E+00
         -2   -1    0    0    0  501 -0.00000000000E+00  0.00000000000E+00  0.57201534698E+02  0.57201534698E+02  0.00000000000E+00 0.  1.
          2   -1    0    0  501    0  0.00000000000E+00 -0.00000000000E+00 -0.23941341188E+03  0.23941341188E+03  0.00000000000E+00 0. -1.
         25    2    1    2    0    0  0.23594470545E+01  0.29147881738E+02 -0.66933913350E+02  0.14484820233E+03  0.12508272048E+03 0.  0.
         23    2    1    2    0    0 -0.23594470545E+01 -0.29147881738E+02 -0.11527796383E+03  0.15176674424E+03  0.94281332794E+02 0.  0.
          5    1    3    3  502    0  0.86126222055E+01 -0.10375258209E+02 -0.94839989767E+02  0.95884927403E+02  0.41800000000E+01 0. -1.
         -5    1    3    3    0  502 -0.62531751510E+01  0.39523139947E+02  0.27906076417E+02  0.48963274928E+02  0.41800000000E+01 0. -1.
        -11    1    4    4    0    0 -0.37306194961E+02 -0.25971627821E+02 -0.18953322391E+02  0.49249427040E+02  0.00000000000E+00 0.  1.
         11    1    4    4    0    0  0.34946747906E+02 -0.31762539165E+01 -0.96324641439E+02  0.10251731720E+03  0.00000000000E+00 0. -1.
</event>
<event>
 8    1  0.3719512E-009  0.7600548E+02  0.7561462E-02  0.1340785E+00
         -4   -1    0    0    0  501 -0.00000000000E+00  0.00000000000E+00  0.19935095067E+03  0.19935095067E+03  0.00000000000E+00 0.  1.
          4   -1    0    0  501    0  0.00000000000E+00 -0.00000000000E+00 -0.74452248389E+02  0.74452248389E+02  0.00000000000E+00 0. -1.
         25    2    1    2    0    0 -0.26866159061E+02  0.48901289519E+02  0.71805984746E+02  0.15465286414E+03  0.12509309463E+03 0.  0.
         23    2    1    2    0    0  0.26866159061E+02 -0.48901289519E+02  0.53092717537E+02  0.11915033492E+03  0.90911160130E+02 0.  0.
          5    1    3    3  502    0 -0.40994580000E+02  0.45298142057E+01  0.94121528230E+02  0.10284653267E+03  0.41800000000E+01 0.  1.
         -5    1    3    3    0  502  0.14128420939E+02  0.44371475313E+02 -0.22315543484E+02  0.51806331473E+02  0.41800000000E+01 0.  1.
        -11    1    4    4    0    0  0.37893967842E+01 -0.38160083581E+02  0.75858767997E+02  0.85000612873E+02  0.00000000000E+00 0.  1.
         11    1    4    4    0    0  0.23076762276E+02 -0.10741205938E+02 -0.22766050460E+02  0.34149722044E+02  0.00000000000E+00 0. -1.
</event>
<event>
 8    1  0.3719512E-009  0.1247874E+03  0.7561462E-02  0.1235402E+00
         -2   -1    0    0    0  501 -0.00000000000E+00  0.00000000000E+00  0.71638360746E+02  0.71638360746E+02  0.00000000000E+00 0. -1.
          2   -1    0    0  501    0  0.00000000000E+00 -0.00000000000E+00 -0.29933220811E+03  0.29933220811E+03  0.00000000000E+00 0.  1.
         25    2    1    2    0    0 -0.25927312566E+02  0.84398285422E+02 -0.17787530214E+03  0.23469841006E+03  0.12509366273E+03 0.  0.
         23    2    1    2    0    0  0.25927312566E+02 -0.84398285422E+02 -0.49818545230E+02  0.13627215880E+03  0.91065458304E+02 0.  0.
          5    1    3    3  502    0  0.16457594205E+02  0.10332538720E+03 -0.10571496362E+03  0.14879554422E+03  0.41800000000E+01 0.  1.
         -5    1    3    3    0  502 -0.42384906771E+02 -0.18927101782E+02 -0.72160338519E+02  0.85902865837E+02  0.41800000000E+01 0.  1.
        -11    1    4    4    0    0  0.37965913090E+02 -0.59164129596E+02  0.92664303924E+01  0.70906075338E+02  0.00000000000E+00 0. -1.
         11    1    4    4    0    0 -0.12038600524E+02 -0.25234155825E+02 -0.59084975622E+02  0.65366083461E+02  0.00000000000E+00 0.  1.
</event>
<event>
 8    1  0.3719512E-009  0.1051680E+03  0.7561462E-02  0.1269789E+00
         -4   -1    0    0    0  501 -0.00000000000E+00  0.00000000000E+00  0.45955608324E+03  0.45955608324E+03  0.00000000000E+00 0.  1.
          4   -1    0    0  501    0  0.00000000000E+00 -0.00000000000E+00 -0.32911483167E+02  0.32911483167E+02  0.00000000000E+00 0. -1.
         25    2    1    2    0    0 -0.20240158526E+02  0.42101673228E+02  0.30068714871E+03  0.32900139231E+03  0.12508772855E+03 0.  0.
         23    2    1    2    0    0  0.20240158526E+02 -0.42101673228E+02  0.12595745136E+03  0.16346617410E+03  0.93132677482E+02 0.  0.
          5    1    3    3  502    0  0.44322288841E+02 -0.12932283246E+02  0.13628108629E+03  0.14395039464E+03  0.41800000000E+01 0. -1.
         -5    1    3    3    0  502 -0.64562447367E+02  0.55033956473E+02  0.16440606242E+03  0.18505099766E+03  0.41800000000E+01 0. -1.
        -11    1    4    4    0    0  0.38652170037E+02 -0.46138352529E+02  0.33050498403E+02  0.68666391104E+02  0.00000000000E+00 0. -1.
         11    1    4    4    0    0 -0.18412011511E+02  0.40366793010E+01  0.92906952955E+02  0.94799782991E+02  0.00000000000E+00 0.  1.
</event>
<event>
 8    1  0.3719512E-009  0.1355093E+03  0.7561462E-02  0.1219503E+00
         -4   -1    0    0    0  501 -0.00000000000E+00  0.00000000000E+00  0.25420077329E+03  0.25420077329E+03  0.00000000000E+00 0.  1.
          4   -1    0    0  501    0  0.00000000000E+00 -0.00000000000E+00 -0.11667614703E+03  0.11667614703E+03  0.00000000000E+00 0. -1.
         25    2    1    2    0    0 -0.14921590095E+02 -0.83975932819E+02 -0.36998605042E+02  0.15586212623E+03  0.12509793952E+03 0.  0.
         23    2    1    2    0    0  0.14921590095E+02  0.83975932819E+02  0.17452323131E+03  0.21501479410E+03  0.92186725023E+02 0.  0.
          5    1    3    3  502    0 -0.18971647288E+02 -0.11360145228E+03 -0.46400200952E+02  0.12424034936E+03  0.41800000000E+01 0. -1.
         -5    1    3    3    0  502  0.40500571925E+01  0.29625519460E+02  0.94015959100E+01  0.31621776866E+02  0.41800000000E+01 0. -1.
        -11    1    4    4    0    0 -0.12314688506E+02 -0.16999879280E+02  0.27969702973E+02  0.34970726800E+02  0.00000000000E+00 0.  1.
         11    1    4    4    0    0  0.27236278602E+02  0.10097581210E+03  0.14655352833E+03  0.18004406730E+03  0.00000000000E+00 0. -1.
</event>
<event>
 8    1  0.3719512E-009  0.5763231E+02  0.7561462E-02  0.1408045E+00
         -1   -1    0    0    0  501 -0.00000000000E+00  0.00000000000E+00  0.49258347836E+02  0.49258347836E+02  0.00000000000E+00 0.  1.
          1   -1    0    0  501    0  0.00000000000E+00 -0.00000000000E+00 -0.32209178141E+03  0.32209178141E+03  0.00000000000E+00 0. -1.
         25    2    1    2    0    0  0.21397707548E+02  0.47059799635E+01 -0.65139394523E+02  0.14272612911E+03  0.12509036364E+03 0.  0.
         23    2    1    2    0    0 -0.21397707548E+02 -0.47059799635E+01 -0.20769403905E+03  0.22862400013E+03  0.93016726702E+02 0.  0.
          5    1    3    3  502    0  0.74649976565E+01  0.97125886380E+00 -0.10229159415E+03  0.10265335926E+03  0.41800000000E+01 0.  1.
         -5    1    3    3    0  502  0.13932709891E+02  0.37347210997E+01  0.37152199624E+02  0.40072769850E+02  0.41800000000E+01 0.  1.
        -11    1    4    4    0    0  0.15105374854E+02  0.34745880939E+02 -0.11929809134E+03  0.12516981740E+03  0.00000000000E+00 0.  1.
         11    1    4    4    0    0 -0.36503082402E+02 -0.39451860902E+02 -0.88395947711E+02  0.10345418273E+03  0.00000000000E+00 0. -1.
</event>
<event>
 8    1  0.3719512E-009  0.1053586E+03  0.7561462E-02  0.1269415E+00
          1   -1    0    0  501    0  0.00000000000E+00  0.00000000000E+00  0.49123315950E+03  0.49123315950E+03  0.00000000000E+00 0. -1.
         -1   -1    0    0    0  501 -0.00000000000E+00 -0.00000000000E+00 -0.28359721885E+02  0.28359721885E+02  0.00000000000E+00 0.  1.
         25    2    1    2    0    0 -0.84747010384E+01  0.10122878724E+00  0.36997780845E+03  0.39064399713E+03  0.12508925992E+03 0.  0.
         23    2    1    2    0    0  0.84747010384E+01 -0.10122878724E+00  0.92895629167E+02  0.12894888425E+03  0.89030253432E+02 0.  0.
          5    1    3    3  502    0  0.38077489386E+02 -0.45379011426E+02  0.19810643277E+03  0.20681581415E+03  0.41800000000E+01 0.  1.
         -5    1    3    3    0  502 -0.46552190425E+02  0.45480240213E+02  0.17187137567E+03  0.18382818298E+03  0.41800000000E+01 0.  1.
        -11    1    4    4    0    0 -0.36864230215E+02 -0.12815973040E+02  0.25093389414E+02  0.46399340799E+02  0.00000000000E+00 0.  1.
         11    1    4    4    0    0  0.45338931253E+02  0.12714744253E+02  0.67802239753E+02  0.82549543452E+02  0.00000000000E+00 0. -1.
</event>
<event>
 8    1  0.3719512E-009  0.1210825E+03  0.7561462E-02  0.1241322E+00
          2   -1    0    0  501    0  0.00000000000E+00  0.00000000000E+00  0.30130410229E+02  0.30130410229E+02  0.00000000000E+00 0. -1.
         -2   -1    0    0    0  501 -0.00000000000E+00 -0.00000000000E+00 -0.56434567879E+03  0.56434567879E+03  0.00000000000E+00 0.  1.
         25    2    1    2    0    0  0.55710858069E+02 -0.46045606697E+02 -0.26521459669E+03  0.30201073061E+03  0.12509117276E+03 0.  0.
         23    2    1    2    0    0 -0.55710858069E+02  0.46045606697E+02 -0.26900067187E+03  0.29246535841E+03  0.89166848105E+02 0.  0.
          5    1    3    3  502    0  0.87541855463E+02 -0.34340642866E+02 -0.11832609368E+03  0.15119984476E+03  0.41800000000E+01 0. -1.
         -5    1    3    3    0  502 -0.31830997394E+02 -0.11704963831E+02 -0.14688850301E+03  0.15081088585E+03  0.41800000000E+01 0. -1.
        -11    1    4    4    0    0  0.17329246886E+02  0.36238183719E+02 -0.77887167056E+02  0.87635150191E+02  0.00000000000E+00 0.  1.
         11    1    4    4    0    0 -0.73040104955E+02  0.98074229780E+01 -0.19111350482E+03  0.20483020822E+03  0.00000000000E+00 0. -1.
</event>
<event>
 8    1  0.3719512E-009  0.1362250E+03  0.7561462E-02  0.1218501E+00
         -2   -1    0    0    0  501 -0.00000000000E+00  0.00000000000E+00  0.19120543273E+02  0.19120543273E+02  0.00000000000E+00 0.  1.
          2   -1    0    0  501    0  0.00000000000E+00 -0.00000000000E+00 -0.11629724299E+04  0.11629724299E+04  0.00000000000E+00 0. -1.
         25    2    1    2    0    0  0.88395227971E+02  0.45318333119E+02 -0.70910100292E+03  0.72686908579E+03  0.12508784072E+03 0.  0.
         23    2    1    2    0    0 -0.88395227971E+02 -0.45318333119E+02 -0.43475088375E+03  0.45522388743E+03  0.91394688657E+02 0.  0.
          5    1    3    3  502    0 -0.15618854513E+02 -0.23955159188E+02 -0.71451812359E+02  0.77075496478E+02  0.41800000000E+01 0. -1.
         -5    1    3    3    0  502  0.10401408248E+03  0.69273492308E+02 -0.63764919056E+03  0.64979358931E+03  0.41800000000E+01 0. -1.
        -11    1    4    4    0    0 -0.79339941224E+02 -0.75830543719E+01 -0.37904381406E+03  0.38733259863E+03  0.00000000000E+00 0.  1.
         11    1    4    4    0    0 -0.90552867472E+01 -0.37735278748E+02 -0.55707069696E+02  0.67891288796E+02  0.00000000000E+00 0. -1.
</event>
<event>
 8    1  0.3719512E-009  0.9551730E+02  0.7561462E-02  0.1290015E+00
          1   -1    0    0  501    0  0.00000000000E+00  0.00000000000E+00  0.12315418027E+03  0.12315418027E+03  0.00000000000E+00 0. -1.
         -1   -1    0    0    0  501 -0.00000000000E+00 -0.00000000000E+00 -0.11225689217E+03  0.11225689217E+03  0.00000000000E+00 0.  1.
         25    2    1    2    0    0  0.39702772117E+02 -0.17797737405E+02  0.14852477647E+02  0.13327162956E+03  0.12509061349E+03 0.  0.
         23    2    1    2    0    0 -0.39702772117E+02  0.17797737405E+02 -0.39551895459E+01  0.10213944288E+03  0.92324171796E+02 0.  0.
          5    1    3    3  502    0  0.42008715928E+02  0.48708672938E+02 -0.20328484057E+01  0.64489316215E+02  0.41800000000E+01 0. -1.
         -5    1    3    3    0  502 -0.23059438104E+01 -0.66506410343E+02  0.16885326053E+02  0.68782313348E+02  0.41800000000E+01 0. -1.
        -11    1    4    4    0    0 -0.21692133299E+02  0.30810069801E+02 -0.43025626148E+02  0.57192775363E+02  0.00000000000E+00 0.  1.
         11    1    4    4    0    0 -0.18010638819E+02 -0.13012332396E+02  0.39070436603E+02  0.44946667522E+02  0.00000000000E+00 0. -1.
</event>
<event>
 8    1  0.3719512E-009  0.1369842E+03  0.7561462E-02  0.1217445E+00
         -1   -1    0    0    0  501 -0.00000000000E+00  0.00000000000E+00  0.65664421827E+02  0.65664421827E+02  0.00000000000E+00 0.  1.
          1   -1    0    0  501    0  0.00000000000E+00 -0.00000000000E+00 -0.39309200892E+03  0.39309200892E+03  0.00000000000E+00 0. -1.
         25    2    1    2    0    0  0.98601513988E+02  0.41536051778E+02 -0.24724698067E+03  0.29702871034E+03  0.12508990031E+03 0.  0.
         23    2    1    2    0    0 -0.98601513988E+02 -0.41536051778E+02 -0.80180606425E+02  0.16172772040E+03  0.90991338831E+02 0.  0.
          5    1    3    3  502    0  0.24422370669E+02  0.73696699092E+02 -0.16068654941E+03  0.17850852979E+03  0.41800000000E+01 0.  1.
         -5    1    3    3    0  502  0.74179143319E+02 -0.32160647314E+02 -0.86560431263E+02  0.11852018056E+03  0.41800000000E+01 0.  1.
        -11    1    4    4    0    0 -0.17061532761E+02 -0.27730495667E+02  0.14820374926E+02  0.35773171555E+02  0.00000000000E+00 0.  1.
         11    1    4    4    0    0 -0.81539981227E+02 -0.13805556111E+02 -0.95000981351E+02  0.12595454885E+03  0.00000000000E+00 0. -1.
</event>
<event>
 8    1  0.3719512E-009  0.9955151E+02  0.7561462E-02  0.1281242E+00
         -2   -1    0    0    0  501 -0.00000000000E+00  0.00000000000E+00  0.16876819984E+02  0.16876819984E+02  0.00000000000E+00 0.  1.
          2   -1    0    0  501    0  0.00000000000E+00 -0.00000000000E+00 -0.89563288312E+03  0.89563288312E+03  0.00000000000E+00 0. -1.
         25    2    1    2    0    0 -0.10067139350E+02 -0.18782481378E+02 -0.69804166902E+03  0.70948103335E+03  0.12508811335E+03 0.  0.
         23    2    1    2    0    0  0.10067139350E+02  0.18782481378E+02 -0.18071439412E+03  0.20302866975E+03  0.90048984434E+02 0.  0.
          5    1    3    3  502    0 -0.59841582687E+02 -0.25435264449E+02 -0.53161149186E+03  0.53558959883E+03  0.41800000000E+01 0.  1.
         -5    1    3    3    0  502  0.49774443337E+02  0.66527830712E+01 -0.16643017716E+03  0.17389143452E+03  0.41800000000E+01 0.  1.
        -11    1    4    4    0    0  0.37662230067E+02  0.35111867469E+02 -0.15013879995E+03  0.15872285929E+03  0.00000000000E+00 0. -1.
         11    1    4    4    0    0 -0.27595090718E+02 -0.16329386091E+02 -0.30575594171E+02  0.44305810462E+02  0.00000000000E+00 0.  1.
</event>
<event>
 8    1  0.3719512E-009  0.1132306E+03  0.7561462E-02  0.1254702E+00
         -2   -1    0    0    0  501 -0.00000000000E+00  0.00000000000E+00  0.27377680171E+02  0.27377680171E+02  0.00000000000E+00 0.  1.
          2   -1    0    0  501    0  0.00000000000E+00 -0.00000000000E+00 -0.56333250346E+03  0.56333250346E+03  0.00000000000E+00 0. -1.
         25    2    1    2    0    0  0.32888271112E+02  0.28836288487E+02 -0.39494797540E+03  0.41658682948E+03  0.12509002083E+03 0.  0.
         23    2    1    2    0    0 -0.32888271112E+02 -0.28836288487E+02 -0.14100684789E+03  0.17412335415E+03  0.92319236345E+02 0.  0.
          5    1    3    3  502    0 -0.39140545606E+02 -0.19784626742E+02 -0.10503062366E+03  0.11389608454E+03  0.41800000000E+01 0.  1.
         -5    1    3    3    0  502  0.72028816719E+02  0.48620915229E+02 -0.28991735174E+03  0.30269074494E+03  0.41800000000E+01 0.  1.
        -11    1    4    4    0    0 -0.33218707063E+02  0.24993706462E+02 -0.93508754845E+02  0.10233305963E+03  0.00000000000E+00 0. -1.
         11    1    4    4    0    0  0.33043595074E+00 -0.53829994949E+02 -0.47498093044E+02  0.71790294518E+02  0.00000000000E+00 0.  1.
</event>
<event>
 8    1  0.3719512E-009  0.1087573E+03  0.7561462E-02  0.1262889E+00
         -4   -1    0    0    0  501 -0.00000000000E+00  0.00000000000E+00  0.10265726232E+03  0.10265726232E+03  0.00000000000E+00 0.  1.
          4   -1    0    0  501    0  0.00000000000E+00 -0.00000000000E+00 -0.13161922518E+03  0.13161922518E+03  0.00000000000E+00 0. -1.
         25    2    1    2    0    0 -0.17457226319E+02 -0.20197176308E+01 -0.57285698360E+02  0.13870024929E+03  0.12508906389E+03 0.  0.
         23    2    1    2    0    0  0.17457226319E+02  0.20197176308E+01  0.28323735495E+02  0.95576238217E+02  0.89575383389E+02 0.  0.
          5    1    3    3  502    0 -0.11293871911E+02  0.61326334059E+02 -0.30044497215E+02  0.69344177872E+02  0.41800000000E+01 0.  1.
         -5    1    3    3    0  502 -0.61633544077E+01 -0.63346051690E+02 -0.27241201146E+02  0.69356071415E+02  0.41800000000E+01 0.  1.
        -11    1    4    4    0    0 -0.35369649897E+02  0.12241259778E+02  0.13150285449E+02  0.39671029507E+02  0.00000000000E+00 0.  1.
         11    1    4    4    0    0  0.52826876216E+02 -0.10221542147E+02  0.15173450046E+02  0.55905208710E+02  0.00000000000E+00 0. -1.
</event>
<event>
 8    1  0.3719512E-009  0.6699955E+02  0.7561462E-02  0.1370604E+00
         -1   -1    0    0    0  501 -0.00000000000E+00  0.00000000000E+00  0.60764063281E+02  0.60764063281E+02  0.00000000000E+00 0.  1.
          1   -1    0    0  501    0  0.00000000000E+00 -0.00000000000E+00 -0.21579771001E+03  0.21579771001E+03  0.00000000000E+00 0. -1.
         25    2    1    2    0    0 -0.28716296433E+02 -0.78995508083E+01 -0.11440508304E+03  0.17211359757E+03  0.12509012295E+03 0.  0.
         23    2    1    2    0    0  0.28716296433E+02  0.78995508083E+01 -0.40628563690E+02  0.10444817572E+03  0.91497063561E+02 0.  0.
          5    1    3    3  502    0  0.19369147541E+02 -0.13608643350E+02  0.18672395494E+02  0.30438295021E+02  0.41800000000E+01 0. -1.
         -5    1    3    3    0  502 -0.48085443974E+02  0.57090925414E+01 -0.13307747854E+03  0.14167530255E+03  0.41800000000E+01 0. -1.
        -11    1    4    4    0    0 -0.96224705148E+01 -0.14164116019E+02  0.21934566598E+02  0.27826953359E+02  0.00000000000E+00 0.  1.
         11    1    4    4    0    0  0.38338766948E+02  0.22063666827E+02 -0.62563130288E+02  0.76621222363E+02  0.00000000000E+00 0. -1.
</event>
<event>
 8    1  0.3719512E-009  0.1136084E+03  0.7561462E-02  0.1254030E+00
         -2   -1    0    0    0  501 -0.00000000000E+00  0.00000000000E+00  0.22325570849E+02  0.22325570849E+02  0.00000000000E+00 0.  1.
          2   -1    0    0  501    0  0.00000000000E+00 -0.00000000000E+00 -0.78702212253E+03  0.78702212253E+03  0.00000000000E+00 0. -1.
         25    2    1    2    0    0  0.55913292288E+02 -0.35771522377E+02 -0.53439734335E+03  0.55284281847E+03  0.12509501707E+03 0.  0.
         23    2    1    2    0    0 -0.55913292288E+02  0.35771522377E+02 -0.23029920834E+03  0.25650487491E+03  0.91384503190E+02 0.  0.
          5    1    3    3  502    0 -0.19213217176E+02  0.29917569197E+02 -0.22194588638E+03  0.22481471825E+03  0.41800000000E+01 0. -1.
         -5    1    3    3    0  502  0.75126509463E+02 -0.65689091574E+02 -0.31245145697E+03  0.32802810023E+03  0.41800000000E+01 0. -1.
        -11    1    4    4    0    0  0.11767673175E+02  0.18090724335E+02 -0.72859072556E+01  0.22777991207E+02  0.00000000000E+00 0.  1.
         11    1    4    4    0    0 -0.67680965462E+02  0.17680798043E+02 -0.22301330108E+03  0.23372688370E+03  0.00000000000E+00 0. -1.
</event>
<event>
 8    1  0.3719512E-009  0.9934021E+02  0.7561462E-02  0.1281690E+00
          1   -1    0    0  501    0  0.00000000000E+00  0.00000000000E+00  0.78860437446E+02  0.78860437446E+02  0.00000000000E+00 0. -1.
         -1   -1    0    0    0  501 -0.00000000000E+00 -0.00000000000E+00 -0.16286672467E+03  0.16286672467E+03  0.00000000000E+00 0.  1.
         25    2    1    2    0    0  0.27882819965E+02  0.17079438144E+02 -0.36504197983E+02  0.13434080151E+03  0.12508291499E+03 0.  0.
         23    2    1    2    0    0 -0.27882819965E+02 -0.17079438144E+02 -0.47502089246E+02  0.10738636061E+03  0.90588206223E+02 0.  0.
          5    1    3    3  502    0  0.37120444343E+02  0.58342975616E+02 -0.54550571657E+02  0.88176342973E+02  0.41800000000E+01 0. -1.
         -5    1    3    3    0  502 -0.92376243785E+01 -0.41263537472E+02  0.18046373674E+02  0.46164458533E+02  0.41800000000E+01 0. -1.
        -11    1    4    4    0    0  0.28496711972E+02 -0.94292697509E+01 -0.39982010162E+02  0.49995348362E+02  0.00000000000E+00 0.  1.
         11    1    4    4    0    0 -0.56379531937E+02 -0.76501683931E+01 -0.75200790843E+01  0.57391012252E+02  0.00000000000E+00 0. -1.
</event>
<event>
 8    1  0.3719512E-009  0.9661523E+02  0.7561462E-02  0.1287579E+00
         -2   -1    0    0    0  501 -0.00000000000E+00  0.00000000000E+00  0.24178645229E+03  0.24178645229E+03  0.00000000000E+00 0.  1.
          2   -1    0    0  501    0  0.00000000000E+00 -0.00000000000E+00 -0.65629729264E+02  0.65629729264E+02  0.00000000000E+00 0. -1.
         25    2    1    2    0    0 -0.37286369325E+02 -0.46040094476E+02  0.13062801620E+03  0.19031567756E+03  0.12508563016E+03 0.  0.
         23    2    1    2    0    0  0.37286369325E+02  0.46040094476E+02  0.45528706826E+02  0.11710050399E+03  0.90164855978E+02 0.  0.
          5    1    3    3  502    0 -0.21583853876E+02  0.37870602153E+02  0.14504229716E+02  0.46129061720E+02  0.41800000000E+01 0.  1.
         -5    1    3    3    0  502 -0.15702515450E+02 -0.83910696629E+02  0.11612378648E+03  0.14418661584E+03  0.41800000000E+01 0.  1.
        -11    1    4    4    0    0 -0.14903073726E+01  0.12832516341E+02  0.62097051777E+02  0.63426637394E+02  0.00000000000E+00 0.  1.
         11    1    4    4    0    0  0.38776676698E+02  0.33207578135E+02 -0.16568344951E+02  0.53673866600E+02  0.00000000000E+00 0. -1.
</event>
<event>
 8    1  0.3719512E-009  0.1283014E+03  0.7561462E-02  0.1229998E+00
          2   -1    0    0  501    0  0.00000000000E+00  0.00000000000E+00  0.15790340388E+03  0.15790340388E+03  0.00000000000E+00 0.  1.
         -2   -1    0    0    0  501 -0.00000000000E+00 -0.00000000000E+00 -0.17922612563E+03  0.17922612563E+03  0.00000000000E+00 0. -1.
         25    2    1    2    0    0  0.10564251092E+03  0.43964626976E+02 -0.68855482819E+02  0.18297705711E+03  0.12508516049E+03 0.  0.
         23    2    1    2    0    0 -0.10564251092E+03 -0.43964626976E+02  0.47532761063E+02  0.15415247240E+03  0.91708193942E+02 0.  0.
          5    1    3    3  502    0  0.62508146881E+02  0.24766913332E+02  0.29695443581E+02  0.73620378917E+02  0.41800000000E+01 0. -1.
         -5    1    3    3    0  502  0.43134364035E+02  0.19197713645E+02 -0.98550926400E+02  0.10935667819E+03  0.41800000000E+01 0. -1.
        -11    1    4    4    0    0 -0.32097102870E+02  0.25255468391E+02 -0.35056647223E+01  0.40992101452E+02  0.00000000000E+00 0.  1.
         11    1    4    4    0    0 -0.73545408047E+02 -0.69220095367E+02  0.51038425786E+02  0.11316037095E+03  0.00000000000E+00 0. -1.
</event>
<event>
 8    1  0.3719512E-009  0.6776697E+02  0.7561462E-02  0.1367856E+00
          2   -1    0    0  501    0  0.00000000000E+00  0.00000000000E+00  0.24890845279E+03  0.24890845279E+03  0.00000000000E+00 0. -1.
         -2   -1    0    0    0  501 -0.00000000000E+00 -0.00000000000E+00 -0.58793079818E+02  0.58793079818E+02  0.00000000000E+00 0.  1.
         25    2    1    2    0    0 -0.61660018776E+01 -0.47604872251E+02  0.14903858091E+03  0.20041247873E+03  0.12509364329E+03 0.  0.
         23    2    1    2    0    0  0.61660018776E+01  0.47604872251E+02  0.41076792061E+02  0.10728905387E+03  0.86714443971E+02 0.  0.
          5    1    3    3  502    0  0.32584409899E+02 -0.13237716713E+02 -0.68647618785E+01  0.36077392753E+02  0.41800000000E+01 0. -1.
         -5    1    3    3    0  502 -0.38750411776E+02 -0.34367155538E+02  0.15590334278E+03  0.16433508598E+03  0.41800000000E+01 0. -1.
        -11    1    4    4    0    0 -0.10673760976E+00  0.11924091382E+02 -0.27365075598E+02  0.29850338536E+02  0.00000000000E+00 0.  1.
         11    1    4    4    0    0  0.62727394874E+01  0.35680780869E+02  0.68441867659E+02  0.77438715335E+02  0.00000000000E+00 0. -1.
</event>
<event>
 8    1  0.3719512E-009  0.9897005E+02  0.7561462E-02  0.1282477E+00
          2   -1    0    0  501    0  0.00000000000E+00  0.00000000000E+00  0.64564660688E+03  0.64564660688E+03  0.00000000000E+00 0. -1.
         -2   -1    0    0    0  501 -0.00000000000E+00 -0.00000000000E+00 -0.18283216273E+02  0.18283216273E+02  0.00000000000E+00 0.  1.
         25    2    1    2    0    0  0.24967166157E+02 -0.42759050305E+01  0.40782161587E+03  0.42732661572E+03  0.12509165992E+03 0.  0.
         23    2    1    2    0    0 -0.24967166157E+02  0.42759050305E+01  0.21954177473E+03  0.23660320743E+03  0.84503515689E+02 0.  0.
          5    1    3    3  502    0  0.37316992831E+02 -0.56388316552E+02  0.29044574908E+03  0.29824219312E+03  0.41800000000E+01 0.  1.
         -5    1    3    3    0  502 -0.12349826674E+02  0.52112411521E+02  0.11737586679E+03  0.12908442260E+03  0.41800000000E+01 0.  1.
        -11    1    4    4    0    0 -0.33052027720E+02 -0.27927823951E+02  0.17922202811E+03  0.18437173115E+03  0.00000000000E+00 0. -1.
         11    1    4    4    0    0  0.80848615621E+01  0.32203728982E+02  0.40319746623E+02  0.52231476281E+02  0.00000000000E+00 0.  1.
</event>
<event>
 8    1  0.3719512E-009  0.9430881E+02  0.7561462E-02  0.1292740E+00
         -1   -1    0    0    0  501 -0.00000000000E+00  0.00000000000E+00  0.16758111769E+03  0.16758111769E+03  0.00000000000E+00 0. -1.
          1   -1    0    0  501    0  0.00000000000E+00 -0.00000000000E+00 -0.96513634104E+02  0.96513634104E+02  0.00000000000E+00 0.  1.
         25    2    1    2    0    0 -0.47855107040E+02 -0.36981517534E+02  0.69244819978E+02  0.15524083533E+03  0.12508848048E+03 0.  0.
         23    2    1    2    0    0  0.47855107040E+02  0.36981517534E+02  0.18226636112E+01  0.10885391647E+03  0.90488171158E+02 0.  0.
          5    1    3    3  502    0  0.29757782648E+02  0.12677663655E+01 -0.15689333119E+02  0.33922860042E+02  0.41800000000E+01 0. -1.
         -5    1    3    3    0  502 -0.77612889688E+02 -0.38249283900E+02  0.84934153097E+02  0.12131797528E+03  0.41800000000E+01 0. -1.
        -11    1    4    4    0    0  0.69260852261E+01 -0.83437077354E+01 -0.35610067269E+02  0.37224521572E+02  0.00000000000E+00 0.  1.
         11    1    4    4    0    0  0.40929021814E+02  0.45325225270E+02  0.37432730881E+02  0.71629394899E+02  0.00000000000E+00 0. -1.
</event>
<event>
 8    1  0.3719512E-009  0.9004731E+02  0.7561462E-02  0.1302737E+00
          2   -1    0    0  501    0  0.00000000000E+00  0.00000000000E+00  0.19799005049E+03  0.19799005049E+03  0.00000000000E+00 0. -1.
         -2   -1    0    0    0  501 -0.00000000000E+00 -0.00000000000E+00 -0.92710051138E+02  0.92710051138E+02  0.00000000000E+00 0.  1.
         25    2    1    2    0    0  0.44139461540E+02  0.16280776606E+02 -0.13980626243E+02  0.13437715531E+03  0.12509358980E+03 0.  0.
         23    2    1    2    0    0 -0.44139461540E+02 -0.16280776606E+02  0.11926062560E+03  0.15632294632E+03  0.89445016494E+02 0.  0.
          5    1    3    3  502    0  0.86163630779E+02 -0.27920638692E+01 -0.16889962398E+02  0.87947200748E+02  0.41800000000E+01 0. -1.
         -5    1    3    3    0  502 -0.42024169239E+02  0.19072840475E+02  0.29093361542E+01  0.46429954565E+02  0.41800000000E+01 0. -1.
        -11    1    4    4    0    0 -0.33780483615E+02 -0.15160111365E+02  0.13357849131E+03  0.13861516292E+03  0.00000000000E+00 0. -1.
         11    1    4    4    0    0 -0.10358977925E+02 -0.11206652405E+01 -0.14317865715E+02  0.17707783398E+02  0.00000000000E+00 0.  1.
</event>
<event>
 8    1  0.3719512E-009  0.7377950E+02  0.7561462E-02  0.1347693E+00
         -2   -1    0    0    0  501 -0.00000000000E+00  0.00000000000E+00  0.23402587004E+02  0.23402587004E+02  0.00000000000E+00 0. -1.
          2   -1    0    0  501    0  0.00000000000E+00 -0.00000000000E+00 -0.67975463609E+03  0.67975463609E+03  0.00000000000E+00 0.  1.
         25    2    1    2    0    0 -0.22208361957E+02 -0.21533482159E+02 -0.53379989246E+03  0.54913254335E+03  0.12508925927E+03 0.  0.
         23    2    1    2    0    0  0.22208361957E+02  0.21533482159E+02 -0.12255215663E+03  0.15402467974E+03  0.88020842311E+02 0.  0.
          5    1    3    3  502    0 -0.89923067353E+01  0.13702271147E+02 -0.32379701069E+01  0.17221227175E+02  0.41800000000E+01 0. -1.
         -5    1    3    3    0  502 -0.13216055222E+02 -0.35235753306E+02 -0.53056192235E+03  0.53191131618E+03  0.41800000000E+01 0. -1.
        -11    1    4    4    0    0  0.73177786698E+01  0.55349645014E+02 -0.81541230103E+02  0.98823606970E+02  0.00000000000E+00 0.  1.
         11    1    4    4    0    0  0.14890583287E+02 -0.33816162855E+02 -0.41010926525E+02  0.55201072773E+02  0.00000000000E+00 0. -1.
</event>
<event>
 8    1  0.3719512E-009  0.3341086E+03  0.7561462E-02  0.1069333E+00
         -2   -1    0    0    0  501 -0.00000000000E+00  0.00000000000E+00  0.10664022796E+03  0.10664022796E+03  0.00000000000E+00 0.  1.
          2   -1    0    0  501    0  0.00000000000E+00 -0.00000000000E+00 -0.10683318230E+04  0.10683318230E+04  0.00000000000E+00 0. -1.
         25    2    1    2    0    0 -0.54749722480E+02  0.31453821368E+03 -0.47685583057E+03  0.58734175930E+03  0.12508812531E+03 0.  0.
         23    2    1    2    0    0  0.54749722480E+02 -0.31453821368E+03 -0.48483576447E+03  0.58763029165E+03  0.91169189850E+02 0.  0.
          5    1    3    3  502    0  0.37418617679E+02  0.14379199614E+03 -0.21624769201E+03  0.26240584559E+03  0.41800000000E+01 0. -1.
         -5    1    3    3    0  502 -0.92168340159E+02  0.17074621754E+03 -0.26060813856E+03  0.32493591370E+03  0.41800000000E+01 0. -1.
        -11    1    4    4    0    0  0.67238997742E+02 -0.29286005813E+03 -0.40720173831E+03  0.50606457310E+03  0.00000000000E+00 0.  1.
         11    1    4    4    0    0 -0.12489275262E+02 -0.21678155553E+02 -0.77634026159E+02  0.81565718549E+02  0.00000000000E+00 0. -1.
</event>
<event>
 8    1  0.3719512E-009  0.1356185E+03  0.7561462E-02  0.1219349E+00
          2   -1    0    0  501    0  0.00000000000E+00  0.00000000000E+00  0.64284181476E+03  0.64284181476E+03  0.00000000000E+00 0. -1.
         -2   -1    0    0    0  501 -0.00000000000E+00 -0.00000000000E+00 -0.40701703262E+02  0.40701703262E+02  0.00000000000E+00 0.  1.
         25    2    1    2    0    0 -0.29741066671E+02 -0.10567146352E+03  0.41992445859E+03  0.45170209425E+03  0.12508893547E+03 0.  0.
         23    2    1    2    0    0  0.29741066671E+02  0.10567146352E+03  0.18221565291E+03  0.23184142377E+03  0.92178697996E+02 0.  0.
          5    1    3    3  502    0  0.23416424365E+02 -0.10468688349E+03  0.22013874162E+03  0.24492082490E+03  0.41800000000E+01 0.  1.
         -5    1    3    3    0  502 -0.53157491036E+02 -0.98458003048E+00  0.19978571697E+03  0.20678126935E+03  0.41800000000E+01 0.  1.
        -11    1    4    4    0    0  0.40180307853E+01  0.37041857427E+02  0.14486746442E+03  0.14958217146E+03  0.00000000000E+00 0. -1.
         11    1    4    4    0    0  0.25723035886E+02  0.68629606089E+02  0.37348188491E+02  0.82259252311E+02  0.00000000000E+00 0.  1.
</event>
<event>
 8    1  0.3719512E-009  0.9463069E+02  0.7561462E-02  0.1292010E+00
         -1   -1    0    0    0  501 -0.00000000000E+00  0.00000000000E+00  0.16691087925E+03  0.16691087925E+03  0.00000000000E+00 0.  1.
          1   -1    0    0  501    0  0.00000000000E+00 -0.00000000000E+00 -0.19457122140E+03  0.19457122140E+03  0.00000000000E+00 0. -1.
         25    2    1    2    0    0  0.82676488707E+01 -0.11221743449E+02  0.12844229313E+03  0.17983149736E+03  0.12509062010E+03 0.  0.
         23    2    1    2    0    0 -0.82676488707E+01  0.11221743449E+02 -0.15610263527E+03  0.18165060328E+03  0.91840227512E+02 0.  0.
          5    1    3    3  502    0  0.12480773186E+02  0.51071634859E+02  0.23700215067E+02  0.57820880145E+02  0.41800000000E+01 0.  1.
         -5    1    3    3    0  502 -0.42131243158E+01 -0.62293378308E+02  0.10474207806E+03  0.12201061722E+03  0.41800000000E+01 0.  1.
        -11    1    4    4    0    0 -0.37812120806E+02  0.20457019738E+02 -0.14061063008E+03  0.14703603446E+03  0.00000000000E+00 0. -1.
         11    1    4    4    0    0  0.29544471935E+02 -0.92352762892E+01 -0.15492005189E+02  0.34614568823E+02  0.00000000000E+00 0.  1.
</event>
<event>
 8    1  0.3719512E-009  0.8234017E+02  0.7561462E-02  0.1322539E+00
         -3   -1    0    0    0  501 -0.00000000000E+00  0.00000000000E+00  0.10358179168E+03  0.10358179168E+03  0.00000000000E+00 0.  1.
          3   -1    0    0  501    0  0.00000000000E+00 -0.00000000000E+00 -0.11468878241E+03  0.11468878241E+03  0.00000000000E+00 0. -1.
         25    2    1    2    0    0  0.48925140061E+01  0.18076659797E+02 -0.43580930604E+01  0.12655903425E+03  0.12508994305E+03 0.  0.
         23    2    1    2    0    0 -0.48925140061E+01 -0.18076659797E+02 -0.67488976630E+01  0.91711539844E+02  0.89525172986E+02 0.  0.
          5    1    3    3  502    0  0.38271281006E+02 -0.14513307880E+01  0.47864022594E+02  0.61442935882E+02  0.41800000000E+01 0. -1.
         -5    1    3    3    0  502 -0.33378767000E+02  0.19527990585E+02 -0.52222115655E+02  0.65116098364E+02  0.41800000000E+01 0. -1.
        -11    1    4    4    0    0 -0.76983419404E+01  0.34123882480E+02  0.10731337729E+02  0.36590510157E+02  0.00000000000E+00 0.  1.
         11    1    4    4    0    0  0.28058279343E+01 -0.52200542276E+02 -0.17480235392E+02  0.55121029686E+02  0.00000000000E+00 0. -1.
</event>
<event>
 8    1  0.3719512E-009  0.1275096E+03  0.7561462E-02  0.1231198E+00
          2   -1    0    0  501    0  0.00000000000E+00  0.00000000000E+00  0.32317230879E+03  0.32317230879E+03  0.00000000000E+00 0. -1.
         -2   -1    0    0    0  501 -0.00000000000E+00 -0.00000000000E+00 -0.51669054043E+02  0.51669054043E+02  0.00000000000E+00 0.  1.
         25    2    1    2    0    0 -0.57119503137E+02  0.42227787177E+02  0.15231501356E+03  0.20950156760E+03  0.12508085313E+03 0.  0.
         23    2    1    2    0    0  0.57119503137E+02 -0.42227787177E+02  0.11918824119E+03  0.16533979524E+03  0.89919894373E+02 0.  0.
          5    1    3    3  502    0 -0.71660139972E+02  0.75446709699E+02  0.91768933357E+02  0.13880342645E+03  0.41800000000E+01 0. -1.
         -5    1    3    3    0  502  0.14540636835E+02 -0.33218922522E+02  0.60546080206E+02  0.70698141145E+02  0.41800000000E+01 0. -1.
        -11    1    4    4    0    0  0.18422178186E+01  0.26283540422E+02  0.23321978284E+02  0.35187113190E+02  0.00000000000E+00 0.  1.
         11    1    4    4    0    0  0.55277285318E+02 -0.68511327599E+02  0.95866262905E+02  0.13015268205E+03  0.00000000000E+00 0. -1.
</event>
<event>
 8    1  0.3719512E-009  0.2959694E+03  0.7561462E-02  0.1087273E+00
         -1   -1    0    0    0  501 -0.00000000000E+00  0.00000000000E+00  0.47854072664E+02  0.47854072664E+02  0.00000000000E+00 0.  1.
          1   -1    0    0  501    0  0.00000000000E+00 -0.00000000000E+00 -0.21228878709E+04  0.21228878709E+04  0.00000000000E+00 0. -1.
         25    2    1    2    0    0 -0.21741568595E+03 -0.19508969947E+03 -0.81803467335E+03  0.87758639107E+03  0.12509027003E+03 0.  0.
         23    2    1    2    0    0  0.21741568595E+03  0.19508969947E+03 -0.12569991248E+04  0.12931555525E+04  0.82915086902E+02 0.  0.
          5    1    3    3  502    0 -0.21793897427E+03 -0.19112701043E+03 -0.67733640844E+03  0.73676930800E+03  0.41800000000E+01 0.  1.
         -5    1    3    3    0  502  0.52328831904E+00 -0.39626890472E+01 -0.14069826491E+03  0.14081708307E+03  0.41800000000E+01 0.  1.
        -11    1    4    4    0    0  0.13273562818E+03  0.86033229511E+02 -0.52753115305E+03  0.55073549097E+03  0.00000000000E+00 0. -1.
         11    1    4    4    0    0  0.84680057768E+02  0.10905646996E+03 -0.72946797180E+03  0.74242006149E+03  0.00000000000E+00 0.  1.
</event>
<event>
 8    1  0.3719512E-009  0.1135306E+03  0.7561462E-02  0.1254168E+00
         -3   -1    0    0    0  501 -0.00000000000E+00  0.00000000000E+00  0.82409270264E+02  0.82409270264E+02  0.00000000000E+00 0.  1.
          3   -1    0    0  501    0  0.00000000000E+00 -0.00000000000E+00 -0.24208859684E+03  0.24208859684E+03  0.00000000000E+00 0. -1.
         25    2    1    2    0    0  0.39536995523E+01 -0.88776009135E+02 -0.72659337929E+02  0.16977484729E+03  0.12508919955E+03 0.  0.
         23    2    1    2    0    0 -0.39536995523E+01  0.88776009135E+02 -0.87019988643E+02  0.15472301981E+03  0.92032184036E+02 0.  0.
          5    1    3    3  502    0 -0.21659021336E+02  0.13562098726E+02 -0.57569002201E+02  0.63124528842E+02  0.41800000000E+01 0. -1.
         -5    1    3    3    0  502  0.25612720888E+02 -0.10233810786E+03 -0.15090335728E+02  0.10665031844E+03  0.41800000000E+01 0. -1.
        -11    1    4    4    0    0 -0.16646973627E+02  0.21841872437E+02  0.15572636094E+02  0.31570494411E+02  0.00000000000E+00 0.  1.
         11    1    4    4    0    0  0.12693274075E+02  0.66934136698E+02 -0.10259262474E+03  0.12315252540E+03  0.00000000000E+00 0. -1.
</event>
<event>
 8    1  0.3719512E-009  0.9995769E+02  0.7561462E-02  0.1280385E+00
         -1   -1    0    0    0  501 -0.00000000000E+00  0.00000000000E+00  0.20612723152E+03  0.20612723152E+03  0.00000000000E+00 0.  1.
          1   -1    0    0  501    0  0.00000000000E+00 -0.00000000000E+00 -0.12824471815E+03  0.12824471815E+03  0.00000000000E+00 0. -1.
         25    2    1    2    0    0  0.62653226924E+02 -0.45241720871E+02 -0.52010956006E+02  0.15596495736E+03  0.12509071999E+03 0.  0.
         23    2    1    2    0    0 -0.62653226924E+02  0.45241720871E+02  0.12989346938E+03  0.17840699232E+03  0.94786609656E+02 0.  0.
          5    1    3    3  502    0  0.86589248675E+01  0.29042176877E+02 -0.56149624463E+02  0.63942769294E+02  0.41800000000E+01 0.  1.
         -5    1    3    3    0  502  0.53994302056E+02 -0.74283897749E+02  0.41386684568E+01  0.92022188063E+02  0.41800000000E+01 0.  1.
        -11    1    4    4    0    0 -0.51538555753E+02  0.35174031306E+02  0.14454708254E+03  0.15743981160E+03  0.00000000000E+00 0.  1.
         11    1    4    4    0    0 -0.11114671171E+02  0.10067689565E+02 -0.14653613162E+02  0.20967180715E+02  0.00000000000E+00 0. -1.
</event>
<event>
 8    1  0.3719512E-009  0.8992190E+02  0.7561462E-02  0.1303041E+00
          1   -1    0    0  501    0  0.00000000000E+00  0.00000000000E+00  0.31397540682E+03  0.31397540682E+03  0.00000000000E+00 0. -1.
         -1   -1    0    0    0  501 -0.00000000000E+00 -0.00000000000E+00 -0.41905496345E+02  0.41905496345E+02  0.00000000000E+00 0.  1.
         25    2    1    2    0    0  0.31735081365E+02 -0.84582587721E+01  0.14692616397E+03  0.19574300313E+03  0.12509743437E+03 0.  0.
         23    2    1    2    0    0 -0.31735081365E+02  0.84582587721E+01  0.12514374651E+03  0.16013790003E+03  0.94363828905E+02 0.  0.
          5    1    3    3  502    0  0.54598206514E+02  0.10420490227E+02  0.15501021286E+03  0.16472762143E+03  0.41800000000E+01 0.  1.
         -5    1    3    3    0  502 -0.22863125149E+02 -0.18878748999E+02 -0.80840488969E+01  0.31015381698E+02  0.41800000000E+01 0.  1.
        -11    1    4    4    0    0  0.24553494623E+02 -0.19458196137E+02  0.69398473329E+02  0.76142258934E+02  0.00000000000E+00 0. -1.
         11    1    4    4    0    0 -0.56288575989E+02  0.27916454909E+02  0.55745273176E+02  0.83995641095E+02  0.00000000000E+00 0.  1.
</event>
<event>
 8    1  0.3719512E-009  0.9178306E+02  0.7561462E-02  0.1298590E+00
         -1   -1    0    0    0  501 -0.00000000000E+00  0.00000000000E+00  0.42392465403E+02  0.42392465403E+02  0.00000000000E+00 0.  1.
          1   -1    0    0  501    0  0.00000000000E+00 -0.00000000000E+00 -0.31402140235E+03  0.31402140235E+03  0.00000000000E+00 0. -1.
         25    2    1    2    0    0 -0.37180597414E+02  0.22289787099E+01 -0.16072988746E+03  0.20704226478E+03  0.12508012436E+03 0.  0.
         23    2    1    2    0    0  0.37180597414E+02 -0.22289787099E+01 -0.11089904948E+03  0.14937160297E+03  0.92875784946E+02 0.  0.
          5    1    3    3  502    0  0.24049519314E+02  0.36763377276E+01  0.92150064895E+01  0.26349261525E+02  0.41800000000E+01 0.  1.
         -5    1    3    3    0  502 -0.61230116728E+02 -0.14473590177E+01 -0.16994489395E+03  0.18069300325E+03  0.41800000000E+01 0.  1.
        -11    1    4    4    0    0 -0.14807464240E+02 -0.33637071576E+02 -0.58843839502E+02  0.69378029871E+02  0.00000000000E+00 0. -1.
         11    1    4    4    0    0  0.51988061654E+02  0.31408092866E+02 -0.52055209979E+02  0.79993573104E+02  0.00000000000E+00 0.  1.
</event>
<event>
 8    1  0.3719512E-009  0.1196766E+03  0.7561462E-02  0.1243632E+00
          2   -1    0    0  501    0  0.00000000000E+00  0.00000000000E+00  0.78019361690E+03  0.78019361690E+03  0.00000000000E+00 0. -1.
         -2   -1    0    0    0  501 -0.00000000000E+00 -0.00000000000E+00 -0.30513829074E+02  0.30513829074E+02  0.00000000000E+00 0.  1.
         25    2    1    2    0    0 -0.25276619437E+02 -0.64562239563E+02  0.63401838113E+03  0.64994901325E+03  0.12508885623E+03 0.  0.
         23    2    1    2    0    0  0.25276619437E+02  0.64562239563E+02  0.11566140670E+03  0.16075843272E+03  0.87512984317E+02 0.  0.
          5    1    3    3  502    0 -0.71102801917E+02 -0.13368000071E+02  0.37511094101E+03  0.38204712057E+03  0.41800000000E+01 0.  1.
         -5    1    3    3    0  502  0.45826182480E+02 -0.51194239492E+02  0.25890744011E+03  0.26790189269E+03  0.41800000000E+01 0.  1.
        -11    1    4    4    0    0  0.42143160104E+02  0.68778121869E+02  0.11829068886E+03  0.14317528789E+03  0.00000000000E+00 0. -1.
         11    1    4    4    0    0 -0.16866540667E+02 -0.42158823059E+01 -0.26292821550E+01  0.17583144837E+02  0.00000000000E+00 0.  1.
</event>
<event>
 8    1  0.3719512E-009  0.1034204E+03  0.7561462E-02  0.1273263E+00
         -2   -1    0    0    0  501 -0.00000000000E+00  0.00000000000E+00  0.64789139432E+02  0.64789139432E+02  0.00000000000E+00 0.  1.
          2   -1    0    0  501    0  0.00000000000E+00 -0.00000000000E+00 -0.24415272215E+03  0.24415272215E+03  0.00000000000E+00 0. -1.
         25    2    1    2    0    0  0.30808368610E+02  0.31825182213E+02 -0.42512624882E+02  0.13933867278E+03  0.12508375058E+03 0.  0.
         23    2    1    2    0    0 -0.30808368610E+02 -0.31825182213E+02 -0.13685095784E+03  0.16960318880E+03  0.89861333131E+02 0.  0.
          5    1    3    3  502    0  0.39683771232E+02 -0.33342484269E+02 -0.51068799721E+02  0.72883589795E+02  0.41800000000E+01 0. -1.
         -5    1    3    3    0  502 -0.88754026221E+01  0.65167666482E+02  0.85561748397E+01  0.66455082983E+02  0.41800000000E+01 0. -1.
        -11    1    4    4    0    0  0.11928085803E+02  0.19062113542E+02 -0.76845215208E+02  0.80067662037E+02  0.00000000000E+00 0. -1.
         11    1    4    4    0    0 -0.42736454412E+02 -0.50887295755E+02 -0.60005742628E+02  0.89535526767E+02  0.00000000000E+00 0.  1.
</event>
<event>
 8    1  0.3719512E-009  0.9959155E+02  0.7561462E-02  0.1281157E+00
          4   -1    0    0  501    0  0.00000000000E+00  0.00000000000E+00  0.19720323416E+03  0.19720323416E+03  0.00000000000E+00 0. -1.
         -4   -1    0    0    0  501 -0.00000000000E+00 -0.00000000000E+00 -0.76986059226E+02  0.76986059226E+02  0.00000000000E+00 0.  1.
         25    2    1    2    0    0 -0.13026459961E+02  0.29248253777E+02  0.12168324843E+03  0.17743339176E+03  0.12510254416E+03 0.  0.
         23    2    1    2    0    0  0.13026459961E+02 -0.29248253777E+02 -0.14660734908E+01  0.96755901631E+02  0.91292968627E+02 0.  0.
          5    1    3    3  502    0 -0.56045546772E+02  0.26152602743E+02  0.11880642016E+03  0.13400559621E+03  0.41800000000E+01 0.  1.
         -5    1    3    3    0  502  0.43019086811E+02  0.30956510339E+01  0.28768282630E+01  0.43427795549E+02  0.41800000000E+01 0.  1.
        -11    1    4    4    0    0  0.50132847347E+02 -0.70580986278E+01  0.10899182534E+02  0.51787173308E+02  0.00000000000E+00 0.  1.
         11    1    4    4    0    0 -0.37106387386E+02 -0.22190155149E+02 -0.12365256025E+02  0.44968728322E+02  0.00000000000E+00 0. -1.
</event>
<event>
 8    1  0.3719512E-009  0.2734836E+03  0.7561462E-02  0.1099302E+00
         -2   -1    0    0    0  501 -0.00000000000E+00  0.00000000000E+00  0.15136582349E+03  0.15136582349E+03  0.00000000000E+00 0.  1.
          2   -1    0    0  501    0  0.00000000000E+00 -0.00000000000E+00 -0.67229347136E+03  0.67229347136E+03  0.00000000000E+00 0. -1.
         25    2    1    2    0    0  0.38755843440E+02 -0.25003542384E+03 -0.58040324869E+02  0.28815918641E+03  0.12508920347E+03 0.  0.
         23    2    1    2    0    0 -0.38755843440E+02  0.25003542384E+03 -0.46288732300E+03  0.53550010844E+03  0.92064997512E+02 0.  0.
          5    1    3    3  502    0  0.16623245067E+02 -0.25457250223E+03 -0.66504094747E+02  0.26367358265E+03  0.41800000000E+01 0.  1.
         -5    1    3    3    0  502  0.22132598372E+02  0.45370783879E+01  0.84637698782E+01  0.24485603761E+02  0.41800000000E+01 0.  1.
        -11    1    4    4    0    0  0.57855638429E+01  0.20642416587E+03 -0.36762811356E+03  0.42165725285E+03  0.00000000000E+00 0. -1.
         11    1    4    4    0    0 -0.44541407283E+02  0.43611257970E+02 -0.95259209440E+02  0.11384285558E+03  0.00000000000E+00 0.  1.
</event>
<event>
 8    1  0.3719512E-009  0.1162255E+03  0.7561462E-02  0.1249457E+00
          3   -1    0    0  501    0  0.00000000000E+00  0.00000000000E+00  0.11848628076E+03  0.11848628076E+03  0.00000000000E+00 0. -1.
         -3   -1    0    0    0  501 -0.00000000000E+00 -0.00000000000E+00 -0.12544408195E+03  0.12544408195E+03  0.00000000000E+00 0.  1.
         25    2    1    2    0    0 -0.48101244704E+02  0.25894119601E+02  0.53858949010E+01  0.13660732984E+03  0.12509324334E+03 0.  0.
         23    2    1    2    0    0  0.48101244704E+02 -0.25894119601E+02 -0.12343696093E+02  0.10732303287E+03  0.91551250014E+02 0.  0.
          5    1    3    3  502    0 -0.34373047699E+02 -0.43557875530E+02 -0.23010837865E+02  0.60214333743E+02  0.41800000000E+01 0.  1.
         -5    1    3    3    0  502 -0.13728197004E+02  0.69451995132E+02  0.28396732766E+02  0.76392996096E+02  0.41800000000E+01 0.  1.
        -11    1    4    4    0    0  0.73269846228E+01 -0.55193904187E+02 -0.12716856647E+02  0.57111909494E+02  0.00000000000E+00 0.  1.
         11    1    4    4    0    0  0.40774260081E+02  0.29299784585E+02  0.37316055461E+00  0.50211123376E+02  0.00000000000E+00 0. -1.
</event>
<event>
 8    1  0.3719512E-009  0.7238556E+02  0.7561462E-02  0.1352164E+00
         -4   -1    0    0    0  501 -0.00000000000E+00  0.00000000000E+00  0.69235444873E+02  0.69235444873E+02  0.00000000000E+00 0.  1.
          4   -1    0    0  501    0  0.00000000000E+00 -0.00000000000E+00 -0.21164835104E+03  0.21164835104E+03  0.00000000000E+00 0. -1.
         25    2    1    2    0    0  0.26605698432E+02 -0.88450840457E+00 -0.27272799394E+02  0.13077699134E+03  0.12510064082E+03 0.  0.
         23    2    1    2    0    0 -0.26605698432E+02  0.88450840457E+00 -0.11514010677E+03  0.15010680457E+03  0.92553568525E+02 0.  0.
          5    1    3    3  502    0  0.33757019912E+02  0.29026151142E+02  0.37883587119E+02  0.58606248954E+02  0.41800000000E+01 0.  1.
         -5    1    3    3    0  502 -0.71513214798E+01 -0.29910659546E+02 -0.65156386513E+02  0.72170742388E+02  0.41800000000E+01 0.  1.
        -11    1    4    4    0    0  0.12467491258E+02  0.21490288288E+02 -0.10056828412E+03  0.10359174967E+03  0.00000000000E+00 0. -1.
         11    1    4    4    0    0 -0.39073189690E+02 -0.20605779884E+02 -0.14571822656E+02  0.46515054903E+02  0.00000000000E+00 0.  1.
</event>
<event>
 8    1  0.3719512E-009  0.1214409E+03  0.7561462E-02  0.1240739E+00
          3   -1    0    0  501    0  0.00000000000E+00  0.00000000000E+00  0.40394958175E+02  0.40394958175E+02  0.00000000000E+00 0. -1.
         -3   -1    0    0    0  501 -0.00000000000E+00 -0.00000000000E+00 -0.69380344629E+03  0.69380344629E+03  0.00000000000E+00 0.  1.
         25    2    1    2    0    0 -0.11083455701E+03 -0.12326555791E+02 -0.21453501739E+03  0.27223007811E+03  0.12509076199E+03 0.  0.
         23    2    1    2    0    0  0.11083455701E+03  0.12326555791E+02 -0.43887347072E+03  0.46196832635E+03  0.91479878898E+02 0.  0.
          5    1    3    3  502    0 -0.89385389664E+02  0.98966066224E+01 -0.22253168501E+03  0.24005314816E+03  0.41800000000E+01 0. -1.
         -5    1    3    3    0  502 -0.21449167345E+02 -0.22223162413E+02  0.79966676280E+01  0.32176929944E+02  0.41800000000E+01 0. -1.
        -11    1    4    4    0    0  0.52048042638E+02  0.30284521667E+02 -0.34184389085E+03  0.34710718331E+03  0.00000000000E+00 0.  1.
         11    1    4    4    0    0  0.58786514370E+02 -0.17957965876E+02 -0.97029579873E+02  0.11486114304E+03  0.00000000000E+00 0. -1.
</event>
<event>
 8    1  0.3719512E-009  0.1640125E+03  0.7561462E-02  0.1184240E+00
         -2   -1    0    0    0  501 -0.00000000000E+00  0.00000000000E+00  0.22686073243E+02  0.22686073243E+02  0.00000000000E+00 0.  1.
          2   -1    0    0  501    0  0.00000000000E+00 -0.00000000000E+00 -0.15933289226E+04  0.15933289226E+04  0.00000000000E+00 0. -1.
         25    2    1    2    0    0 -0.55368938990E+02  0.14222336735E+03 -0.99326839856E+03  0.10126807008E+04  0.12508750768E+03 0.  0.
         23    2    1    2    0    0  0.55368938990E+02 -0.14222336735E+03 -0.57737445079E+03  0.60333429504E+03  0.85777674913E+02 0.  0.
          5    1    3    3  502    0 -0.60249489755E+02  0.11418970848E+03 -0.43758856994E+03  0.45625707609E+03  0.41800000000E+01 0. -1.
         -5    1    3    3    0  502  0.48805507654E+01  0.28033658864E+02 -0.55567982863E+03  0.55642362472E+03  0.41800000000E+01 0. -1.
        -11    1    4    4    0    0 -0.14589337341E+02 -0.61778405963E+02 -0.15030483809E+03  0.16315932263E+03  0.00000000000E+00 0. -1.
         11    1    4    4    0    0  0.69958276331E+02 -0.80444961384E+02 -0.42706961270E+03  0.44017497241E+03  0.00000000000E+00 0.  1.
</event>
<event>
 8    1  0.3719512E-009  0.2364737E+03  0.7561462E-02  0.1122165E+00
         -2   -1    0    0    0  501 -0.00000000000E+00  0.00000000000E+00  0.13108162541E+03  0.13108162541E+03  0.00000000000E+00 0.  1.
          2   -1    0    0  501    0  0.00000000000E+00 -0.00000000000E+00 -0.45967337784E+03  0.45967337784E+03  0.00000000000E+00 0. -1.
         25    2    1    2    0    0 -0.18683124516E+03 -0.10733092626E+03 -0.13296219414E+03  0.28240384468E+03  0.12508854671E+03 0.  0.
         23    2    1    2    0    0  0.18683124516E+03  0.10733092626E+03 -0.19562955828E+03  0.30835115857E+03  0.10190029937E+03 0.  0.
          5    1    3    3  502    0 -0.10270463590E+03 -0.43737810197E+01 -0.10394956093E+03  0.14625442152E+03  0.41800000000E+01 0. -1.
         -5    1    3    3    0  502 -0.84126609260E+02 -0.10295714524E+03 -0.29012633210E+02  0.13614942316E+03  0.41800000000E+01 0. -1.
        -11    1    4    4    0    0  0.10848236953E+03  0.55851609707E+01 -0.73681065829E+02  0.13125744925E+03  0.00000000000E+00 0.  1.
         11    1    4    4    0    0  0.78348875638E+02  0.10174576529E+03 -0.12194849246E+03  0.17709370932E+03  0.00000000000E+00 0. -1.
</event>
<event>
 8    1  0.3719512E-009  0.1372261E+03  0.7561462E-02  0.1217111E+00
          1   -1    0    0  501    0  0.00000000000E+00  0.00000000000E+00  0.49551355883E+03  0.49551355883E+03  0.00000000000E+00 0. -1.
         -1   -1    0    0    0  501 -0.00000000000E+00 -0.00000000000E+00 -0.39161194654E+02  0.39161194654E+02  0.00000000000E+00 0.  1.
         25    2    1    2    0    0  0.85132668195E+02  0.14679188094E+02  0.27047122425E+03  0.31026716678E+03  0.12509189371E+03 0.  0.
         23    2    1    2    0    0 -0.85132668195E+02 -0.14679188094E+02  0.18588113992E+03  0.22440758671E+03  0.91345043851E+02 0.  0.
          5    1    3    3  502    0  0.11587215451E+03  0.18752265074E+02  0.23663947159E+03  0.26418500251E+03  0.41800000000E+01 0. -1.
         -5    1    3    3    0  502 -0.30739486318E+02 -0.40730769793E+01  0.33831752661E+02  0.46082164264E+02  0.41800000000E+01 0. -1.
        -11    1    4    4    0    0  0.17912278791E+02  0.88996259621E+01  0.30910990514E+02  0.36817691512E+02  0.00000000000E+00 0. -1.
         11    1    4    4    0    0 -0.10304494699E+03 -0.23578814057E+02  0.15497014941E+03  0.18758989520E+03  0.00000000000E+00 0.  1.
</event>
<event>
 8    1  0.3719512E-009  0.9829849E+02  0.7561462E-02  0.1283915E+00
          1   -1    0    0  501    0  0.00000000000E+00  0.00000000000E+00  0.60781760614E+02  0.60781760614E+02  0.00000000000E+00 0. -1.
         -1   -1    0    0    0  501 -0.00000000000E+00 -0.00000000000E+00 -0.44683759547E+03  0.44683759547E+03  0.00000000000E+00 0.  1.
         25    2    1    2    0    0  0.81060355283E+02 -0.29523843871E+02 -0.69262320611E+02  0.16699437798E+03  0.12508962653E+03 0.  0.
         23    2    1    2    0    0 -0.81060355283E+02  0.29523843871E+02 -0.31679351424E+03  0.34062497809E+03  0.90690718830E+02 0.  0.
          5    1    3    3  502    0  0.75459866722E+02 -0.33807643758E+02  0.13449017358E+02  0.83877867939E+02  0.41800000000E+01 0. -1.
         -5    1    3    3    0  502  0.56004885617E+01  0.42837998868E+01 -0.82711337969E+02  0.83116510046E+02  0.41800000000E+01 0. -1.
        -11    1    4    4    0    0 -0.34780752417E+02 -0.18093507763E+02 -0.21859617446E+03  0.22208413552E+03  0.00000000000E+00 0.  1.
         11    1    4    4    0    0 -0.46279602866E+02  0.47617351634E+02 -0.98197339780E+02  0.11854084257E+03  0.00000000000E+00 0. -1.
</event>
<event>
 8    1  0.3719512E-009  0.1278232E+03  0.7561462E-02  0.1230722E+00
          1   -1    0    0  501    0  0.00000000000E+00  0.00000000000E+00  0.24779068063E+03  0.24779068063E+03  0.00000000000E+00 0. -1.
         -1   -1    0    0    0  501 -0.00000000000E+00 -0.00000000000E+00 -0.10282498044E+03  0.10282498044E+03  0.00000000000E+00 0.  1.
         25    2    1    2    0    0  0.22154723697E+02 -0.64671673553E+02  0.18031680045E+03  0.22985789923E+03  0.12508896103E+03 0.  0.
         23    2    1    2    0    0 -0.22154723697E+02  0.64671673553E+02 -0.35351100261E+02  0.12075776184E+03  0.93056324943E+02 0.  0.
          5    1    3    3  502    0 -0.47896098115E+02 -0.52591381941E+01  0.43716262451E+02  0.65194161946E+02  0.41800000000E+01 0. -1.
         -5    1    3    3    0  502  0.70050821812E+02 -0.59412535359E+02  0.13660053800E+03  0.16466373728E+03  0.41800000000E+01 0. -1.
        -11    1    4    4    0    0  0.36668243964E+02  0.24301636504E+02 -0.16318004308E+02  0.46919152984E+02  0.00000000000E+00 0.  1.
         11    1    4    4    0    0 -0.58822967660E+02  0.40370037049E+02 -0.19033095953E+02  0.73838608853E+02  0.00000000000E+00 0. -1.
</event>
<event>
 8    1  0.3719512E-009  0.9570648E+02  0.7561462E-02  0.1289593E+00
          2   -1    0    0  501    0  0.00000000000E+00  0.00000000000E+00  0.30310251862E+03  0.30310251862E+03  0.00000000000E+00 0. -1.
         -2   -1    0    0    0  501 -0.00000000000E+00 -0.00000000000E+00 -0.60643031450E+02  0.60643031450E+02  0.00000000000E+00 0.  1.
         25    2    1    2    0    0  0.33060465181E+02  0.29837631694E+02  0.22204340828E+03  0.25871894515E+03  0.12509571853E+03 0.  0.
         23    2    1    2    0    0 -0.33060465181E+02 -0.29837631694E+02  0.20416078888E+02  0.10502660492E+03  0.92900445857E+02 0.  0.
          5    1    3    3  502    0  0.95240224859E+01 -0.46990509704E+02  0.53546261112E+02  0.71996454674E+02  0.41800000000E+01 0. -1.
         -5    1    3    3    0  502  0.23536442695E+02  0.76828141398E+02  0.16849714717E+03  0.18672249048E+03  0.41800000000E+01 0. -1.
        -11    1    4    4    0    0 -0.23257159278E+02 -0.41509825693E+02 -0.27354014533E+02  0.54883542140E+02  0.00000000000E+00 0.  1.
         11    1    4    4    0    0 -0.98033059026E+01  0.11672193999E+02  0.47770093421E+02  0.50143062779E+02  0.00000000000E+00 0. -1.
</event>
<event>
 8    1  0.3719512E-009  0.1552717E+03  0.7561462E-02  0.1194141E+00
         -1   -1    0    0    0  501 -0.00000000000E+00  0.00000000000E+00  0.29213866852E+02  0.29213866852E+02  0.00000000000E+00 0.  1.
          1   -1    0    0  501    0  0.00000000000E+00 -0.00000000000E+00 -0.12194517316E+04  0.12194517316E+04  0.00000000000E+00 0. -1.
         25    2    1    2    0    0 -0.98685000343E+01 -0.14621143141E+03 -0.46270250935E+03  0.50121302338E+03  0.12508282328E+03 0.  0.
         23    2    1    2    0    0  0.98685000343E+01  0.14621143141E+03 -0.72753535544E+03  0.74745257511E+03  0.88895942894E+02 0.  0.
          5    1    3    3  502    0 -0.16900247222E+02 -0.15251199958E+03 -0.46579329077E+03  0.49043489935E+03  0.41800000000E+01 0. -1.
         -5    1    3    3    0  502  0.70317471875E+01  0.63005681721E+01  0.30907814223E+01  0.10778124030E+02  0.41800000000E+01 0. -1.
        -11    1    4    4    0    0  0.49060119711E+01  0.30022133795E+02 -0.40544017643E+02  0.50687422875E+02  0.00000000000E+00 0.  1.
         11    1    4    4    0    0  0.49624880632E+01  0.11618929761E+03 -0.68699133779E+03  0.69676515224E+03  0.00000000000E+00 0. -1.
</event>
<event>
 8    1  0.3719512E-009  0.1225891E+03  0.7561462E-02  0.1238886E+00
         -2   -1    0    0    0  501 -0.00000000000E+00  0.00000000000E+00  0.11304167123E+02  0.11304167123E+02  0.00000000000E+00 0.  1.
          2   -1    0    0  501    0  0.00000000000E+00 -0.00000000000E+00 -0.27185142922E+04  0.27185142922E+04  0.00000000000E+00 0. -1.
         25    2    1    2    0    0 -0.32208839353E+02  0.58303801158E+02 -0.23759644095E+04  0.23801871109E+04  0.12508823020E+03 0.  0.
         23    2    1    2    0    0  0.32208839353E+02 -0.58303801158E+02 -0.33124571560E+03  0.34963134840E+03  0.89897792628E+02 0.  0.
          5    1    3    3  502    0 -0.31244967150E+02 -0.35263055708E+02 -0.68558614328E+03  0.68721580550E+03  0.41800000000E+01 0. -1.
         -5    1    3    3    0  502 -0.96387220393E+00  0.93566856866E+02 -0.16903782662E+04  0.16929713054E+04  0.41800000000E+01 0. -1.
        -11    1    4    4    0    0 -0.10669292028E+02 -0.60351098492E+02 -0.12818256409E+03  0.14208046529E+03  0.00000000000E+00 0. -1.
         11    1    4    4    0    0  0.42878131382E+02  0.20472973340E+01 -0.20306315151E+03  0.20755088310E+03  0.00000000000E+00 0.  1.
</event>
<event>
 8    1  0.3719512E-009  0.1175313E+03  0.7561462E-02  0.1247226E+00
          1   -1    0    0  501    0  0.00000000000E+00  0.00000000000E+00  0.38898024197E+03  0.38898024197E+03  0.00000000000E+00 0. -1.
         -1   -1    0    0    0  501 -0.00000000000E+00 -0.00000000000E+00 -0.42263204402E+02  0.42263204402E+02  0.00000000000E+00 0.  1.
         25    2    1    2    0    0 -0.39652202057E+02  0.34972120932E+02  0.26324995603E+03  0.29621449156E+03  0.12508852581E+03 0.  0.
         23    2    1    2    0    0  0.39652202057E+02 -0.34972120932E+02  0.83467081538E+02  0.13502895481E+03  0.92036506707E+02 0.  0.
          5    1    3    3  502    0 -0.23756856315E+02  0.78643635667E+02  0.20929967488E+03  0.22488449470E+03  0.41800000000E+01 0. -1.
         -5    1    3    3    0  502 -0.15895345742E+02 -0.43671514735E+02  0.53950281149E+02  0.71329996856E+02  0.41800000000E+01 0. -1.
        -11    1    4    4    0    0  0.82770431364E+01  0.31535699190E+02  0.25384484624E+02  0.41320477080E+02  0.00000000000E+00 0. -1.
         11    1    4    4    0    0  0.31375158920E+02 -0.66507820122E+02  0.58082596914E+02  0.93708477732E+02  0.00000000000E+00 0.  1.
</event>
<event>
 8    1  0.3719512E-009  0.1033034E+03  0.7561462E-02  0.1273499E+00
         -1   -1    0    0    0  501 -0.00000000000E+00  0.00000000000E+00  0.27401481671E+02  0.27401481671E+02  0.00000000000E+00 0.  1.
          1   -1    0    0  501    0  0.00000000000E+00 -0.00000000000E+00 -0.62206042138E+03  0.62206042138E+03  0.00000000000E+00 0. -1.
         25    2    1    2    0    0 -0.38135196483E+02  0.20752963700E+02 -0.47414366461E+03  0.49228597562E+03  0.12509311888E+03 0.  0.
         23    2    1    2    0    0  0.38135196483E+02 -0.20752963700E+02 -0.12051527510E+03  0.15717592743E+03  0.91078877454E+02 0.  0.
          5    1    3    3  502    0 -0.66288413080E+02  0.35673144476E+02 -0.43572338626E+03  0.44219799715E+03  0.41800000000E+01 0.  1.
         -5    1    3    3    0  502  0.28153216598E+02 -0.14920180775E+02 -0.38420278342E+02  0.50087978468E+02  0.41800000000E+01 0.  1.
        -11    1    4    4    0    0  0.63192356636E+02  0.46919024264E+01 -0.62185407136E+02  0.88782389843E+02  0.00000000000E+00 0.  1.
         11    1    4    4    0    0 -0.25057160153E+02 -0.25444866127E+02 -0.58329867965E+02  0.68393537589E+02  0.00000000000E+00 0. -1.
</event>
<event>
 8    1  0.3719512E-009  0.1094618E+03  0.7561462E-02  0.1261570E+00
          2   -1    0    0  501    0  0.00000000000E+00  0.00000000000E+00  0.18623451001E+03  0.18623451001E+03  0.00000000000E+00 0. -1.
         -2   -1    0    0    0  501 -0.00000000000E+00 -0.00000000000E+00 -0.74246833396E+02  0.74246833396E+02  0.00000000000E+00 0.  1.
         25    2    1    2    0    0 -0.39412754782E+01  0.45099414150E+02  0.65876449163E+02  0.14845292786E+03  0.12509626064E+03 0.  0.
         23    2    1    2    0    0  0.39412754782E+01 -0.45099414150E+02  0.46111227448E+02  0.11202841555E+03  0.91513003361E+02 0.  0.
          5    1    3    3  502    0  0.22140108473E+02  0.80688958449E+02  0.23207229351E+02  0.86930663824E+02  0.41800000000E+01 0. -1.
         -5    1    3    3    0  502 -0.26081383951E+02 -0.35589544298E+02  0.42669219812E+02  0.61522264031E+02  0.41800000000E+01 0. -1.
        -11    1    4    4    0    0  0.39669783685E+02 -0.10374146611E+02 -0.42040964699E+01  0.41218795259E+02  0.00000000000E+00 0.  1.
         11    1    4    4    0    0 -0.35728508207E+02 -0.34725267540E+02  0.50315323918E+02  0.70809620288E+02  0.00000000000E+00 0. -1.
</event>
<event>
 8    1  0.3719512E-009  0.1358776E+03  0.7561462E-02  0.1218986E+00
          2   -1    0    0  501    0  0.00000000000E+00  0.00000000000E+00  0.79797096797E+03  0.79797096797E+03  0.00000000000E+00 0. -1.
         -2   -1    0    0    0  501 -0.00000000000E+00 -0.00000000000E+00 -0.29645488597E+02  0.29645488597E+02  0.00000000000E+00 0.  1.
         25    2    1    2    0    0 -0.60878890200E+02 -0.88540894532E+02  0.47435685298E+03  0.50220112139E+03  0.12508322459E+03 0.  0.
         23    2    1    2    0    0  0.60878890200E+02  0.88540894532E+02  0.29396862639E+03  0.32541533518E+03  0.89060977946E+02 0.  0.
          5    1    3    3  502    0 -0.38154570093E+02 -0.11922687420E+03  0.38720959451E+03  0.40696383283E+03  0.41800000000E+01 0.  1.
         -5    1    3    3    0  502 -0.22724320107E+02  0.30685979667E+02  0.87147258474E+02  0.95237288559E+02  0.41800000000E+01 0.  1.
        -11    1    4    4    0    0  0.35592722713E+02  0.61584800922E+02  0.75063768909E+02  0.10341227692E+03  0.00000000000E+00 0.  1.
         11    1    4    4    0    0  0.25286167486E+02  0.26956093611E+02  0.21890485748E+03  0.22200305826E+03  0.00000000000E+00 0. -1.
</event>
<event>
 8    1  0.3719512E-009  0.1226734E+03  0.7561462E-02  0.1238751E+00
          2   -1    0    0  501    0  0.00000000000E+00  0.00000000000E+00  0.28506351616E+03  0.28506351616E+03  0.00000000000E+00 0. -1.
         -2   -1    0    0    0  501 -0.00000000000E+00 -0.00000000000E+00 -0.82811962171E+02  0.82811962171E+02  0.00000000000E+00 0.  1.
         25    2    1    2    0    0 -0.63219064864E+02 -0.64564910352E+02  0.18305156245E+03  0.23941570608E+03  0.12508688177E+03 0.  0.
         23    2    1    2    0    0  0.63219064864E+02  0.64564910352E+02  0.19199991540E+02  0.12845977225E+03  0.89263629775E+02 0.  0.
          5    1    3    3  502    0 -0.63456531684E+02 -0.21591867209E+01  0.16096341224E+03  0.17308404311E+03  0.41800000000E+01 0. -1.
         -5    1    3    3    0  502  0.23746681973E+00 -0.62405723631E+02  0.22088150213E+02  0.66331662969E+02  0.41800000000E+01 0. -1.
        -11    1    4    4    0    0  0.76672903870E+02  0.70781637766E+02  0.18278549511E+00  0.10434945061E+03  0.00000000000E+00 0.  1.
         11    1    4    4    0    0 -0.13453839006E+02 -0.62167274140E+01  0.19017206045E+02  0.24110321638E+02  0.00000000000E+00 0. -1.
</event>
<event>
 8    1  0.3719512E-009  0.9046664E+02  0.7561462E-02  0.1301726E+00
          1   -1    0    0  501    0  0.00000000000E+00  0.00000000000E+00  0.51143801882E+02  0.51143801882E+02  0.00000000000E+00 0. -1.
         -1   -1    0    0    0  501 -0.00000000000E+00 -0.00000000000E+00 -0.26602284673E+03  0.26602284673E+03  0.00000000000E+00 0.  1.
         25    2    1    2    0    0  0.64037743912E+01  0.26708322276E+02 -0.17038435279E+03  0.21315294259E+03  0.12509598896E+03 0.  0.
         23    2    1    2    0    0 -0.64037743912E+01 -0.26708322276E+02 -0.44494692058E+02  0.10401370602E+03  0.89915130059E+02 0.  0.
          5    1    3    3  502    0  0.58518751511E+02 -0.11771418169E+02 -0.57803822906E+02  0.83197144823E+02  0.41800000000E+01 0. -1.
         -5    1    3    3    0  502 -0.52114977119E+02  0.38479740445E+02 -0.11258052988E+03  0.12995579777E+03  0.41800000000E+01 0. -1.
        -11    1    4    4    0    0 -0.13463503536E+02  0.11265696187E+02 -0.59908044257E+02  0.62427202442E+02  0.00000000000E+00 0.  1.
         11    1    4    4    0    0  0.70597291449E+01 -0.37974018463E+02  0.15413352199E+02  0.41586503578E+02  0.00000000000E+00 0. -1.
</event>
<event>
 8    1  0.3719512E-009  0.2199245E+03  0.7561462E-02  0.1133939E+00
          4   -1    0    0  501    0  0.00000000000E+00  0.00000000000E+00  0.46492356575E+03  0.46492356575E+03  0.00000000000E+00 0. -1.
         -4   -1    0    0    0  501 -0.00000000000E+00 -0.00000000000E+00 -0.13180055090E+03  0.13180055090E+03  0.00000000000E+00 0.  1.
         25    2    1    2    0    0  0.17937619236E+03  0.12237103896E+03  0.11813370631E+03  0.27704414994E+03  0.12508956346E+03 0.  0.
         23    2    1    2    0    0 -0.17937619236E+03 -0.12237103896E+03  0.21498930854E+03  0.31967996672E+03  0.93938217844E+02 0.  0.
          5    1    3    3  502    0  0.20550598165E+02  0.10621576195E+02  0.74279484153E+02  0.77910584209E+02  0.41800000000E+01 0.  1.
         -5    1    3    3    0  502  0.15882559419E+03  0.11174946276E+03  0.43854222156E+02  0.19913356573E+03  0.41800000000E+01 0.  1.
        -11    1    4    4    0    0 -0.99496263106E+02 -0.95247261119E+02  0.76596418155E+02  0.15760253296E+03  0.00000000000E+00 0.  1.
         11    1    4    4    0    0 -0.79879929254E+02 -0.27123777837E+02  0.13839289039E+03  0.16207743375E+03  0.00000000000E+00 0. -1.
</event>
<event>
 8    1  0.3719512E-009  0.1807851E+03  0.7561462E-02  0.1167045E+00
          1   -1    0    0  501    0  0.00000000000E+00  0.00000000000E+00  0.78804854308E+03  0.78804854308E+03  0.00000000000E+00 0. -1.
         -1   -1    0    0    0  501 -0.00000000000E+00 -0.00000000000E+00 -0.47332384650E+02  0.47332384650E+02  0.00000000000E+00 0.  1.
         25    2    1    2    0    0 -0.51379780299E+02  0.14782084731E+03  0.30564127206E+03  0.36545231365E+03  0.12509165297E+03 0.  0.
         23    2    1    2    0    0  0.51379780299E+02 -0.14782084731E+03  0.43507488636E+03  0.46992861407E+03  0.83975358622E+02 0.  0.
          5    1    3    3  502    0 -0.21545195618E+02  0.16231920979E+03  0.27509332119E+03  0.32016484673E+03  0.41800000000E+01 0.  1.
         -5    1    3    3    0  502 -0.29834584681E+02 -0.14498362477E+02  0.30547950878E+02  0.45287466924E+02  0.41800000000E+01 0.  1.
        -11    1    4    4    0    0  0.51297306465E+02 -0.71383321203E+02  0.31943743302E+03  0.33131143326E+03  0.00000000000E+00 0. -1.
         11    1    4    4    0    0  0.82473833940E-01 -0.76437526109E+02  0.11563745334E+03  0.13861718081E+03  0.00000000000E+00 0.  1.
</event>
<event>
 8    1  0.3719512E-009  0.1058494E+03  0.7561462E-02  0.1268455E+00
         -2   -1    0    0    0  501 -0.00000000000E+00  0.00000000000E+00  0.16538734007E+03  0.16538734007E+03  0.00000000000E+00 0. -1.
          2   -1    0    0  501    0  0.00000000000E+00 -0.00000000000E+00 -0.14887213445E+03  0.14887213445E+03  0.00000000000E+00 0.  1.
         25    2    1    2    0    0 -0.17713076067E+01  0.96751593723E+02  0.67053316908E+02  0.17177837694E+03  0.12509058741E+03 0.  0.
         23    2    1    2    0    0  0.17713076067E+01 -0.96751593723E+02 -0.50538111289E+02  0.14248109757E+03  0.91557381214E+02 0.  0.
          5    1    3    3  502    0  0.23364577681E+02  0.61121815807E+02 -0.24730664481E+02  0.70077514392E+02  0.41800000000E+01 0. -1.
         -5    1    3    3    0  502 -0.25135885287E+02  0.35629777916E+02  0.91783981389E+02  0.10170086255E+03  0.41800000000E+01 0. -1.
        -11    1    4    4    0    0  0.16640327723E+02 -0.34221517076E+02 -0.66172255232E+02  0.76333348546E+02  0.00000000000E+00 0.  1.
         11    1    4    4    0    0 -0.14869020116E+02 -0.62530076647E+02  0.15634143943E+02  0.66147749028E+02  0.00000000000E+00 0. -1.
</event>
<event>
 8    1  0.3719512E-009  0.9255209E+02  0.7561462E-02  0.1296787E+00
          1   -1    0    0  501    0  0.00000000000E+00  0.00000000000E+00  0.10416604194E+04  0.10416604194E+04  0.00000000000E+00 0. -1.
         -1   -1    0    0    0  501 -0.00000000000E+00 -0.00000000000E+00 -0.13075752481E+02  0.13075752481E+02  0.00000000000E+00 0.  1.
         25    2    1    2    0    0 -0.25950014507E+02  0.29612926492E+02  0.65469969585E+03  0.66770463350E+03  0.12508979644E+03 0.  0.
         23    2    1    2    0    0  0.25950014507E+02 -0.29612926492E+02  0.37388497102E+03  0.38703153834E+03  0.91940804036E+02 0.  0.
          5    1    3    3  502    0 -0.32702433839E+02  0.55571024497E+02  0.16422349137E+03  0.17647780444E+03  0.41800000000E+01 0. -1.
         -5    1    3    3    0  502  0.67524193321E+01 -0.25958098005E+02  0.49047620448E+03  0.49122682905E+03  0.41800000000E+01 0. -1.
        -11    1    4    4    0    0  0.52121475175E+02  0.21768079645E+01  0.13703172801E+03  0.14662564970E+03  0.00000000000E+00 0. -1.
         11    1    4    4    0    0 -0.26171460668E+02 -0.31789734456E+02  0.23685324301E+03  0.24040588865E+03  0.00000000000E+00 0.  1.
</event>
<event>
 8    1  0.3719512E-009  0.1585806E+03  0.7561462E-02  0.1190309E+00
         -2   -1    0    0    0  501 -0.00000000000E+00  0.00000000000E+00  0.14357911357E+02  0.14357911357E+02  0.00000000000E+00 0.  1.
          2   -1    0    0  501    0  0.00000000000E+00 -0.00000000000E+00 -0.18872789968E+04  0.18872789968E+04  0.00000000000E+00 0. -1.
         25    2    1    2    0    0 -0.37135935532E+02 -0.11520885961E+03 -0.11456350591E+04  0.11587836249E+04  0.12509053379E+03 0.  0.
         23    2    1    2    0    0  0.37135935532E+02  0.11520885961E+03 -0.72728602642E+03  0.74285328334E+03  0.90740714685E+02 0.  0.
          5    1    3    3  502    0  0.38419088651E+02 -0.51139612476E+01 -0.32771813291E+03  0.33002852302E+03  0.41800000000E+01 0. -1.
         -5    1    3    3    0  502 -0.75555024183E+02 -0.11009489836E+03 -0.81791692615E+03  0.82875510183E+03  0.41800000000E+01 0. -1.
        -11    1    4    4    0    0  0.43489999892E+01  0.11150589697E+03 -0.63757558614E+03  0.64726741529E+03  0.00000000000E+00 0. -1.
         11    1    4    4    0    0  0.32786935543E+02  0.37029626380E+01 -0.89710440278E+02  0.95585868043E+02  0.00000000000E+00 0.  1.
</event>
<event>
 8    1  0.3719512E-009  0.1364412E+03  0.7561462E-02  0.1218199E+00
          1   -1    0    0  501    0  0.00000000000E+00  0.00000000000E+00  0.10919605617E+04  0.10919605617E+04  0.00000000000E+00 0. -1.
         -1   -1    0    0    0  501 -0.00000000000E+00 -0.00000000000E+00 -0.23791210458E+02  0.23791210458E+02  0.00000000000E+00 0.  1.
         25    2    1    2    0    0  0.10794219446E+03  0.21799466510E+02  0.73359292348E+03  0.75228665082E+03  0.12509953452E+03 0.  0.
         23    2    1    2    0    0 -0.10794219446E+03 -0.21799466510E+02  0.33457642778E+03  0.36346512136E+03  0.89659212200E+02 0.  0.
          5    1    3    3  502    0  0.60504536137E+02  0.63089229862E+02  0.57511073716E+03  0.58173093627E+03  0.41800000000E+01 0. -1.
         -5    1    3    3    0  502  0.47437658318E+02 -0.41289763353E+02  0.15848218632E+03  0.17055571455E+03  0.41800000000E+01 0. -1.
        -11    1    4    4    0    0 -0.23539369085E+02 -0.29323723682E+02  0.32412290950E+02  0.49644126261E+02  0.00000000000E+00 0. -1.
         11    1    4    4    0    0 -0.84402825370E+02  0.75242571726E+01  0.30216413683E+03  0.31382099510E+03  0.00000000000E+00 0.  1.
</event>
<event>
 8    1  0.3719512E-009  0.1139404E+03  0.7561462E-02  0.1253442E+00
          1   -1    0    0  501    0  0.00000000000E+00  0.00000000000E+00  0.28927862167E+03  0.28927862167E+03  0.00000000000E+00 0. -1.
         -1   -1    0    0    0  501 -0.00000000000E+00 -0.00000000000E+00 -0.53037675105E+02  0.53037675105E+02  0.00000000000E+00 0.  1.
         25    2    1    2    0    0  0.57301918979E+02 -0.88838222924E+01  0.11263620472E+03  0.17803642341E+03  0.12509045219E+03 0.  0.
         23    2    1    2    0    0 -0.57301918979E+02  0.88838222924E+01  0.12360474184E+03  0.16427987337E+03  0.91363627177E+02 0.  0.
          5    1    3    3  502    0 -0.34276274973E+02 -0.27483120910E+02  0.31653512465E+02  0.54310240400E+02  0.41800000000E+01 0.  1.
         -5    1    3    3    0  502  0.91578193951E+02  0.18599298617E+02  0.80982692260E+02  0.12372618301E+03  0.41800000000E+01 0.  1.
        -11    1    4    4    0    0  0.92601415845E+01 -0.16539413845E+02 -0.28152059735E+01  0.19163189118E+02  0.00000000000E+00 0.  1.
         11    1    4    4    0    0 -0.66562060563E+02  0.25423236138E+02  0.12641994782E+03  0.14511668425E+03  0.00000000000E+00 0. -1.
</event>
<event>
 8    1  0.3719512E-009  0.3399903E+03  0.7561462E-02  0.1066800E+00
          1   -1    0    0  501    0  0.00000000000E+00  0.00000000000E+00  0.10751823960E+04  0.10751823960E+04  0.00000000000E+00 0. -1.
         -1   -1    0    0    0  501 -0.00000000000E+00 -0.00000000000E+00 -0.10978307452E+03  0.10978307452E+03  0.00000000000E+00 0.  1.
         25    2    1    2    0    0  0.29840029199E+03  0.12191335750E+03  0.57283151026E+03  0.66909560042E+03  0.12508949735E+03 0.  0.
         23    2    1    2    0    0 -0.29840029199E+03 -0.12191335750E+03  0.39256781126E+03  0.51586987015E+03  0.90036856352E+02 0.  0.
          5    1    3    3  502    0  0.19446575567E+02  0.55390029849E+02  0.10383363557E+03  0.11935292616E+03  0.41800000000E+01 0.  1.
         -5    1    3    3    0  502  0.27895371642E+03  0.66523327650E+02  0.46899787470E+03  0.54974267425E+03  0.41800000000E+01 0.  1.
        -11    1    4    4    0    0 -0.96091609090E+02  0.37435990314E+01  0.12394997041E+03  0.15687959407E+03  0.00000000000E+00 0.  1.
         11    1    4    4    0    0 -0.20230868290E+03 -0.12565695653E+03  0.26861784084E+03  0.35899027608E+03  0.00000000000E+00 0. -1.
</event>
<event>
 8    1  0.3719512E-009  0.1145466E+03  0.7561462E-02  0.1252375E+00
          3   -1    0    0  501    0  0.00000000000E+00  0.00000000000E+00  0.23642287033E+03  0.23642287033E+03  0.00000000000E+00 0. -1.
         -3   -1    0    0    0  501 -0.00000000000E+00 -0.00000000000E+00 -0.65920207014E+02  0.65920207014E+02  0.00000000000E+00 0.  1.
         25    2    1    2    0    0  0.41943149093E+02  0.15195282915E+02  0.14757103294E+03  0.19853216639E+03  0.12509071488E+03 0.  0.
         23    2    1    2    0    0 -0.41943149093E+02 -0.15195282915E+02  0.22931630376E+02  0.10381091096E+03  0.90888509632E+02 0.  0.
          5    1    3    3  502    0  0.23619378057E+02  0.70257795704E+02  0.90190090533E+02  0.11681505771E+03  0.41800000000E+01 0.  1.
         -5    1    3    3    0  502  0.18323771036E+02 -0.55062512789E+02  0.57380942406E+02  0.81717108680E+02  0.41800000000E+01 0.  1.
        -11    1    4    4    0    0 -0.18158689834E+02  0.35945013719E+02 -0.55070210822E+01  0.40646147529E+02  0.00000000000E+00 0.  1.
         11    1    4    4    0    0 -0.23784459258E+02 -0.51140296634E+02  0.28438651458E+02  0.63164763427E+02  0.00000000000E+00 0. -1.
</event>
<event>
 8    1  0.3719512E-009  0.9588619E+02  0.7561462E-02  0.1289193E+00
         -1   -1    0    0    0  501 -0.00000000000E+00  0.00000000000E+00  0.22119332985E+03  0.22119332985E+03  0.00000000000E+00 0.  1.
          1   -1    0    0  501    0  0.00000000000E+00 -0.00000000000E+00 -0.87926537514E+02  0.87926537514E+02  0.00000000000E+00 0. -1.
         25    2    1    2    0    0  0.23634993386E+02  0.29583907560E+02 -0.19205952024E+02  0.13209942289E+03  0.12509024116E+03 0.  0.
         23    2    1    2    0    0 -0.23634993386E+02 -0.29583907560E+02  0.15247274436E+03  0.17702044448E+03  0.81574993054E+02 0.  0.
          5    1    3    3  502    0  0.22815429705E+02  0.77788897670E+02 -0.36028638605E+01  0.81253365846E+02  0.41800000000E+01 0.  1.
         -5    1    3    3    0  502  0.81956368113E+00 -0.48204990110E+02 -0.15603088163E+02  0.50846057039E+02  0.41800000000E+01 0.  1.
        -11    1    4    4    0    0 -0.39160847063E+02 -0.22170658680E+02  0.15332686682E+03  0.15979436203E+03  0.00000000000E+00 0.  1.
         11    1    4    4    0    0  0.15525853678E+02 -0.74132488799E+01 -0.85412245473E+00  0.17226082449E+02  0.00000000000E+00 0. -1.
</event>
<event>
 8    1  0.3719512E-009  0.1055585E+03  0.7561462E-02  0.1269023E+00
         -1   -1    0    0    0  501 -0.00000000000E+00  0.00000000000E+00  0.28906344177E+03  0.28906344177E+03  0.00000000000E+00 0.  1.
          1   -1    0    0  501    0  0.00000000000E+00 -0.00000000000E+00 -0.48749488132E+02  0.48749488132E+02  0.00000000000E+00 0. -1.
         25    2    1    2    0    0  0.70017830552E+01 -0.13213839662E+01  0.78278769555E+02  0.14773748756E+03  0.12509207987E+03 0.  0.
         23    2    1    2    0    0 -0.70017830552E+01  0.13213839662E+01  0.16203518408E+03  0.19007544234E+03  0.99108535859E+02 0.  0.
          5    1    3    3  502    0 -0.48312588836E+02 -0.30233389535E+02  0.59331905434E+02  0.82376644051E+02  0.41800000000E+01 0. -1.
         -5    1    3    3    0  502  0.55314371891E+02  0.28912005568E+02  0.18946864121E+02  0.65360843506E+02  0.41800000000E+01 0. -1.
        -11    1    4    4    0    0 -0.44648045072E+02  0.20542924854E+02  0.49022871688E+02  0.69416868547E+02  0.00000000000E+00 0. -1.
         11    1    4    4    0    0  0.37646262017E+02 -0.19221540888E+02  0.11301231239E+03  0.12065857380E+03  0.00000000000E+00 0.  1.
</event>
<event>
 8    1  0.3719512E-009  0.2033337E+03  0.7561462E-02  0.1146956E+00
         -1   -1    0    0    0  501 -0.00000000000E+00  0.00000000000E+00  0.33346714738E+02  0.33346714738E+02  0.00000000000E+00 0.  1.
          1   -1    0    0  501    0  0.00000000000E+00 -0.00000000000E+00 -0.15602156541E+04  0.15602156541E+04  0.00000000000E+00 0. -1.
         25    2    1    2    0    0 -0.77989078149E+02 -0.16706257873E+03 -0.10658436026E+04  0.10888822911E+04  0.12509938886E+03 0.  0.
         23    2    1    2    0    0  0.77989078149E+02  0.16706257873E+03 -0.46102533678E+03  0.50468007778E+03  0.90362703748E+02 0.  0.
          5    1    3    3  502    0 -0.15521683389E+02  0.19614673007E+02 -0.99265351944E+02  0.10245360193E+03  0.41800000000E+01 0. -1.
         -5    1    3    3    0  502 -0.62467394760E+02 -0.18667725174E+03 -0.96657825063E+03  0.98642868912E+03  0.41800000000E+01 0. -1.
        -11    1    4    4    0    0  0.38169309165E+02  0.86387413539E+02 -0.12410261249E+03  0.15595236390E+03  0.00000000000E+00 0.  1.
         11    1    4    4    0    0  0.39819768985E+02  0.80675165196E+02 -0.33692272429E+03  0.34872771387E+03  0.00000000000E+00 0. -1.
</event>
<event>
 8    1  0.3719512E-009  0.1152515E+03  0.7561462E-02  0.1251143E+00
         -1   -1    0    0    0  501 -0.00000000000E+00  0.00000000000E+00  0.30706881654E+02  0.30706881654E+02  0.00000000000E+00 0.  1.
          1   -1    0    0  501    0  0.00000000000E+00 -0.00000000000E+00 -0.50505503398E+03  0.50505503398E+03  0.00000000000E+00 0. -1.
         25    2    1    2    0    0  0.42499790581E+02 -0.32250911232E+02 -0.22125430162E+03  0.25971081771E+03  0.12509951789E+03 0.  0.
         23    2    1    2    0    0 -0.42499790581E+02  0.32250911232E+02 -0.25309385070E+03  0.27605109792E+03  0.96443547860E+02 0.  0.
          5    1    3    3  502    0  0.67782310616E+02 -0.58152145225E+02 -0.10514197503E+03  0.13801601697E+03  0.41800000000E+01 0. -1.
         -5    1    3    3    0  502 -0.25282520035E+02  0.25901233993E+02 -0.11611232659E+03  0.12169480074E+03  0.41800000000E+01 0. -1.
        -11    1    4    4    0    0  0.17469616773E+02  0.40518398403E+02 -0.65864621876E+02  0.79278474596E+02  0.00000000000E+00 0. -1.
         11    1    4    4    0    0 -0.59969407354E+02 -0.82674871705E+01 -0.18722922883E+03  0.19677262332E+03  0.00000000000E+00 0.  1.
</event>
<event>
 8    1  0.3719512E-009  0.9659244E+02  0.7561462E-02  0.1287629E+00
          2   -1    0    0  501    0  0.00000000000E+00  0.00000000000E+00  0.39647941279E+03  0.39647941279E+03  0.00000000000E+00 0. -1.
         -2   -1    0    0    0  501 -0.00000000000E+00 -0.00000000000E+00 -0.38971747857E+02  0.38971747857E+02  0.00000000000E+00 0.  1.
         25    2    1    2    0    0  0.26518711336E+02 -0.53187902355E+02  0.22062855942E+03  0.26049617172E+03  0.12509635981E+03 0.  0.
         23    2    1    2    0    0 -0.26518711336E+02  0.53187902355E+02  0.13687910551E+03  0.17495498893E+03  0.91329971085E+02 0.  0.
          5    1    3    3  502    0  0.60797748069E+02 -0.72000397777E+02  0.18392834781E+03  0.20670639317E+03  0.41800000000E+01 0. -1.
         -5    1    3    3    0  502 -0.34279036733E+02  0.18812495423E+02  0.36700211613E+02  0.53789778544E+02  0.41800000000E+01 0. -1.
        -11    1    4    4    0    0 -0.20429556916E+02  0.37510020532E+02  0.14849432059E+03  0.15451515034E+03  0.00000000000E+00 0. -1.
         11    1    4    4    0    0 -0.60891544206E+01  0.15677881822E+02 -0.11615215086E+02  0.20439838588E+02  0.00000000000E+00 0.  1.
</event>
<event>
 8    1  0.3719512E-009  0.1144950E+03  0.7561462E-02  0.1252465E+00
          2   -1    0    0  501    0  0.00000000000E+00  0.00000000000E+00  0.93752052970E+03  0.93752052970E+03  0.00000000000E+00 0. -1.
         -2   -1    0    0    0  501 -0.00000000000E+00 -0.00000000000E+00 -0.23451488279E+02  0.23451488279E+02  0.00000000000E+00 0.  1.
         25    2    1    2    0    0 -0.88118849205E+02  0.34020669977E+02  0.37043895006E+03  0.40223578060E+03  0.12508505067E+03 0.  0.
         23    2    1    2    0    0  0.88118849205E+02 -0.34020669977E+02  0.54363009136E+03  0.55873623738E+03  0.87921380555E+02 0.  0.
          5    1    3    3  502    0 -0.45757050099E+02  0.44158242427E+02  0.34659135149E+03  0.35240132709E+03  0.41800000000E+01 0.  1.
         -5    1    3    3    0  502 -0.42361799106E+02 -0.10137572450E+02  0.23847598568E+02  0.49834453505E+02  0.41800000000E+01 0.  1.
        -11    1    4    4    0    0 -0.57076319013E+01 -0.26799996542E+02  0.58975025385E+02  0.65029766229E+02  0.00000000000E+00 0.  1.
         11    1    4    4    0    0  0.93826481106E+02 -0.72206734342E+01  0.48465506598E+03  0.49370647115E+03  0.00000000000E+00 0. -1.
</event>
<event>
 8    1  0.3719512E-009  0.1375896E+03  0.7561462E-02  0.1216610E+00
         -1   -1    0    0    0  501 -0.00000000000E+00  0.00000000000E+00  0.35828375241E+03  0.35828375241E+03  0.00000000000E+00 0.  1.
          1   -1    0    0  501    0  0.00000000000E+00 -0.00000000000E+00 -0.57348310795E+02  0.57348310795E+02  0.00000000000E+00 0. -1.
         25    2    1    2    0    0  0.32219889917E+02  0.83240828029E+02  0.20752545131E+03  0.25822812616E+03  0.12509114854E+03 0.  0.
         23    2    1    2    0    0 -0.32219889917E+02 -0.83240828029E+02  0.93409990309E+02  0.15740393705E+03  0.89907821409E+02 0.  0.
          5    1    3    3  502    0 -0.14556931660E+02  0.99402715810E+02  0.16303789414E+03  0.19155059774E+03  0.41800000000E+01 0. -1.
         -5    1    3    3    0  502  0.46776821577E+02 -0.16161887781E+02  0.44487557167E+02  0.66677528420E+02  0.41800000000E+01 0. -1.
        -11    1    4    4    0    0  0.22432375804E+02 -0.62676218479E+02  0.62605172042E+02  0.91383408852E+02  0.00000000000E+00 0. -1.
         11    1    4    4    0    0 -0.54652265721E+02 -0.20564609550E+02  0.30804818267E+02  0.66020528193E+02  0.00000000000E+00 0.  1.
</event>
<event>
 8    1  0.3719512E-009  0.8488666E+02  0.7561462E-02  0.1315729E+00
          1   -1    0    0  501    0  0.00000000000E+00  0.00000000000E+00  0.80757613493E+02  0.80757613493E+02  0.00000000000E+00 0. -1.
         -1   -1    0    0    0  501 -0.00000000000E+00 -0.00000000000E+00 -0.16038639240E+03  0.16038639240E+03  0.00000000000E+00 0.  1.
         25    2    1    2    0    0  0.22681307290E+02 -0.80582902862E+00 -0.20939517548E+02  0.12884947159E+03  0.12509449177E+03 0.  0.
         23    2    1    2    0    0 -0.22681307290E+02  0.80582902862E+00 -0.58689261358E+02  0.11229453431E+03  0.93008289821E+02 0.  0.
          5    1    3    3  502    0  0.49517464639E+02  0.43566675372E+02  0.12147990781E+02  0.67194349370E+02  0.41800000000E+01 0. -1.
         -5    1    3    3    0  502 -0.26836157349E+02 -0.44372504401E+02 -0.33087508329E+02  0.61655122216E+02  0.41800000000E+01 0. -1.
        -11    1    4    4    0    0 -0.35743077088E+02 -0.70324862532E+01 -0.78948270836E+02  0.86947414514E+02  0.00000000000E+00 0.  1.
         11    1    4    4    0    0  0.13061769799E+02  0.78383152819E+01  0.20259009478E+02  0.25347119792E+02  0.00000000000E+00 0. -1.
</event>
<event>
 8    1  0.3719512E-009  0.1081715E+03  0.7561462E-02  0.1263994E+00
         -4   -1    0    0    0  501 -0.00000000000E+00  0.00000000000E+00  0.32011875700E+03  0.32011875700E+03  0.00000000000E+00 0.  1.
          4   -1    0    0  501    0  0.00000000000E+00 -0.00000000000E+00 -0.48253108987E+02  0.48253108987E+02  0.00000000000E+00 0. -1.
         25    2    1    2    0    0  0.29671912381E+02  0.29955966732E+02  0.85500913137E+02  0.15727301120E+03  0.12508641644E+03 0.  0.
         23    2    1    2    0    0 -0.29671912381E+02 -0.29955966732E+02  0.18636473487E+03  0.21109885478E+03  0.89739231986E+02 0.  0.
          5    1    3    3  502    0  0.42478882970E+02  0.71259811207E+02  0.33639380040E+02  0.89618616822E+02  0.41800000000E+01 0.  1.
         -5    1    3    3    0  502 -0.12806970589E+02 -0.41303844475E+02  0.51861533097E+02  0.67654394382E+02  0.41800000000E+01 0.  1.
        -11    1    4    4    0    0 -0.75802021347E+01 -0.55525733205E+02  0.15566147341E+03  0.16544201648E+03  0.00000000000E+00 0. -1.
         11    1    4    4    0    0 -0.22091710246E+02  0.25569766473E+02  0.30703261461E+02  0.45656838299E+02  0.00000000000E+00 0.  1.
</event>
<event>
 8    1  0.3719512E-009  0.1152736E+03  0.7561462E-02  0.1251104E+00
         -1   -1    0    0    0  501 -0.00000000000E+00  0.00000000000E+00  0.25537615854E+03  0.25537615854E+03  0.00000000000E+00 0.  1.
          1   -1    0    0  501    0  0.00000000000E+00 -0.00000000000E+00 -0.62051909003E+02  0.62051909003E+02  0.00000000000E+00 0. -1.
         25    2    1    2    0    0  0.40923973501E+02 -0.44629496796E+02  0.13777307347E+03  0.19569500108E+03  0.12509416486E+03 0.  0.
         23    2    1    2    0    0 -0.40923973501E+02  0.44629496796E+02  0.55551176069E+02  0.12173306647E+03  0.89813377165E+02 0.  0.
          5    1    3    3  502    0 -0.91801638984E+01  0.38473913675E+02  0.25537148375E+02  0.47266645638E+02  0.41800000000E+01 0.  1.
         -5    1    3    3    0  502  0.50104137400E+02 -0.83103410471E+02  0.11223592510E+03  0.14842835544E+03  0.41800000000E+01 0.  1.
        -11    1    4    4    0    0 -0.60854678552E+02  0.41020015919E+02  0.66212674852E+02  0.98843572976E+02  0.00000000000E+00 0.  1.
         11    1    4    4    0    0  0.19930705051E+02  0.36094808771E+01 -0.10661498783E+02  0.22889493492E+02  0.00000000000E+00 0. -1.
</event>
<event>
 8    1  0.3719512E-009  0.1336446E+03  0.7561462E-02  0.1222146E+00
         -2   -1    0    0    0  501 -0.00000000000E+00  0.00000000000E+00  0.16542407331E+03  0.16542407331E+03  0.00000000000E+00 0.  1.
          2   -1    0    0  501    0  0.00000000000E+00 -0.00000000000E+00 -0.39080210046E+03  0.39080210046E+03  0.00000000000E+00 0. -1.
         25    2    1    2    0    0  0.28153935702E+02 -0.12893073923E+03 -0.32477235158E+03  0.37220898956E+03  0.12508665774E+03 0.  0.
         23    2    1    2    0    0 -0.28153935702E+02  0.12893073923E+03  0.99394324422E+02  0.18401718421E+03  0.81038958190E+02 0.  0.
          5    1    3    3  502    0  0.87244663160E+01 -0.58113533371E+02 -0.27993483180E+03  0.28606691792E+03  0.41800000000E+01 0. -1.
         -5    1    3    3    0  502  0.19429469386E+02 -0.70817205856E+02 -0.44837519776E+02  0.86142071635E+02  0.41800000000E+01 0. -1.
        -11    1    4    4    0    0 -0.33616859059E+02  0.11630829925E+03  0.11231699714E+03  0.16514485016E+03  0.00000000000E+00 0.  1.
         11    1    4    4    0    0  0.54629233571E+01  0.12622439974E+02 -0.12922672714E+02  0.18872334053E+02  0.00000000000E+00 0. -1.
</event>
<event>
 8    1  0.3719512E-009  0.9077559E+02  0.7561462E-02  0.1300984E+00
         -1   -1    0    0    0  501 -0.00000000000E+00  0.00000000000E+00  0.15552055079E+03  0.15552055079E+03  0.00000000000E+00 0.  1.
          1   -1    0    0  501    0  0.00000000000E+00 -0.00000000000E+00 -0.11288098643E+03  0.11288098643E+03  0.00000000000E+00 0. -1.
         25    2    1    2    0    0  0.37307901473E+02 -0.56335960492E+02 -0.31187236749E+01  0.14220930342E+03  0.12509252410E+03 0.  0.
         23    2    1    2    0    0 -0.37307901473E+02  0.56335960492E+02  0.45758288040E+02  0.12619223380E+03  0.96255072543E+02 0.  0.
          5    1    3    3  502    0 -0.26301364681E+02 -0.39092982756E+02 -0.43949795255E+02  0.64568413237E+02  0.41800000000E+01 0.  1.
         -5    1    3    3    0  502  0.63609266154E+02 -0.17242977735E+02  0.40831071581E+02  0.77640890182E+02  0.41800000000E+01 0.  1.
        -11    1    4    4    0    0 -0.13866555969E+02  0.29385927265E+02  0.73894493139E+02  0.80723046350E+02  0.00000000000E+00 0.  1.
         11    1    4    4    0    0 -0.23441345504E+02  0.26950033227E+02 -0.28136205099E+02  0.45469187450E+02  0.00000000000E+00 0. -1.
</event>
<event>
 8    1  0.3719512E-009  0.8482245E+02  0.7561462E-02  0.1315898E+00
         -3   -1    0    0    0  501 -0.00000000000E+00  0.00000000000E+00  0.16932937124E+03  0.16932937124E+03  0.00000000000E+00 0.  1.
          3   -1    0    0  501    0  0.00000000000E+00 -0.00000000000E+00 -0.90442660062E+02  0.90442660062E+02  0.00000000000E+00 0. -1.
         25    2    1    2    0    0  0.57254325338E+02 -0.10705119895E+02  0.30044885175E+02  0.14121878676E+03  0.12508954092E+03 0.  0.
         23    2    1    2    0    0 -0.57254325338E+02  0.10705119895E+02  0.48841826001E+02  0.11855324454E+03  0.90976318133E+02 0.  0.
          5    1    3    3  502    0 -0.13024528419E+02  0.25353353710E+02 -0.30239532815E+02  0.41765208365E+02  0.41800000000E+01 0.  1.
         -5    1    3    3    0  502  0.70278853757E+02 -0.36058473605E+02  0.60284417990E+02  0.99453578400E+02  0.41800000000E+01 0.  1.
        -11    1    4    4    0    0 -0.35068693699E+02 -0.37331038048E+01 -0.22923233978E+02  0.42062144475E+02  0.00000000000E+00 0. -1.
         11    1    4    4    0    0 -0.22185631638E+02  0.14438223700E+02  0.71765059979E+02  0.76491100061E+02  0.00000000000E+00 0.  1.
</event>
<event>
 8    1  0.3719512E-009  0.1459264E+03  0.7561462E-02  0.1205570E+00
          1   -1    0    0  501    0  0.00000000000E+00  0.00000000000E+00  0.29805969880E+03  0.29805969880E+03  0.00000000000E+00 0. -1.
         -1   -1    0    0    0  501 -0.00000000000E+00 -0.00000000000E+00 -0.73625894271E+02  0.73625894271E+02  0.00000000000E+00 0.  1.
         25    2    1    2    0    0  0.62489027219E+02  0.75758454781E+02  0.14914146639E+03  0.21802522514E+03  0.12509036656E+03 0.  0.
         23    2    1    2    0    0 -0.62489027219E+02 -0.75758454781E+02  0.75292338143E+02  0.15366036794E+03  0.91095282519E+02 0.  0.
          5    1    3    3  502    0  0.95983360283E+02  0.79213801474E+02  0.12456307633E+03  0.17612797671E+03  0.41800000000E+01 0.  1.
         -5    1    3    3    0  502 -0.33494333063E+02 -0.34553466925E+01  0.24578390061E+02  0.41897248431E+02  0.41800000000E+01 0.  1.
        -11    1    4    4    0    0  0.23544470049E+02 -0.19886113412E+02  0.11702139128E+02  0.32965734281E+02  0.00000000000E+00 0.  1.
         11    1    4    4    0    0 -0.86033497268E+02 -0.55872341370E+02  0.63590199015E+02  0.12069463365E+03  0.00000000000E+00 0. -1.
</event>
<event>
 8    1  0.3719512E-009  0.1108064E+03  0.7561462E-02  0.1259084E+00
          2   -1    0    0  501    0  0.00000000000E+00  0.00000000000E+00  0.10619461203E+02  0.10619461203E+02  0.00000000000E+00 0. -1.
         -2   -1    0    0    0  501 -0.00000000000E+00 -0.00000000000E+00 -0.15308714127E+04  0.15308714127E+04  0.00000000000E+00 0.  1.
         25    2    1    2    0    0 -0.49915917892E+02 -0.41807450595E+02 -0.94419132861E+03  0.95466443101E+03  0.12508976391E+03 0.  0.
         23    2    1    2    0    0  0.49915917892E+02  0.41807450595E+02 -0.57606062292E+03  0.58682644293E+03  0.90994346254E+02 0.  0.
          5    1    3    3  502    0 -0.50962881613E+02  0.14584396314E+02 -0.76302424632E+03  0.76487475627E+03  0.41800000000E+01 0.  1.
         -5    1    3    3    0  502  0.10469637210E+01 -0.56391846909E+02 -0.18116708229E+03  0.18978967474E+03  0.41800000000E+01 0.  1.
        -11    1    4    4    0    0  0.17125546500E+02  0.67869820688E+02 -0.36355004379E+03  0.37022726972E+03  0.00000000000E+00 0. -1.
         11    1    4    4    0    0  0.32790371392E+02 -0.26062370092E+02 -0.21251057913E+03  0.21659917321E+03  0.00000000000E+00 0.  1.
</event>
<event>
 8    1  0.3719512E-009  0.9960892E+02  0.7561462E-02  0.1281120E+00
         -1   -1    0    0    0  501 -0.00000000000E+00  0.00000000000E+00  0.17269526546E+02  0.17269526546E+02  0.00000000000E+00 0.  1.
          1   -1    0    0  501    0  0.00000000000E+00 -0.00000000000E+00 -0.77315038726E+03  0.77315038726E+03  0.00000000000E+00 0. -1.
         25    2    1    2    0    0 -0.74074332033E+01 -0.26393423022E+02 -0.52446438331E+03  0.53987229515E+03  0.12509085842E+03 0.  0.
         23    2    1    2    0    0  0.74074332033E+01  0.26393423022E+02 -0.23141647741E+03  0.25054761866E+03  0.92027389163E+02 0.  0.
          5    1    3    3  502    0 -0.29368735169E+02 -0.68532837960E+02 -0.39273544547E+03  0.39977227894E+03  0.41800000000E+01 0.  1.
         -5    1    3    3    0  502  0.21961301966E+02  0.42139414938E+02 -0.13172893784E+03  0.14010001620E+03  0.41800000000E+01 0.  1.
        -11    1    4    4    0    0  0.36772148449E+02 -0.84993668772E+00 -0.37464008263E+02  0.52502049570E+02  0.00000000000E+00 0.  1.
         11    1    4    4    0    0 -0.29364715246E+02  0.27243359710E+02 -0.19395246914E+03  0.19804556909E+03  0.00000000000E+00 0. -1.
</event>
<event>
 8    1  0.3719512E-009  0.9597090E+02  0.7561462E-02  0.1289004E+00
          2   -1    0    0  501    0  0.00000000000E+00  0.00000000000E+00  0.22749012277E+03  0.22749012277E+03  0.00000000000E+00 0. -1.
         -2   -1    0    0    0  501 -0.00000000000E+00 -0.00000000000E+00 -0.56088335450E+02  0.56088335450E+02  0.00000000000E+00 0.  1.
         25    2    1    2    0    0  0.29744651321E+02 -0.18692009839E+02  0.87497330661E+02  0.15664096059E+03  0.12508585910E+03 0.  0.
         23    2    1    2    0    0 -0.29744651321E+02  0.18692009839E+02  0.83904456661E+02  0.12693749763E+03  0.88538324716E+02 0.  0.
          5    1    3    3  502    0  0.70316987677E+02 -0.95332360611E+01  0.14538337295E+02  0.72554786176E+02  0.41800000000E+01 0. -1.
         -5    1    3    3    0  502 -0.40572336356E+02 -0.91587737778E+01  0.72958993366E+02  0.84086174413E+02  0.41800000000E+01 0. -1.
        -11    1    4    4    0    0 -0.53045794522E+02  0.16956710018E+02  0.87071890325E+02  0.10335811732E+03  0.00000000000E+00 0. -1.
         11    1    4    4    0    0  0.23301143201E+02  0.17352998209E+01 -0.31674336635E+01  0.23579380313E+02  0.00000000000E+00 0.  1.
</event>
<event>
 8    1  0.3719512E-009  0.2845558E+03  0.7561462E-02  0.1093226E+00
         -2   -1    0    0    0  501 -0.00000000000E+00  0.00000000000E+00  0.58626174300E+02  0.58626174300E+02  0.00000000000E+00 0.  1.
          2   -1    0    0  501    0  0.00000000000E+00 -0.00000000000E+00 -0.23691650001E+04  0.23691650001E+04  0.00000000000E+00 0. -1.
         25    2    1    2    0    0 -0.94607256239E+02 -0.26592580177E+03 -0.18789348741E+04  0.19041300550E+04  0.12509172708E+03 0.  0.
         23    2    1    2    0    0  0.94607256239E+02  0.26592580177E+03 -0.43160395164E+03  0.52366111936E+03  0.90950161524E+02 0.  0.
          5    1    3    3  502    0 -0.25000811976E+02 -0.23529251577E+02 -0.74312653780E+02  0.81966512620E+02  0.41800000000E+01 0.  1.
         -5    1    3    3    0  502 -0.69606444263E+02 -0.24239655019E+03 -0.18046222204E+04  0.18221635424E+04  0.41800000000E+01 0.  1.
        -11    1    4    4    0    0  0.56227599711E+02  0.15056555842E+03 -0.32239701895E+03  0.36023793274E+03  0.00000000000E+00 0. -1.
         11    1    4    4    0    0  0.38379656529E+02  0.11536024335E+03 -0.10920693269E+03  0.16342318663E+03  0.00000000000E+00 0.  1.
</event>
<event>
 8    1  0.3719512E-009  0.1300491E+03  0.7561462E-02  0.1227383E+00
          2   -1    0    0  501    0  0.00000000000E+00  0.00000000000E+00  0.92664798631E+02  0.92664798631E+02  0.00000000000E+00 0.  1.
         -2   -1    0    0    0  501 -0.00000000000E+00 -0.00000000000E+00 -0.22952926241E+03  0.22952926241E+03  0.00000000000E+00 0. -1.
         25    2    1    2    0    0 -0.41251293035E+02 -0.76609105691E+02 -0.25569248751E+02  0.15450449110E+03  0.12508887654E+03 0.  0.
         23    2    1    2    0    0  0.41251293035E+02  0.76609105691E+02 -0.11129521503E+03  0.16768956995E+03  0.90346791471E+02 0.  0.
          5    1    3    3  502    0 -0.82775414492E+02 -0.26447160501E+02 -0.17677673135E+02  0.88776089519E+02  0.41800000000E+01 0.  1.
         -5    1    3    3    0  502  0.41524121457E+02 -0.50161945190E+02 -0.78915756158E+01  0.65728401576E+02  0.41800000000E+01 0.  1.
        -11    1    4    4    0    0  0.20707797793E+02  0.83615485400E+02 -0.43494793067E+02  0.96499530113E+02  0.00000000000E+00 0.  1.
         11    1    4    4    0    0  0.20543495241E+02 -0.70063797094E+01 -0.67800421963E+02  0.71190039835E+02  0.00000000000E+00 0. -1.
</event>
<event>
 8    1  0.3719512E-009  0.8978304E+02  0.7561462E-02  0.1303378E+00
          4   -1    0    0  501    0  0.00000000000E+00  0.00000000000E+00  0.11564718396E+03  0.11564718396E+03  0.00000000000E+00 0.  1.
         -4   -1    0    0    0  501 -0.00000000000E+00 -0.00000000000E+00 -0.11004313573E+03  0.11004313573E+03  0.00000000000E+00 0. -1.
         25    2    1    2    0    0  0.89884954251E+01 -0.30534670588E+02  0.17255948387E+01  0.12909972175E+03  0.12510236337E+03 0.  0.
         23    2    1    2    0    0 -0.89884954251E+01  0.30534670588E+02  0.38784533822E+01  0.96590597940E+02  0.91112798507E+02 0.  0.
          5    1    3    3  502    0 -0.46449985691E+02 -0.45216372746E+02 -0.19473790536E+02  0.67814618283E+02  0.41800000000E+01 0.  1.
         -5    1    3    3    0  502  0.55438481116E+02  0.14681702158E+02  0.21199385375E+02  0.61285103467E+02  0.41800000000E+01 0.  1.
        -11    1    4    4    0    0 -0.22252552790E+02 -0.16315035802E+01  0.40397774144E+02  0.46149951955E+02  0.00000000000E+00 0.  1.
         11    1    4    4    0    0  0.13264057365E+02  0.32166174168E+02 -0.36519320762E+02  0.50440645985E+02  0.00000000000E+00 0. -1.
</event>
<event>
 8    1  0.3719512E-009  0.1295122E+03  0.7561462E-02  0.1228181E+00
          2   -1    0    0  501    0  0.00000000000E+00  0.00000000000E+00  0.58048846992E+03  0.58048846992E+03  0.00000000000E+00 0. -1.
         -2   -1    0    0    0  501 -0.00000000000E+00 -0.00000000000E+00 -0.46087984829E+02  0.46087984829E+02  0.00000000000E+00 0.  1.
         25    2    1    2    0    0 -0.10998897192E+03  0.51170071014E+02  0.30917487719E+03  0.35489787994E+03  0.12508976933E+03 0.  0.
         23    2    1    2    0    0  0.10998897192E+03 -0.51170071014E+02  0.22522560791E+03  0.27167857481E+03  0.91469795248E+02 0.  0.
          5    1    3    3  502    0 -0.29599682176E+02 -0.20643098674E+01 -0.10755254162E+01  0.29983857575E+02  0.41800000000E+01 0.  1.
         -5    1    3    3    0  502 -0.80389289745E+02  0.53234380882E+02  0.31025040260E+03  0.32491402236E+03  0.41800000000E+01 0.  1.
        -11    1    4    4    0    0  0.48053326610E+02  0.57967099393E+01  0.24974803761E+02  0.54465262942E+02  0.00000000000E+00 0.  1.
         11    1    4    4    0    0  0.61935645311E+02 -0.56966780954E+02  0.20025080415E+03  0.21721331187E+03  0.00000000000E+00 0. -1.
</event>
<event>
 8    1  0.3719512E-009  0.1649911E+03  0.7561462E-02  0.1183174E+00
          2   -1    0    0  501    0  0.00000000000E+00  0.00000000000E+00  0.14811425566E+03  0.14811425566E+03  0.00000000000E+00 0. -1.
         -2   -1    0    0    0  501 -0.00000000000E+00 -0.00000000000E+00 -0.24628742332E+03  0.24628742332E+03  0.00000000000E+00 0.  1.
         25    2    1    2    0    0 -0.11878403586E+03  0.91875081319E+02 -0.53368086223E+01  0.19552218778E+03  0.12509902736E+03 0.  0.
         23    2    1    2    0    0  0.11878403586E+03 -0.91875081319E+02 -0.92836359038E+02  0.19887949121E+03  0.91563009568E+02 0.  0.
          5    1    3    3  502    0 -0.72309481313E+02  0.76817432799E+02 -0.60526256757E+02  0.12169831234E+03  0.41800000000E+01 0. -1.
         -5    1    3    3    0  502 -0.46474554548E+02  0.15057648520E+02  0.55189448135E+02  0.73823875439E+02  0.41800000000E+01 0. -1.
        -11    1    4    4    0    0  0.60373808908E+02 -0.99582528196E+02 -0.68715725390E+02  0.13521659528E+03  0.00000000000E+00 0. -1.
         11    1    4    4    0    0  0.58410226953E+02  0.77074468768E+01 -0.24120633648E+02  0.63662895926E+02  0.00000000000E+00 0.  1.
</event>
<event>
 8    1  0.3719512E-009  0.8406476E+02  0.7561462E-02  0.1317897E+00
          2   -1    0    0  501    0  0.00000000000E+00  0.00000000000E+00  0.31051912196E+02  0.31051912196E+02  0.00000000000E+00 0. -1.
         -2   -1    0    0    0  501 -0.00000000000E+00 -0.00000000000E+00 -0.51261037495E+03  0.51261037495E+03  0.00000000000E+00 0.  1.
         25    2    1    2    0    0  0.35154298992E+02 -0.23133788104E+01 -0.38440745214E+03  0.40577496425E+03  0.12507220273E+03 0.  0.
         23    2    1    2    0    0 -0.35154298992E+02  0.23133788104E+01 -0.97151010620E+02  0.13788732290E+03  0.91287559349E+02 0.  0.
          5    1    3    3  502    0 -0.15304289129E+02  0.22453563063E+02 -0.13535120766E+02  0.30644014980E+02  0.41800000000E+01 0.  1.
         -5    1    3    3    0  502  0.50458588122E+02 -0.24766941873E+02 -0.37087233137E+03  0.37513094927E+03  0.41800000000E+01 0.  1.
        -11    1    4    4    0    0 -0.60044658202E+00  0.36005951282E+02 -0.78099186798E+02  0.86001581627E+02  0.00000000000E+00 0.  1.
         11    1    4    4    0    0 -0.34553852410E+02 -0.33692572472E+02 -0.19051823823E+02  0.51885741270E+02  0.00000000000E+00 0. -1.
</event>
<event>
 8    1  0.3719512E-009  0.1176325E+03  0.7561462E-02  0.1247055E+00
         -1   -1    0    0    0  501 -0.00000000000E+00  0.00000000000E+00  0.45005234794E+02  0.45005234794E+02  0.00000000000E+00 0.  1.
          1   -1    0    0  501    0  0.00000000000E+00 -0.00000000000E+00 -0.33271356393E+03  0.33271356393E+03  0.00000000000E+00 0. -1.
         25    2    1    2    0    0 -0.53956655975E+02 -0.52304720679E+01 -0.17964312856E+03  0.22551508312E+03  0.12508685188E+03 0.  0.
         23    2    1    2    0    0  0.53956655975E+02  0.52304720679E+01 -0.10806520057E+03  0.15220371560E+03  0.92461910568E+02 0.  0.
          5    1    3    3  502    0 -0.92150088075E+02 -0.16408036551E+02 -0.10428105770E+03  0.14018870779E+03  0.41800000000E+01 0. -1.
         -5    1    3    3    0  502  0.38193432101E+02  0.11177564483E+02 -0.75362070857E+02  0.85326375332E+02  0.41800000000E+01 0. -1.
        -11    1    4    4    0    0  0.77617474323E+02  0.63013386652E+01 -0.58927659486E+02  0.97655763997E+02  0.00000000000E+00 0.  1.
         11    1    4    4    0    0 -0.23660818348E+02 -0.10708665973E+01 -0.49137541088E+02  0.54547951605E+02  0.00000000000E+00 0. -1.
</event>
<event>
 8    1  0.3719512E-009  0.9378492E+02  0.7561462E-02  0.1293936E+00
         -2   -1    0    0    0  501 -0.00000000000E+00  0.00000000000E+00  0.98435666306E+02  0.98435666306E+02  0.00000000000E+00 0.  1.
          2   -1    0    0  501    0  0.00000000000E+00 -0.00000000000E+00 -0.14561832700E+03  0.14561832700E+03  0.00000000000E+00 0. -1.
         25    2    1    2    0    0  0.47095147686E+02 -0.26171228710E+02 -0.26922556985E+02  0.13883588383E+03  0.12509073673E+03 0.  0.
         23    2    1    2    0    0 -0.47095147686E+02  0.26171228710E+02 -0.20260103712E+02  0.10521810948E+03  0.88076629209E+02 0.  0.
          5    1    3    3  502    0 -0.18600206482E+02 -0.98769977917E+01  0.38834741636E+02  0.44374906473E+02  0.41800000000E+01 0. -1.
         -5    1    3    3    0  502  0.65695354168E+02 -0.16294230918E+02 -0.65757298621E+02  0.94460977353E+02  0.41800000000E+01 0. -1.
        -11    1    4    4    0    0  0.17107213710E+02 -0.14379617361E+02  0.86516471281E+01  0.23964163962E+02  0.00000000000E+00 0.  1.
         11    1    4    4    0    0 -0.64202361396E+02  0.40550846071E+02 -0.28911750840E+02  0.81253945520E+02  0.00000000000E+00 0. -1.
</event>
<event>
 8    1  0.3719512E-009  0.1113920E+03  0.7561462E-02  0.1258014E+00
         -1   -1    0    0    0  501 -0.00000000000E+00  0.00000000000E+00  0.38394434833E+03  0.38394434833E+03  0.00000000000E+00 0.  1.
          1   -1    0    0  501    0  0.00000000000E+00 -0.00000000000E+00 -0.46949372357E+02  0.46949372357E+02  0.00000000000E+00 0. -1.
         25    2    1    2    0    0 -0.24940252794E+02 -0.63633052548E+02  0.12242854759E+03  0.18789817994E+03  0.12508315303E+03 0.  0.
         23    2    1    2    0    0  0.24940252794E+02  0.63633052548E+02  0.21456642838E+03  0.24299554075E+03  0.91306621059E+02 0.  0.
          5    1    3    3  502    0 -0.54398830752E+02 -0.24849413297E+02  0.43591059089E+01  0.60109902119E+02  0.41800000000E+01 0. -1.
         -5    1    3    3    0  502  0.29458577958E+02 -0.38783639250E+02  0.11806944168E+03  0.12778827782E+03  0.41800000000E+01 0. -1.
        -11    1    4    4    0    0 -0.24540587780E+02  0.59422792846E+02  0.12614132778E+03  0.14158016574E+03  0.00000000000E+00 0.  1.
         11    1    4    4    0    0  0.49480840575E+02  0.42102597016E+01  0.88425100603E+02  0.10141537501E+03  0.00000000000E+00 0. -1.
</event>
<event>
 8    1  0.3719512E-009  0.1224923E+03  0.7561462E-02  0.1239041E+00
         -1   -1    0    0    0  501 -0.00000000000E+00  0.00000000000E+00  0.39134693061E+03  0.39134693061E+03  0.00000000000E+00 0.  1.
          1   -1    0    0  501    0  0.00000000000E+00 -0.00000000000E+00 -0.49061569692E+02  0.49061569692E+02  0.00000000000E+00 0. -1.
         25    2    1    2    0    0 -0.28585798556E+02  0.74645283320E+02  0.24031646790E+03  0.28246685900E+03  0.12508579252E+03 0.  0.
         23    2    1    2    0    0  0.28585798556E+02 -0.74645283320E+02  0.10196889303E+03  0.15794164131E+03  0.90326301336E+02 0.  0.
          5    1    3    3  502    0  0.47110521497E+02  0.42793711704E+02  0.80214118120E+02  0.10248160880E+03  0.41800000000E+01 0.  1.
         -5    1    3    3    0  502 -0.75696320053E+02  0.31851571615E+02  0.16010234977E+03  0.17998525019E+03  0.41800000000E+01 0.  1.
        -11    1    4    4    0    0 -0.14910167307E+02 -0.30803463743E+01 -0.99282174762E+01  0.18176114138E+02  0.00000000000E+00 0. -1.
         11    1    4    4    0    0  0.43495965863E+02 -0.71564936945E+02  0.11189711050E+03  0.13976552717E+03  0.00000000000E+00 0.  1.
</event>
<event>
 8    1  0.3719512E-009  0.1854819E+03  0.7561462E-02  0.1162601E+00
          1   -1    0    0  501    0  0.00000000000E+00  0.00000000000E+00  0.63633404497E+03  0.63633404497E+03  0.00000000000E+00 0. -1.
         -1   -1    0    0    0  501 -0.00000000000E+00 -0.00000000000E+00 -0.74708612054E+02  0.74708612054E+02  0.00000000000E+00 0.  1.
         25    2    1    2    0    0 -0.14894696623E+03  0.25109098061E+02  0.47691386071E+03  0.51566422808E+03  0.12508836890E+03 0.  0.
         23    2    1    2    0    0  0.14894696623E+03 -0.25109098061E+02  0.84711572208E+02  0.19537842894E+03  0.90448960620E+02 0.  0.
          5    1    3    3  502    0 -0.14723096700E+02  0.56124605182E+02  0.14995322293E+03  0.16084210379E+03  0.41800000000E+01 0.  1.
         -5    1    3    3    0  502 -0.13422386953E+03 -0.31015507121E+02  0.32696063777E+03  0.35482212429E+03  0.41800000000E+01 0.  1.
        -11    1    4    4    0    0  0.15841722700E+03 -0.12105416346E+02  0.70137425268E+02  0.17367157896E+03  0.00000000000E+00 0.  1.
         11    1    4    4    0    0 -0.94702607727E+01 -0.13003681715E+02  0.14574146940E+02  0.21706849985E+02  0.00000000000E+00 0. -1.
</event>
<event>
 8    1  0.3719512E-009  0.1111084E+03  0.7561462E-02  0.1258531E+00
          2   -1    0    0  501    0  0.00000000000E+00  0.00000000000E+00  0.65004183477E+03  0.65004183477E+03  0.00000000000E+00 0.  1.
         -2   -1    0    0    0  501 -0.00000000000E+00 -0.00000000000E+00 -0.24983923197E+02  0.24983923197E+02  0.00000000000E+00 0. -1.
         25    2    1    2    0    0 -0.60950995562E+02 -0.23677729409E+02  0.30131689056E+03  0.33273643170E+03  0.12508399463E+03 0.  0.
         23    2    1    2    0    0  0.60950995562E+02  0.23677729409E+02  0.32374102101E+03  0.34228932627E+03  0.89878114468E+02 0.  0.
          5    1    3    3  502    0 -0.27543487974E+02 -0.57479517429E+02  0.63090570449E+02  0.89779903838E+02  0.41800000000E+01 0. -1.
         -5    1    3    3    0  502 -0.33407507588E+02  0.33801788020E+02  0.23822632011E+03  0.24295652786E+03  0.41800000000E+01 0. -1.
        -11    1    4    4    0    0  0.59759280568E+02 -0.22932203958E+02  0.20330623805E+03  0.21314427982E+03  0.00000000000E+00 0.  1.
         11    1    4    4    0    0  0.11917149939E+01  0.46609933367E+02  0.12043478296E+03  0.12914504644E+03  0.00000000000E+00 0. -1.
</event>
<event>
 8    1  0.3719512E-009  0.1129400E+03  0.7561462E-02  0.1255220E+00
         -1   -1    0    0    0  501 -0.00000000000E+00  0.00000000000E+00  0.32071157311E+02  0.32071157311E+02  0.00000000000E+00 0.  1.
          1   -1    0    0  501    0  0.00000000000E+00 -0.00000000000E+00 -0.61622268592E+03  0.61622268592E+03  0.00000000000E+00 0. -1.
         25    2    1    2    0    0 -0.67612797388E+01  0.88679138567E+02 -0.31254550968E+03  0.34819874862E+03  0.12509183984E+03 0.  0.
         23    2    1    2    0    0  0.67612797388E+01 -0.88679138567E+02 -0.27160601892E+03  0.30009509461E+03  0.91528857602E+02 0.  0.
          5    1    3    3  502    0  0.20035033515E+02  0.58476980895E+01  0.23955883635E+01  0.21419836239E+02  0.41800000000E+01 0.  1.
         -5    1    3    3    0  502 -0.26796313254E+02  0.82831440478E+02 -0.31494109805E+03  0.32677891238E+03  0.41800000000E+01 0.  1.
        -11    1    4    4    0    0 -0.12698396232E+02 -0.95857460093E+02 -0.16297218540E+03  0.18949890537E+03  0.00000000000E+00 0.  1.
         11    1    4    4    0    0  0.19459675971E+02  0.71783215257E+01 -0.10863383352E+03  0.11059618924E+03  0.00000000000E+00 0. -1.
</event>
<event>
 8    1  0.3719512E-009  0.1828781E+03  0.7561462E-02  0.1165046E+00
         -1   -1    0    0    0  501 -0.00000000000E+00  0.00000000000E+00  0.41204677711E+03  0.41204677711E+03  0.00000000000E+00 0.  1.
          1   -1    0    0  501    0  0.00000000000E+00 -0.00000000000E+00 -0.15463742034E+03  0.15463742034E+03  0.00000000000E+00 0. -1.
         25    2    1    2    0    0  0.14758222796E+03  0.27915027706E+02  0.32462794482E+03  0.37893283184E+03  0.12508807179E+03 0.  0.
         23    2    1    2    0    0 -0.14758222796E+03 -0.27915027706E+02 -0.67218588058E+02  0.18775136561E+03  0.90401736303E+02 0.  0.
          5    1    3    3  502    0  0.41024974744E+02 -0.46322123107E+02  0.73400762641E+02  0.96093350437E+02  0.41800000000E+01 0.  1.
         -5    1    3    3    0  502  0.10655725322E+03  0.74237150812E+02  0.25122718218E+03  0.28283948140E+03  0.41800000000E+01 0.  1.
        -11    1    4    4    0    0 -0.82949630755E+02 -0.59287164800E+02 -0.27248878821E+02  0.10553724721E+03  0.00000000000E+00 0. -1.
         11    1    4    4    0    0 -0.64632597204E+02  0.31372137094E+02 -0.39969709237E+02  0.82214118397E+02  0.00000000000E+00 0.  1.
</event>
<event>
 8    1  0.3719512E-009  0.1176034E+03  0.7561462E-02  0.1247104E+00
          2   -1    0    0  501    0  0.00000000000E+00  0.00000000000E+00  0.65986570459E+03  0.65986570459E+03  0.00000000000E+00 0. -1.
         -2   -1    0    0    0  501 -0.00000000000E+00 -0.00000000000E+00 -0.31059060952E+02  0.31059060952E+02  0.00000000000E+00 0.  1.
         25    2    1    2    0    0  0.13063834347E+02 -0.85467706954E+02  0.42910240730E+03  0.45524824088E+03  0.12508673860E+03 0.  0.
         23    2    1    2    0    0 -0.13063834347E+02  0.85467706954E+02  0.19970423634E+03  0.23567652466E+03  0.90477895451E+02 0.  0.
          5    1    3    3  502    0 -0.22507924147E+01  0.20293650441E+02  0.10766016046E+02  0.23458001113E+02  0.41800000000E+01 0. -1.
         -5    1    3    3    0  502  0.15314626762E+02 -0.10576135740E+03  0.41833639125E+03  0.43179023977E+03  0.41800000000E+01 0. -1.
        -11    1    4    4    0    0  0.24097096249E+02  0.16912113238E+02  0.12233535558E+03  0.12582777454E+03  0.00000000000E+00 0. -1.
         11    1    4    4    0    0 -0.37160930596E+02  0.68555593716E+02  0.77368880758E+02  0.10984875012E+03  0.00000000000E+00 0.  1.
</event>
<event>
 8    1  0.3719512E-009  0.1040714E+03  0.7561462E-02  0.1271960E+00
          1   -1    0    0  501    0  0.00000000000E+00  0.00000000000E+00  0.11995013450E+03  0.11995013450E+03  0.00000000000E+00 0. -1.
         -1   -1    0    0    0  501 -0.00000000000E+00 -0.00000000000E+00 -0.10951162112E+03  0.10951162112E+03  0.00000000000E+00 0.  1.
         25    2    1    2    0    0  0.18367895434E+02 -0.32539361342E+02  0.33392332065E+02  0.13475486679E+03  0.12509051388E+03 0.  0.
         23    2    1    2    0    0 -0.18367895434E+02  0.32539361342E+02 -0.22953818683E+02  0.94706888839E+02  0.83942405148E+02 0.  0.
          5    1    3    3  502    0  0.15169618736E+02 -0.73426103540E+02 -0.89913613057E+01  0.75629537826E+02  0.41800000000E+01 0. -1.
         -5    1    3    3    0  502  0.31982766984E+01  0.40886742197E+02  0.42383693370E+02  0.59125328964E+02  0.41800000000E+01 0. -1.
        -11    1    4    4    0    0  0.32124196419E+02  0.25144664476E+02 -0.11865700659E+02  0.42485444558E+02  0.00000000000E+00 0.  1.
         11    1    4    4    0    0 -0.50492091853E+02  0.73946968660E+01 -0.11088118024E+02  0.52221444280E+02  0.00000000000E+00 0. -1.
</event>
<event>
 8    1  0.3719512E-009  0.1357915E+03  0.7561462E-02  0.1219107E+00
          2   -1    0    0  501    0  0.00000000000E+00  0.00000000000E+00  0.81281933884E+03  0.81281933884E+03  0.00000000000E+00 0. -1.
         -2   -1    0    0    0  501 -0.00000000000E+00 -0.00000000000E+00 -0.28424732870E+02  0.28424732870E+02  0.00000000000E+00 0.  1.
         25    2    1    2    0    0 -0.10403660479E+03  0.18923427310E+02  0.42997399252E+03  0.46011631822E+03  0.12509069038E+03 0.  0.
         23    2    1    2    0    0  0.10403660479E+03 -0.18923427310E+02  0.35442061346E+03  0.38112775349E+03  0.91992836665E+02 0.  0.
          5    1    3    3  502    0  0.12531237678E+02 -0.23661135477E+02  0.16838340800E+03  0.17055006813E+03  0.41800000000E+01 0. -1.
         -5    1    3    3    0  502 -0.11656784247E+03  0.42584562787E+02  0.26159058451E+03  0.28956625009E+03  0.41800000000E+01 0. -1.
        -11    1    4    4    0    0  0.10855824384E+03 -0.84304292493E+01  0.35324018589E+03  0.36964116839E+03  0.00000000000E+00 0. -1.
         11    1    4    4    0    0 -0.45216390469E+01 -0.10492998060E+02  0.11804275690E+01  0.11486585098E+02  0.00000000000E+00 0.  1.
</event>
<event>
 8    1  0.3719512E-009  0.8969014E+02  0.7561462E-02  0.1303604E+00
          2   -1    0    0  501    0  0.00000000000E+00  0.00000000000E+00  0.22963304161E+03  0.22963304161E+03  0.00000000000E+00 0. -1.
         -2   -1    0    0    0  501 -0.00000000000E+00 -0.00000000000E+00 -0.79448074593E+02  0.79448074593E+02  0.00000000000E+00 0.  1.
         25    2    1    2    0    0  0.44207214715E+02 -0.11945436547E+02  0.16068000640E+03  0.20871828926E+03  0.12509311943E+03 0.  0.
         23    2    1    2    0    0 -0.44207214715E+02  0.11945436547E+02 -0.10495039380E+02  0.10036282694E+03  0.88688104572E+02 0.  0.
          5    1    3    3  502    0  0.31136639289E+02 -0.39480721617E+02  0.57710080422E+01  0.50783802727E+02  0.41800000000E+01 0.  1.
         -5    1    3    3    0  502  0.13070575426E+02  0.27535285069E+02  0.15490899836E+03  0.15793448654E+03  0.41800000000E+01 0.  1.
        -11    1    4    4    0    0 -0.62108253178E+02  0.33156810960E+02 -0.15674021640E+02  0.72128248144E+02  0.00000000000E+00 0.  1.
         11    1    4    4    0    0  0.17901038464E+02 -0.21211374412E+02  0.51789822600E+01  0.28234578796E+02  0.00000000000E+00 0. -1.
</event>
<event>
 8    1  0.3719512E-009  0.2070454E+03  0.7561462E-02  0.1143927E+00
          2   -1    0    0  501    0  0.00000000000E+00  0.00000000000E+00  0.19554359362E+04  0.19554359362E+04  0.00000000000E+00 0. -1.
         -2   -1    0    0    0  501 -0.00000000000E+00 -0.00000000000E+00 -0.46434675429E+02  0.46434675429E+02  0.00000000000E+00 0.  1.
         25    2    1    2    0    0  0.18093604744E+03 -0.60870606119E+02  0.16578097607E+04  0.16734466913E+04  0.12509013608E+03 0.  0.
         23    2    1    2    0    0 -0.18093604744E+03  0.60870606119E+02  0.25119150010E+03  0.32842392032E+03  0.91225093923E+02 0.  0.
          5    1    3    3  502    0  0.12503770402E+03  0.10464418065E+02  0.68450158134E+03  0.69591940534E+03  0.41800000000E+01 0. -1.
         -5    1    3    3    0  502  0.55898343417E+02 -0.71335024184E+02  0.97330817934E+03  0.97752728598E+03  0.41800000000E+01 0. -1.
        -11    1    4    4    0    0 -0.73171342389E+02 -0.17359429722E+01  0.40551071346E+02  0.83674657049E+02  0.00000000000E+00 0.  1.
         11    1    4    4    0    0 -0.10776470505E+03  0.62606549091E+02  0.21064042876E+03  0.24474926327E+03  0.00000000000E+00 0. -1.
</event>
<event>
 8    1  0.3719512E-009  0.1604768E+03  0.7561462E-02  0.1188159E+00
          2   -1    0    0  501    0  0.00000000000E+00  0.00000000000E+00  0.59219394264E+03  0.59219394264E+03  0.00000000000E+00 0. -1.
         -2   -1    0    0    0  501 -0.00000000000E+00 -0.00000000000E+00 -0.48953761237E+02  0.48953761237E+02  0.00000000000E+00 0.  1.
         25    2    1    2    0    0  0.57681953648E+02 -0.10523440885E+03  0.38975104862E+03  0.42656140645E+03  0.12508902824E+03 0.  0.
         23    2    1    2    0    0 -0.57681953648E+02  0.10523440885E+03  0.15348913278E+03  0.21458629743E+03  0.89927062555E+02 0.  0.
          5    1    3    3  502    0  0.60384664400E+02  0.52858199356E+01  0.17002349795E+03  0.18055389733E+03  0.41800000000E+01 0. -1.
         -5    1    3    3    0  502 -0.27027107521E+01 -0.11052022879E+03  0.21972755067E+03  0.24600750912E+03  0.41800000000E+01 0. -1.
        -11    1    4    4    0    0 -0.61478536575E+02  0.20593730750E+02  0.58836601139E+02  0.87552600413E+02  0.00000000000E+00 0. -1.
         11    1    4    4    0    0  0.37965829268E+01  0.84640678101E+02  0.94652531644E+02  0.12703369702E+03  0.00000000000E+00 0.  1.
</event>
<event>
 8    1  0.3719512E-009  0.9928467E+02  0.7561462E-02  0.1281807E+00
         -1   -1    0    0    0  501 -0.00000000000E+00  0.00000000000E+00  0.42432862212E+03  0.42432862212E+03  0.00000000000E+00 0.  1.
          1   -1    0    0  501    0  0.00000000000E+00 -0.00000000000E+00 -0.33644295601E+02  0.33644295601E+02  0.00000000000E+00 0. -1.
         25    2    1    2    0    0  0.87700565478E+01 -0.33992804386E+00  0.13593495725E+03  0.18494095868E+03  0.12509123131E+03 0.  0.
         23    2    1    2    0    0 -0.87700565478E+01  0.33992804386E+00  0.25474936927E+03  0.27303195904E+03  0.97837518746E+02 0.  0.
          5    1    3    3  502    0  0.35412359021E+02  0.52431985963E+02  0.50996386093E+02  0.81371076667E+02  0.41800000000E+01 0. -1.
         -5    1    3    3    0  502 -0.26642302473E+02 -0.52771914007E+02  0.84938571160E+02  0.10356988201E+03  0.41800000000E+01 0. -1.
        -11    1    4    4    0    0 -0.19046488795E+01  0.37782616236E+02  0.21380280029E+03  0.21712390745E+03  0.00000000000E+00 0.  1.
         11    1    4    4    0    0 -0.68654076683E+01 -0.37442688192E+02  0.40946568982E+02  0.55908051593E+02  0.00000000000E+00 0. -1.
</event>
<event>
 8    1  0.3719512E-009  0.1020125E+03  0.7561462E-02  0.1276120E+00
          3   -1    0    0  501    0  0.00000000000E+00  0.00000000000E+00  0.20215959743E+02  0.20215959743E+02  0.00000000000E+00 0. -1.
         -3   -1    0    0    0  501 -0.00000000000E+00 -0.00000000000E+00 -0.60179969785E+03  0.60179969785E+03  0.00000000000E+00 0.  1.
         25    2    1    2    0    0 -0.48348310954E+01  0.18211905176E+02 -0.33306885895E+03  0.35628371833E+03  0.12509266189E+03 0.  0.
         23    2    1    2    0    0  0.48348310954E+01 -0.18211905176E+02 -0.24851487915E+03  0.26573193926E+03  0.92188769939E+02 0.  0.
          5    1    3    3  502    0 -0.25855483728E+02 -0.45097490184E+02 -0.88276893204E+02  0.10253083406E+03  0.41800000000E+01 0. -1.
         -5    1    3    3    0  502  0.21020652633E+02  0.63309395361E+02 -0.24479196575E+03  0.25375288427E+03  0.41800000000E+01 0. -1.
        -11    1    4    4    0    0 -0.36945732025E+02 -0.22137545778E+02 -0.18245726277E+03  0.18747189332E+03  0.00000000000E+00 0.  1.
         11    1    4    4    0    0  0.41780563120E+02  0.39256406020E+01 -0.66057616379E+02  0.78260045939E+02  0.00000000000E+00 0. -1.
</event>
<event>
 8    1  0.3719512E-009  0.1752414E+03  0.7561462E-02  0.1172490E+00
         -3   -1    0    0    0  501 -0.00000000000E+00  0.00000000000E+00  0.59061453621E+03  0.59061453621E+03  0.00000000000E+00 0.  1.
          3   -1    0    0  501    0  0.00000000000E+00 -0.00000000000E+00 -0.71930759575E+02  0.71930759575E+02  0.00000000000E+00 0. -1.
         25    2    1    2    0    0 -0.17072147761E+03  0.29525818861E+02  0.30933759044E+03  0.37597178392E+03  0.12508972997E+03 0.  0.
         23    2    1    2    0    0  0.17072147761E+03 -0.29525818861E+02  0.20934618619E+03  0.28657351187E+03  0.90999753498E+02 0.  0.
          5    1    3    3  502    0 -0.46269680147E+01  0.72988122750E+01  0.13051242297E+03  0.13086499319E+03  0.41800000000E+01 0. -1.
         -5    1    3    3    0  502 -0.16609450959E+03  0.22227006586E+02  0.17882516748E+03  0.24510679073E+03  0.41800000000E+01 0. -1.
        -11    1    4    4    0    0  0.46548787850E+02 -0.79854440598E+01  0.12834820441E+03  0.13676190457E+03  0.00000000000E+00 0. -1.
         11    1    4    4    0    0  0.12417268976E+03 -0.21540374801E+02  0.80997981779E+02  0.14981160729E+03  0.00000000000E+00 0.  1.
</event>
<event>
 8    1  0.3719512E-009  0.1617041E+03  0.7561462E-02  0.1186786E+00
          1   -1    0    0  501    0  0.00000000000E+00  0.00000000000E+00  0.13210749632E+04  0.13210749632E+04  0.00000000000E+00 0. -1.
         -1   -1    0    0    0  501 -0.00000000000E+00 -0.00000000000E+00 -0.27402210232E+02  0.27402210232E+02  0.00000000000E+00 0.  1.
         25    2    1    2    0    0  0.55602823912E+02  0.12594741962E+03  0.93505488226E+03  0.95337781282E+03  0.12508874691E+03 0.  0.
         23    2    1    2    0    0 -0.55602823912E+02 -0.12594741962E+03  0.35861787069E+03  0.39509936060E+03  0.92424569400E+02 0.  0.
          5    1    3    3  502    0  0.14521293539E+02  0.14098048694E+03  0.73539358490E+03  0.74893762276E+03  0.41800000000E+01 0. -1.
         -5    1    3    3    0  502  0.41081530372E+02 -0.15033067322E+02  0.19966129735E+03  0.20444019006E+03  0.41800000000E+01 0. -1.
        -11    1    4    4    0    0 -0.25908581459E+02 -0.58402451489E+02  0.60514740227E+02  0.88000765439E+02  0.00000000000E+00 0.  1.
         11    1    4    4    0    0 -0.29694242453E+02 -0.67544968126E+02  0.29810313047E+03  0.30709859516E+03  0.00000000000E+00 0. -1.
</event>
<event>
 8    1  0.3719512E-009  0.1064912E+03  0.7561462E-02  0.1267209E+00
         -2   -1    0    0    0  501 -0.00000000000E+00  0.00000000000E+00  0.40909845658E+02  0.40909845658E+02  0.00000000000E+00 0. -1.
          2   -1    0    0  501    0  0.00000000000E+00 -0.00000000000E+00 -0.41780183390E+03  0.41780183390E+03  0.00000000000E+00 0.  1.
         25    2    1    2    0    0 -0.76121493523E+02 -0.65652292353E+01 -0.20416570170E+03  0.25133291538E+03  0.12508803537E+03 0.  0.
         23    2    1    2    0    0  0.76121493523E+02  0.65652292353E+01 -0.17272628654E+03  0.20737876418E+03  0.85638763166E+02 0.  0.
          5    1    3    3  502    0 -0.82902222594E+02  0.36495251597E+02 -0.17942546579E+03  0.20103644464E+03  0.41800000000E+01 0.  1.
         -5    1    3    3    0  502  0.67807290706E+01 -0.43060480832E+02 -0.24740235908E+02  0.50296470741E+02  0.41800000000E+01 0.  1.
        -11    1    4    4    0    0  0.19233339077E+02  0.96998404526E+01  0.38110157410E+01  0.21875376061E+02  0.00000000000E+00 0. -1.
         11    1    4    4    0    0  0.56888154447E+02 -0.31346112173E+01 -0.17653730228E+03  0.18550338811E+03  0.00000000000E+00 0.  1.
</event>
<event>
 8    1  0.3719512E-009  0.8735252E+02  0.7561462E-02  0.1309393E+00
         -4   -1    0    0    0  501 -0.00000000000E+00  0.00000000000E+00  0.15788530519E+03  0.15788530519E+03  0.00000000000E+00 0.  1.
          4   -1    0    0  501    0  0.00000000000E+00 -0.00000000000E+00 -0.89711853589E+02  0.89711853589E+02  0.00000000000E+00 0. -1.
         25    2    1    2    0    0  0.12632546247E+02 -0.21995921352E+02  0.82860721399E+02  0.15217136104E+03  0.12508725829E+03 0.  0.
         23    2    1    2    0    0 -0.12632546247E+02  0.21995921352E+02 -0.14687269802E+02  0.95425797741E+02  0.90812803059E+02 0.  0.
          5    1    3    3  502    0 -0.49674222378E+01  0.48187640720E+02  0.10476700666E+02  0.49738894828E+02  0.41800000000E+01 0. -1.
         -5    1    3    3    0  502  0.17599968485E+02 -0.70183562072E+02  0.72384020733E+02  0.10243246621E+03  0.41800000000E+01 0. -1.
        -11    1    4    4    0    0 -0.26725305267E+02 -0.87600617141E+00  0.31913940897E+02  0.41635429048E+02  0.00000000000E+00 0.  1.
         11    1    4    4    0    0  0.14092759020E+02  0.22871927524E+02 -0.46601210699E+02  0.53790368692E+02  0.00000000000E+00 0. -1.
</event>
<event>
 8    1  0.3719512E-009  0.9430859E+02  0.7561462E-02  0.1292741E+00
          1   -1    0    0  501    0  0.00000000000E+00  0.00000000000E+00  0.12754458349E+03  0.12754458349E+03  0.00000000000E+00 0. -1.
         -1   -1    0    0    0  501 -0.00000000000E+00 -0.00000000000E+00 -0.22225590885E+03  0.22225590885E+03  0.00000000000E+00 0.  1.
         25    2    1    2    0    0  0.55725519465E+02 -0.16019103987E+02 -0.16975706361E+03  0.21869457427E+03  0.12509161026E+03 0.  0.
         23    2    1    2    0    0 -0.55725519465E+02  0.16019103987E+02  0.75045738246E+02  0.13110591807E+03  0.90525983623E+02 0.  0.
          5    1    3    3  502    0  0.80509706953E+02 -0.29288215480E+02 -0.16984287285E+03  0.19027266313E+03  0.41800000000E+01 0.  1.
         -5    1    3    3    0  502 -0.24784187487E+02  0.13269111493E+02  0.85809240493E-01  0.28421911133E+02  0.41800000000E+01 0.  1.
        -11    1    4    4    0    0 -0.14601159580E+01  0.19960287084E+02  0.74030545078E+02  0.76688112532E+02  0.00000000000E+00 0. -1.
         11    1    4    4    0    0 -0.54265403507E+02 -0.39411830971E+01  0.10151931677E+01  0.54417805535E+02  0.00000000000E+00 0.  1.
</event>
<event>
 8    1  0.3719512E-009  0.1117752E+03  0.7561462E-02  0.1257317E+00
          1   -1    0    0  501    0  0.00000000000E+00  0.00000000000E+00  0.38160751718E+03  0.38160751718E+03  0.00000000000E+00 0. -1.
         -1   -1    0    0    0  501 -0.00000000000E+00 -0.00000000000E+00 -0.41480434440E+02  0.41480434440E+02  0.00000000000E+00 0.  1.
         25    2    1    2    0    0  0.58535003640E+02 -0.12861256013E+02  0.15249197576E+03  0.20614123090E+03  0.12509454764E+03 0.  0.
         23    2    1    2    0    0 -0.58535003640E+02  0.12861256013E+02  0.18763510697E+03  0.21694672071E+03  0.90924076582E+02 0.  0.
          5    1    3    3  502    0 -0.10563328061E+02  0.31550368822E+02  0.10704362393E+03  0.11217316745E+03  0.41800000000E+01 0.  1.
         -5    1    3    3    0  502  0.69098331701E+02 -0.44411624835E+02  0.45448351838E+02  0.93968063454E+02  0.41800000000E+01 0.  1.
        -11    1    4    4    0    0 -0.10541914496E+02 -0.37054865659E+02  0.82565042161E+02  0.91110818333E+02  0.00000000000E+00 0.  1.
         11    1    4    4    0    0 -0.47993089144E+02  0.49916121672E+02  0.10507006481E+03  0.12583590238E+03  0.00000000000E+00 0. -1.
</event>
<event>
 8    1  0.3719512E-009  0.8025649E+02  0.7561462E-02  0.1328325E+00
         -4   -1    0    0    0  501 -0.00000000000E+00  0.00000000000E+00  0.69218257951E+02  0.69218257951E+02  0.00000000000E+00 0.  1.
          4   -1    0    0  501    0  0.00000000000E+00 -0.00000000000E+00 -0.18592511644E+03  0.18592511644E+03  0.00000000000E+00 0. -1.
         25    2    1    2    0    0 -0.26336461860E+01  0.24897945919E+01 -0.10596138833E+03  0.16397634861E+03  0.12508913588E+03 0.  0.
         23    2    1    2    0    0  0.26336461860E+01 -0.24897945919E+01 -0.10745470158E+02  0.91167025787E+02  0.90458975744E+02 0.  0.
          5    1    3    3  502    0  0.50309110120E+01 -0.45673335507E+02 -0.10536533694E+03  0.11502473765E+03  0.41800000000E+01 0. -1.
         -5    1    3    3    0  502 -0.76645571980E+01  0.48163130099E+02 -0.59605138956E+00  0.48951610957E+02  0.41800000000E+01 0. -1.
        -11    1    4    4    0    0  0.32065672943E+02 -0.12385629050E+02  0.25969844933E+02  0.43081829512E+02  0.00000000000E+00 0.  1.
         11    1    4    4    0    0 -0.29432026757E+02  0.98958344579E+01 -0.36715315090E+02  0.48085196275E+02  0.00000000000E+00 0. -1.
</event>
<event>
 8    1  0.3719512E-009  0.6574598E+02  0.7561462E-02  0.1375187E+00
         -2   -1    0    0    0  501 -0.00000000000E+00  0.00000000000E+00  0.55302291223E+02  0.55302291223E+02  0.00000000000E+00 0.  1.
          2   -1    0    0  501    0  0.00000000000E+00 -0.00000000000E+00 -0.22723030163E+03  0.22723030163E+03  0.00000000000E+00 0. -1.
         25    2    1    2    0    0  0.13142255099E+01  0.34184831103E+02 -0.95728037114E+02  0.16118761938E+03  0.12508901505E+03 0.  0.
         23    2    1    2    0    0 -0.13142255099E+01 -0.34184831103E+02 -0.76199973293E+02  0.12134497347E+03  0.88021797246E+02 0.  0.
          5    1    3    3  502    0 -0.31495950422E+02  0.12953078259E+02 -0.11311921454E+03  0.11820831709E+03  0.41800000000E+01 0.  1.
         -5    1    3    3    0  502  0.32810175932E+02  0.21231752845E+02  0.17391177429E+02  0.42979302297E+02  0.41800000000E+01 0.  1.
        -11    1    4    4    0    0 -0.18537262268E+02  0.11454641840E+01  0.13798948105E+02  0.23137699743E+02  0.00000000000E+00 0.  1.
         11    1    4    4    0    0  0.17223036758E+02 -0.35330295287E+02 -0.89998921397E+02  0.98207273727E+02  0.00000000000E+00 0. -1.
</event>
<event>
 8    1  0.3719512E-009  0.1466524E+03  0.7561462E-02  0.1204648E+00
         -1   -1    0    0    0  501 -0.00000000000E+00  0.00000000000E+00  0.63213529904E+02  0.63213529904E+02  0.00000000000E+00 0.  1.
          1   -1    0    0  501    0  0.00000000000E+00 -0.00000000000E+00 -0.47430327575E+03  0.47430327575E+03  0.00000000000E+00 0. -1.
         25    2    1    2    0    0  0.12383724533E+03 -0.14989126837E+02 -0.13914417036E+03  0.22487616588E+03  0.12509137694E+03 0.  0.
         23    2    1    2    0    0 -0.12383724533E+03  0.14989126837E+02 -0.27194557548E+03  0.31264063977E+03  0.90716240858E+02 0.  0.
          5    1    3    3  502    0  0.60404636039E+02  0.23402532454E+02  0.24804928566E+01  0.64961710454E+02  0.41800000000E+01 0.  1.
         -5    1    3    3    0  502  0.63432609289E+02 -0.38391659292E+02 -0.14162466322E+03  0.15991445543E+03  0.41800000000E+01 0.  1.
        -11    1    4    4    0    0 -0.12548978190E+03  0.37953065980E+02 -0.23544303489E+03  0.26948384601E+03  0.00000000000E+00 0.  1.
         11    1    4    4    0    0  0.16525365755E+01 -0.22963939143E+02 -0.36502540589E+02  0.43156793759E+02  0.00000000000E+00 0. -1.
</event>
<event>
 8    1  0.3719512E-009  0.2429506E+03  0.7561462E-02  0.1117843E+00
         -4   -1    0    0    0  501 -0.00000000000E+00  0.00000000000E+00  0.58085803956E+03  0.58085803956E+03  0.00000000000E+00 0.  1.
          4   -1    0    0  501    0  0.00000000000E+00 -0.00000000000E+00 -0.10594682334E+03  0.10594682334E+03  0.00000000000E+00 0. -1.
         25    2    1    2    0    0 -0.16003474063E+03  0.15425322058E+03  0.25221144342E+03  0.35869649437E+03  0.12508952238E+03 0.  0.
         23    2    1    2    0    0  0.16003474063E+03 -0.15425322058E+03  0.22269977280E+03  0.32810836854E+03  0.93030846660E+02 0.  0.
          5    1    3    3  502    0 -0.13286216001E+03  0.42708461779E+02  0.12658419382E+03  0.18846059746E+03  0.41800000000E+01 0.  1.
         -5    1    3    3    0  502 -0.27172580623E+02  0.11154475880E+03  0.12562724960E+03  0.17023589691E+03  0.41800000000E+01 0.  1.
        -11    1    4    4    0    0  0.12525928667E+03 -0.15140991912E+03  0.21700376556E+03  0.29275499444E+03  0.00000000000E+00 0.  1.
         11    1    4    4    0    0  0.34775453962E+02 -0.28433014600E+01  0.56960072456E+01  0.35353374097E+02  0.00000000000E+00 0. -1.
</event>
<event>
 8    1  0.3719512E-009  0.9269103E+02  0.7561462E-02  0.1296463E+00
         -1   -1    0    0    0  501 -0.00000000000E+00  0.00000000000E+00  0.61550436359E+02  0.61550436359E+02  0.00000000000E+00 0.  1.
          1   -1    0    0  501    0  0.00000000000E+00 -0.00000000000E+00 -0.23763654119E+03  0.23763654119E+03  0.00000000000E+00 0. -1.
         25    2    1    2    0    0 -0.50655105306E+02 -0.79426861422E+01 -0.81541891831E+02  0.15787692733E+03  0.12508804141E+03 0.  0.
         23    2    1    2    0    0  0.50655105306E+02  0.79426861422E+01 -0.94544212996E+02  0.14131005021E+03  0.91656402521E+02 0.  0.
          5    1    3    3  502    0 -0.47254818788E+02  0.50834119202E+02 -0.68135790441E+02  0.97350315422E+02  0.41800000000E+01 0.  1.
         -5    1    3    3    0  502 -0.34002865180E+01 -0.58776805344E+02 -0.13406101391E+02  0.60526611911E+02  0.41800000000E+01 0.  1.
        -11    1    4    4    0    0  0.40106635322E+02 -0.46785921140E+01 -0.11095550120E+03  0.11807436076E+03  0.00000000000E+00 0. -1.
         11    1    4    4    0    0  0.10548469984E+02  0.12621278256E+02  0.16411288207E+02  0.23235689455E+02  0.00000000000E+00 0.  1.
</event>
<event>
 8    1  0.3719512E-009  0.1191240E+03  0.7561462E-02  0.1244549E+00
         -2   -1    0    0    0  501 -0.00000000000E+00  0.00000000000E+00  0.61397889823E+03  0.61397889823E+03  0.00000000000E+00 0. -1.
          2   -1    0    0  501    0  0.00000000000E+00 -0.00000000000E+00 -0.27293879994E+02  0.27293879994E+02  0.00000000000E+00 0.  1.
         25    2    1    2    0    0  0.41193142536E+02  0.12106021853E+02  0.19888738731E+03  0.23884467733E+03  0.12508859380E+03 0.  0.
         23    2    1    2    0    0 -0.41193142536E+02 -0.12106021853E+02  0.38779763092E+03  0.40242810090E+03  0.98579628137E+02 0.  0.
          5    1    3    3  502    0 -0.44509894186E+02  0.86753686980E+01  0.56518893007E+02  0.72582713984E+02  0.41800000000E+01 0. -1.
         -5    1    3    3    0  502  0.85703036722E+02  0.34306531553E+01  0.14236849430E+03  0.16626196334E+03  0.41800000000E+01 0. -1.
        -11    1    4    4    0    0 -0.43351038368E+02 -0.51536848872E+02  0.26577326819E+03  0.27417291880E+03  0.00000000000E+00 0. -1.
         11    1    4    4    0    0  0.21578958317E+01  0.39430827019E+02  0.12202436274E+03  0.12825518210E+03  0.00000000000E+00 0.  1.
</event>
<event>
 8    1  0.3719512E-009  0.1104269E+03  0.7561462E-02  0.1259781E+00
          1   -1    0    0  501    0  0.00000000000E+00  0.00000000000E+00  0.94547647539E+02  0.94547647539E+02  0.00000000000E+00 0. -1.
         -1   -1    0    0    0  501 -0.00000000000E+00 -0.00000000000E+00 -0.16691661416E+03  0.16691661416E+03  0.00000000000E+00 0.  1.
         25    2    1    2    0    0  0.15382626386E+02  0.54434492930E+02 -0.69381908446E+02  0.15382506551E+03  0.12509421387E+03 0.  0.
         23    2    1    2    0    0 -0.15382626386E+02 -0.54434492930E+02 -0.29870581740E+01  0.10763919619E+03  0.91528874267E+02 0.  0.
          5    1    3    3  502    0 -0.19598747473E+02 -0.34686223628E+02 -0.10735053479E+02  0.41472385816E+02  0.41800000000E+01 0.  1.
         -5    1    3    3    0  502  0.34981373859E+02  0.89120716557E+02 -0.58646854967E+02  0.11235267969E+03  0.41800000000E+01 0.  1.
        -11    1    4    4    0    0 -0.26203662865E+02  0.31305871557E+01  0.30369660488E+02  0.40233677456E+02  0.00000000000E+00 0. -1.
         11    1    4    4    0    0  0.10821036478E+02 -0.57565080085E+02 -0.33356718662E+02  0.67405518733E+02  0.00000000000E+00 0.  1.
</event>
<event>
 8    1  0.3719512E-009  0.1118561E+03  0.7561462E-02  0.1257171E+00
         -2   -1    0    0    0  501 -0.00000000000E+00  0.00000000000E+00  0.27312172112E+03  0.27312172112E+03  0.00000000000E+00 0.  1.
          2   -1    0    0  501    0  0.00000000000E+00 -0.00000000000E+00 -0.64482852263E+02  0.64482852263E+02  0.00000000000E+00 0. -1.
         25    2    1    2    0    0  0.14369523457E+02  0.50290993633E+02  0.45422493690E+02  0.14298889629E+03  0.12508778631E+03 0.  0.
         23    2    1    2    0    0 -0.14369523457E+02 -0.50290993633E+02  0.16321637517E+03  0.19461567710E+03  0.92195495575E+02 0.  0.
          5    1    3    3  502    0  0.56187748853E+02  0.59932344602E+01 -0.13377669688E+02  0.58218694822E+02  0.41800000000E+01 0. -1.
         -5    1    3    3    0  502 -0.41818225396E+02  0.44297759173E+02  0.58800163378E+02  0.84770201464E+02  0.41800000000E+01 0. -1.
        -11    1    4    4    0    0 -0.35212707911E+02  0.14385240852E+02  0.59787799185E+02  0.70862196439E+02  0.00000000000E+00 0. -1.
         11    1    4    4    0    0  0.20843184454E+02 -0.64676234485E+02  0.10342857598E+03  0.12375348066E+03  0.00000000000E+00 0.  1.
</event>
<event>
 8    1  0.3719512E-009  0.3161604E+03  0.7561462E-02  0.1077430E+00
          2   -1    0    0  501    0  0.00000000000E+00  0.00000000000E+00  0.15538119113E+04  0.15538119113E+04  0.00000000000E+00 0. -1.
         -2   -1    0    0    0  501 -0.00000000000E+00 -0.00000000000E+00 -0.67854522169E+02  0.67854522169E+02  0.00000000000E+00 0.  1.
         25    2    1    2    0    0  0.30127679483E+03  0.45101994027E+02  0.70469184792E+03  0.77784296670E+03  0.12508870189E+03 0.  0.
         23    2    1    2    0    0 -0.30127679483E+03 -0.45101994027E+02  0.78126554122E+03  0.84382346679E+03  0.94129167810E+02 0.  0.
          5    1    3    3  502    0  0.73464920082E+02  0.48739072710E+02  0.11030363023E+03  0.14126908697E+03  0.41800000000E+01 0. -1.
         -5    1    3    3    0  502  0.22781187475E+03 -0.36370786832E+01  0.59438821769E+03  0.63657387973E+03  0.41800000000E+01 0. -1.
        -11    1    4    4    0    0 -0.70717308673E+02  0.25307461772E+02  0.14252460561E+03  0.16110452685E+03  0.00000000000E+00 0.  1.
         11    1    4    4    0    0 -0.23055948615E+03 -0.70409455799E+02  0.63874093561E+03  0.68271893994E+03  0.00000000000E+00 0. -1.
</event>
<event>
 8    1  0.3719512E-009  0.9461829E+02  0.7561462E-02  0.1292038E+00
         -1   -1    0    0    0  501 -0.00000000000E+00  0.00000000000E+00  0.52095489280E+02  0.52095489280E+02  0.00000000000E+00 0.  1.
          1   -1    0    0  501    0  0.00000000000E+00 -0.00000000000E+00 -0.23038793166E+03  0.23038793166E+03  0.00000000000E+00 0. -1.
         25    2    1    2    0    0 -0.16938441419E+02  0.65186699715E+01 -0.95393113946E+02  0.15835776501E+03  0.12509169314E+03 0.  0.
         23    2    1    2    0    0  0.16938441419E+02 -0.65186699715E+01 -0.82899328430E+02  0.12412565593E+03  0.90584082211E+02 0.  0.
          5    1    3    3  502    0 -0.39997602706E+02  0.57546650490E+02 -0.55058168181E+02  0.89220510468E+02  0.41800000000E+01 0.  1.
         -5    1    3    3    0  502  0.23059161287E+02 -0.51027980518E+02 -0.40334945765E+02  0.69137254537E+02  0.41800000000E+01 0.  1.
        -11    1    4    4    0    0  0.28233566694E+02  0.19635006061E+02  0.21250048601E+01  0.34455527814E+02  0.00000000000E+00 0.  1.
         11    1    4    4    0    0 -0.11295125274E+02 -0.26153676033E+02 -0.85024333290E+02  0.89670128116E+02  0.00000000000E+00 0. -1.
</event>
<event>
 8    1  0.3719512E-009  0.2031398E+03  0.7561462E-02  0.1147117E+00
          1   -1    0    0  501    0  0.00000000000E+00  0.00000000000E+00  0.32113391535E+03  0.32113391535E+03  0.00000000000E+00 0. -1.
         -1   -1    0    0    0  501 -0.00000000000E+00 -0.00000000000E+00 -0.13057240321E+03  0.13057240321E+03  0.00000000000E+00 0.  1.
         25    2    1    2    0    0  0.16167413733E+03  0.63406421050E+02  0.78212584768E+02  0.22786908437E+03  0.12509280669E+03 0.  0.
         23    2    1    2    0    0 -0.16167413733E+03 -0.63406421050E+02  0.11234892737E+03  0.22383723419E+03  0.85568247705E+02 0.  0.
          5    1    3    3  502    0  0.64402297003E+02 -0.36698505758E+02  0.23236364921E+02  0.77793555253E+02  0.41800000000E+01 0.  1.
         -5    1    3    3    0  502  0.97271840328E+02  0.10010492681E+03  0.54976219847E+02  0.15007552912E+03  0.41800000000E+01 0.  1.
        -11    1    4    4    0    0 -0.14816938010E+03 -0.23193169939E+02  0.76817919272E+02  0.16850246601E+03  0.00000000000E+00 0. -1.
         11    1    4    4    0    0 -0.13504757235E+02 -0.40213251111E+02  0.35531008095E+02  0.55334768176E+02  0.00000000000E+00 0.  1.
</event>
<event>
 8    1  0.3719512E-009  0.1748201E+03  0.7561462E-02  0.1172912E+00
         -2   -1    0    0    0  501 -0.00000000000E+00  0.00000000000E+00  0.41853185761E+02  0.41853185761E+02  0.00000000000E+00 0.  1.
          2   -1    0    0  501    0  0.00000000000E+00 -0.00000000000E+00 -0.84003314367E+03  0.84003314367E+03  0.00000000000E+00 0. -1.
         25    2    1    2    0    0 -0.10001770669E+03 -0.11053378892E+03 -0.34558638358E+03  0.39660849377E+03  0.12508832349E+03 0.  0.
         23    2    1    2    0    0  0.10001770669E+03  0.11053378892E+03 -0.45259357434E+03  0.48527783566E+03  0.91827959305E+02 0.  0.
          5    1    3    3  502    0 -0.76631793989E+02 -0.16664062918E+02 -0.72570966066E+02  0.10693053988E+03  0.41800000000E+01 0.  1.
         -5    1    3    3    0  502 -0.23385912700E+02 -0.93869726006E+02 -0.27301541751E+03  0.28967795389E+03  0.41800000000E+01 0.  1.
        -11    1    4    4    0    0  0.60882695858E+02  0.42658260008E+01 -0.13693943577E+03  0.14992434424E+03  0.00000000000E+00 0.  1.
         11    1    4    4    0    0  0.39135010831E+02  0.10626796292E+03 -0.31565413856E+03  0.33535349142E+03  0.00000000000E+00 0. -1.
</event>
<event>
 8    1  0.3719512E-009  0.1071399E+03  0.7561462E-02  0.1265960E+00
         -1   -1    0    0    0  501 -0.00000000000E+00  0.00000000000E+00  0.42143709761E+02  0.42143709761E+02  0.00000000000E+00 0.  1.
          1   -1    0    0  501    0  0.00000000000E+00 -0.00000000000E+00 -0.41054319034E+03  0.41054319034E+03  0.00000000000E+00 0. -1.
         25    2    1    2    0    0  0.20191183215E+02 -0.17751601995E+02 -0.85665116908E+02  0.15397765208E+03  0.12509117408E+03 0.  0.
         23    2    1    2    0    0 -0.20191183215E+02  0.17751601995E+02 -0.28273436367E+03  0.29870924802E+03  0.92551019439E+02 0.  0.
          5    1    3    3  502    0  0.32864711220E+02 -0.64537148764E+02 -0.26162940431E+02  0.77117473157E+02  0.41800000000E+01 0. -1.
         -5    1    3    3    0  502 -0.12673528006E+02  0.46785546769E+02 -0.59502176477E+02  0.76860178923E+02  0.41800000000E+01 0. -1.
        -11    1    4    4    0    0  0.15284715963E+02  0.45529862296E+02 -0.10688776611E+03  0.11718184777E+03  0.00000000000E+00 0. -1.
         11    1    4    4    0    0 -0.35475899178E+02 -0.27778260302E+02 -0.17584659755E+03  0.18152740024E+03  0.00000000000E+00 0.  1.
</event>
<event>
 8    1  0.3719512E-009  0.1248267E+03  0.7561462E-02  0.1235340E+00
          1   -1    0    0  501    0  0.00000000000E+00  0.00000000000E+00  0.12543720953E+04  0.12543720953E+04  0.00000000000E+00 0. -1.
         -1   -1    0    0    0  501 -0.00000000000E+00 -0.00000000000E+00 -0.14408131122E+02  0.14408131122E+02  0.00000000000E+00 0.  1.
         25    2    1    2    0    0  0.11259903835E+02 -0.59332767267E+02  0.90708880953E+03  0.91766246293E+03  0.12508846783E+03 0.  0.
         23    2    1    2    0    0 -0.11259903835E+02  0.59332767267E+02  0.33287515460E+03  0.35111776344E+03  0.93971551823E+02 0.  0.
          5    1    3    3  502    0 -0.35640430653E+01 -0.97495407843E+02  0.65381311316E+03  0.66106513771E+03  0.41800000000E+01 0.  1.
         -5    1    3    3    0  502  0.14823946900E+02  0.38162640576E+02  0.25327569638E+03  0.25659732522E+03  0.41800000000E+01 0.  1.
        -11    1    4    4    0    0 -0.50242962760E+02  0.49749499514E+02  0.23246999064E+03  0.24298490602E+03  0.00000000000E+00 0. -1.
         11    1    4    4    0    0  0.38983058925E+02  0.95832677534E+01  0.10040516396E+03  0.10813285742E+03  0.00000000000E+00 0.  1.
</event>
<event>
 8    1  0.3719512E-009  0.9949112E+02  0.7561462E-02  0.1281370E+00
         -2   -1    0    0    0  501 -0.00000000000E+00  0.00000000000E+00  0.14888483248E+03  0.14888483248E+03  0.00000000000E+00 0.  1.
          2   -1    0    0  501    0  0.00000000000E+00 -0.00000000000E+00 -0.13392361535E+03  0.13392361535E+03  0.00000000000E+00 0. -1.
         25    2    1    2    0    0  0.21786125868E+02 -0.52272584953E+02  0.77903439774E+02  0.15787058066E+03  0.12508843229E+03 0.  0.
         23    2    1    2    0    0 -0.21786125868E+02  0.52272584953E+02 -0.62942222641E+02  0.12493786716E+03  0.91873221570E+02 0.  0.
          5    1    3    3  502    0  0.41821682903E+01  0.31953060180E+02  0.62379230331E+02  0.70335832711E+02  0.41800000000E+01 0. -1.
         -5    1    3    3    0  502  0.17603957578E+02 -0.84225645132E+02  0.15524209443E+02  0.87534747953E+02  0.41800000000E+01 0. -1.
        -11    1    4    4    0    0 -0.41317244211E+02  0.32729658706E+02  0.36551041078E+01  0.52836587837E+02  0.00000000000E+00 0.  1.
         11    1    4    4    0    0  0.19531118343E+02  0.19542926246E+02 -0.66597326749E+02  0.72101279323E+02  0.00000000000E+00 0. -1.
</event>
<event>
 8    1  0.3719512E-009  0.1762765E+03  0.7561462E-02  0.1171456E+00
          2   -1    0    0  501    0  0.00000000000E+00  0.00000000000E+00  0.20183330377E+03  0.20183330377E+03  0.00000000000E+00 0. -1.
         -2   -1    0    0    0  501 -0.00000000000E+00 -0.00000000000E+00 -0.16481025869E+03  0.16481025869E+03  0.00000000000E+00 0.  1.
         25    2    1    2    0    0  0.13587222766E+03  0.50189857184E+02 -0.10242091349E+01  0.19139664338E+03  0.12510532395E+03 0.  0.
         23    2    1    2    0    0 -0.13587222766E+03 -0.50189857184E+02  0.38047254211E+02  0.17524691908E+03  0.91014312508E+02 0.  0.
          5    1    3    3  502    0 -0.66173881309E+01  0.45089890215E+02  0.14268896341E+02  0.47937061112E+02  0.41800000000E+01 0. -1.
         -5    1    3    3    0  502  0.14248961579E+03  0.50999669692E+01 -0.15293105476E+02  0.14345958227E+03  0.41800000000E+01 0. -1.
        -11    1    4    4    0    0 -0.18607036000E+02  0.20130724825E+02 -0.11617269588E+02  0.29772954562E+02  0.00000000000E+00 0.  1.
         11    1    4    4    0    0 -0.11726519166E+03 -0.70320582009E+02  0.49664523799E+02  0.14547396452E+03  0.00000000000E+00 0. -1.
</event>
<event>
 8    1  0.3719512E-009  0.2993143E+03  0.7561462E-02  0.1085584E+00
         -1   -1    0    0    0  501 -0.00000000000E+00  0.00000000000E+00  0.10091186604E+03  0.10091186604E+03  0.00000000000E+00 0.  1.
          1   -1    0    0  501    0  0.00000000000E+00 -0.00000000000E+00 -0.97114191194E+03  0.97114191194E+03  0.00000000000E+00 0. -1.
         25    2    1    2    0    0 -0.21421262197E+03 -0.19840997084E+03 -0.50150035464E+03  0.59363602241E+03  0.12509019730E+03 0.  0.
         23    2    1    2    0    0  0.21421262197E+03  0.19840997084E+03 -0.36872969126E+03  0.47841775557E+03  0.87569399293E+02 0.  0.
          5    1    3    3  502    0 -0.15553474335E+03 -0.16665382470E+03 -0.46399059571E+03  0.51698094645E+03  0.41800000000E+01 0. -1.
         -5    1    3    3    0  502 -0.58677878618E+02 -0.31756146130E+02 -0.37509758925E+02  0.76655075962E+02  0.41800000000E+01 0. -1.
        -11    1    4    4    0    0  0.15485144991E+03  0.18791999191E+03 -0.31064222436E+03  0.39470430255E+03  0.00000000000E+00 0.  1.
         11    1    4    4    0    0  0.59361172053E+02  0.10489978929E+02 -0.58087466898E+02  0.83713453017E+02  0.00000000000E+00 0. -1.
</event>
<event>
 8    1  0.3719512E-009  0.9578400E+02  0.7561462E-02  0.1289420E+00
         -1   -1    0    0    0  501 -0.00000000000E+00  0.00000000000E+00  0.48421929984E+03  0.48421929984E+03  0.00000000000E+00 0.  1.
          1   -1    0    0  501    0  0.00000000000E+00 -0.00000000000E+00 -0.28312318508E+02  0.28312318508E+02  0.00000000000E+00 0. -1.
         25    2    1    2    0    0  0.25878009788E+00 -0.41072559078E+02  0.21031288211E+03  0.24812704408E+03  0.12509396288E+03 0.  0.
         23    2    1    2    0    0 -0.25878009788E+00  0.41072559078E+02  0.24559409922E+03  0.26440457427E+03  0.88917350627E+02 0.  0.
          5    1    3    3  502    0 -0.52102441290E+01  0.33775565421E+02  0.14346157675E+03  0.14753518857E+03  0.41800000000E+01 0.  1.
         -5    1    3    3    0  502  0.54690242269E+01 -0.74848124499E+02  0.66851305360E+02  0.10059185551E+03  0.41800000000E+01 0.  1.
        -11    1    4    4    0    0 -0.85708392562E+01 -0.19255202932E+02  0.14908761781E+02  0.25816531590E+02  0.00000000000E+00 0. -1.
         11    1    4    4    0    0  0.83120591583E+01  0.60327762010E+02  0.23068533744E+03  0.23858804268E+03  0.00000000000E+00 0.  1.
</event>
<event>
 8    1  0.3719512E-009  0.1006509E+03  0.7561462E-02  0.1278933E+00
         -2   -1    0    0    0  501 -0.00000000000E+00  0.00000000000E+00  0.16873321998E+02  0.16873321998E+02  0.00000000000E+00 0.  1.
          2   -1    0    0  501    0  0.00000000000E+00 -0.00000000000E+00 -0.12840475030E+04  0.12840475030E+04  0.00000000000E+00 0. -1.
         25    2    1    2    0    0  0.63395751986E+02  0.42875143273E+02 -0.96582187844E+03  0.97689135067E+03  0.12509001103E+03 0.  0.
         23    2    1    2    0    0 -0.63395751986E+02 -0.42875143273E+02 -0.30135230260E+03  0.32402947437E+03  0.91239194949E+02 0.  0.
          5    1    3    3  502    0  0.80169929375E+02  0.17492983018E+02 -0.90532946268E+03  0.90905012537E+03  0.41800000000E+01 0.  1.
         -5    1    3    3    0  502 -0.16774177389E+02  0.25382160255E+02 -0.60492415760E+02  0.67841225304E+02  0.41800000000E+01 0.  1.
        -11    1    4    4    0    0 -0.56954498562E+02 -0.13737075766E+02 -0.28298987537E+03  0.28899098899E+03  0.00000000000E+00 0. -1.
         11    1    4    4    0    0 -0.64412534240E+01 -0.29138067507E+02 -0.18362427237E+02  0.35038485380E+02  0.00000000000E+00 0.  1.
</event>
<event>
 8    1  0.3719512E-009  0.9529665E+02  0.7561462E-02  0.1290509E+00
          1   -1    0    0  501    0  0.00000000000E+00  0.00000000000E+00  0.96487830324E+03  0.96487830324E+03  0.00000000000E+00 0. -1.
         -1   -1    0    0    0  501 -0.00000000000E+00 -0.00000000000E+00 -0.19801163484E+02  0.19801163484E+02  0.00000000000E+00 0.  1.
         25    2    1    2    0    0 -0.49541774046E+02  0.16486498911E+02  0.75622747711E+03  0.76827770630E+03  0.12507775513E+03 0.  0.
         23    2    1    2    0    0  0.49541774046E+02 -0.16486498911E+02  0.18884966265E+03  0.21640176043E+03  0.91865852276E+02 0.  0.
          5    1    3    3  502    0  0.64020610893E+01 -0.38098117507E+02  0.46802216508E+03  0.46963248647E+03  0.41800000000E+01 0.  1.
         -5    1    3    3    0  502 -0.55943835135E+02  0.54584616419E+02  0.28820531204E+03  0.29864521983E+03  0.41800000000E+01 0.  1.
        -11    1    4    4    0    0 -0.65794060421E+01  0.95490439902E+01 -0.52146426220E+01  0.12714767897E+02  0.00000000000E+00 0.  1.
         11    1    4    4    0    0  0.56121180088E+02 -0.26035542901E+02  0.19406430527E+03  0.20368699253E+03  0.00000000000E+00 0. -1.
</event>
<event>
 8    1  0.3719512E-009  0.1086747E+03  0.7561462E-02  0.1263044E+00
         -3   -1    0    0    0  501 -0.00000000000E+00  0.00000000000E+00  0.54541408161E+03  0.54541408161E+03  0.00000000000E+00 0.  1.
          3   -1    0    0  501    0  0.00000000000E+00 -0.00000000000E+00 -0.29865494961E+02  0.29865494961E+02  0.00000000000E+00 0. -1.
         25    2    1    2    0    0  0.53943850554E+01  0.22404110513E+02  0.42748754973E+03  0.44600881804E+03  0.12508883658E+03 0.  0.
         23    2    1    2    0    0 -0.53943850554E+01 -0.22404110513E+02  0.88061036916E+02  0.12927075853E+03  0.91788557183E+02 0.  0.
          5    1    3    3  502    0 -0.21297651629E+02  0.67144948727E+02  0.30074421883E+03  0.30891194807E+03  0.41800000000E+01 0. -1.
         -5    1    3    3    0  502  0.26692036684E+02 -0.44740838214E+02  0.12674333090E+03  0.13709686997E+03  0.41800000000E+01 0. -1.
        -11    1    4    4    0    0 -0.35511973864E+02 -0.44668469055E+02  0.56311837399E+02  0.80171038703E+02  0.00000000000E+00 0.  1.
         11    1    4    4    0    0  0.30117588809E+02  0.22264358542E+02  0.31749199517E+02  0.49099719826E+02  0.00000000000E+00 0. -1.
</event>
<event>
 8    1  0.3719512E-009  0.1743218E+03  0.7561462E-02  0.1173414E+00
          2   -1    0    0  501    0  0.00000000000E+00  0.00000000000E+00  0.19339779939E+04  0.19339779939E+04  0.00000000000E+00 0. -1.
         -2   -1    0    0    0  501 -0.00000000000E+00 -0.00000000000E+00 -0.22480675447E+02  0.22480675447E+02  0.00000000000E+00 0.  1.
         25    2    1    2    0    0  0.24455223116E+02 -0.14721515115E+03  0.14455978820E+04  0.14586540922E+04  0.12509262842E+03 0.  0.
         23    2    1    2    0    0 -0.24455223116E+02  0.14721515115E+03  0.46589943643E+03  0.49780457709E+03  0.92069286083E+02 0.  0.
          5    1    3    3  502    0 -0.68690692292E+01  0.10277645819E+02  0.44934486225E+03  0.44953430541E+03  0.41800000000E+01 0.  1.
         -5    1    3    3    0  502  0.31324292346E+02 -0.15749279697E+03  0.99625301973E+03  0.10091197868E+04  0.41800000000E+01 0.  1.
        -11    1    4    4    0    0 -0.49049643872E+02  0.35440201072E+02  0.14574213300E+03  0.15780571836E+03  0.00000000000E+00 0.  1.
         11    1    4    4    0    0  0.24594420756E+02  0.11177495007E+03  0.32015730344E+03  0.33999885873E+03  0.00000000000E+00 0. -1.
</event>
<event>
 8    1  0.3719512E-009  0.1140290E+03  0.7561462E-02  0.1253286E+00
          1   -1    0    0  501    0  0.00000000000E+00  0.00000000000E+00  0.86831809791E+03  0.86831809791E+03  0.00000000000E+00 0. -1.
         -1   -1    0    0    0  501 -0.00000000000E+00 -0.00000000000E+00 -0.28385062643E+02  0.28385062643E+02  0.00000000000E+00 0.  1.
         25    2    1    2    0    0  0.80586864080E+02 -0.24460306466E+02  0.66763757131E+03  0.68445745806E+03  0.12509810557E+03 0.  0.
         23    2    1    2    0    0 -0.80586864080E+02  0.24460306466E+02  0.17229546396E+03  0.21224570250E+03  0.90939331821E+02 0.  0.
          5    1    3    3  502    0  0.65234167595E+02  0.17253545550E+02  0.14578068469E+03  0.16069431192E+03  0.41800000000E+01 0. -1.
         -5    1    3    3    0  502  0.15352696485E+02 -0.41713852016E+02  0.52185688662E+03  0.52376314613E+03  0.41800000000E+01 0. -1.
        -11    1    4    4    0    0 -0.74859707334E+02 -0.14648957865E+02  0.73892827969E+02  0.10620130778E+03  0.00000000000E+00 0.  1.
         11    1    4    4    0    0 -0.57271567465E+01  0.39109264331E+02  0.98402635994E+02  0.10604439472E+03  0.00000000000E+00 0. -1.
</event>
<event>
 8    1  0.3719512E-009  0.6560769E+02  0.7561462E-02  0.1375700E+00
          2   -1    0    0  501    0  0.00000000000E+00  0.00000000000E+00  0.36814757458E+03  0.36814757458E+03  0.00000000000E+00 0. -1.
         -2   -1    0    0    0  501 -0.00000000000E+00 -0.00000000000E+00 -0.37232966331E+02  0.37232966331E+02  0.00000000000E+00 0.  1.
         25    2    1    2    0    0 -0.40989941510E+02 -0.39267450736E+01  0.20501628713E+03  0.24366876071E+03  0.12508873780E+03 0.  0.
         23    2    1    2    0    0  0.40989941510E+02  0.39267450736E+01  0.12589832111E+03  0.16171178019E+03  0.92761619021E+02 0.  0.
          5    1    3    3  502    0  0.10686457847E+02  0.32043406221E+01  0.18837777582E+03  0.18875414433E+03  0.41800000000E+01 0. -1.
         -5    1    3    3    0  502 -0.51676399357E+02 -0.71310856958E+01  0.16638511320E+02  0.54914616384E+02  0.41800000000E+01 0. -1.
        -11    1    4    4    0    0  0.34947501312E+02  0.26335283888E+02  0.11863209923E+02  0.45338843999E+02  0.00000000000E+00 0.  1.
         11    1    4    4    0    0  0.60424401976E+01 -0.22408538815E+02  0.11403511119E+03  0.11637293619E+03  0.00000000000E+00 0. -1.
</event>
<event>
 8    1  0.3719512E-009  0.1348290E+03  0.7561462E-02  0.1220461E+00
         -2   -1    0    0    0  501 -0.00000000000E+00  0.00000000000E+00  0.16277113559E+03  0.16277113559E+03  0.00000000000E+00 0.  1.
          2   -1    0    0  501    0  0.00000000000E+00 -0.00000000000E+00 -0.13534942494E+03  0.13534942494E+03  0.00000000000E+00 0. -1.
         25    2    1    2    0    0 -0.97971167232E+02 -0.29946671776E+02  0.20798576283E+01  0.16169635524E+03  0.12508490210E+03 0.  0.
         23    2    1    2    0    0  0.97971167232E+02  0.29946671776E+02  0.25341853023E+02  0.13642420528E+03  0.86453464434E+02 0.  0.
          5    1    3    3  502    0 -0.41061309764E+02  0.40904536235E+02 -0.29792731312E+02  0.65301542732E+02  0.41800000000E+01 0.  1.
         -5    1    3    3    0  502 -0.56909857468E+02 -0.70851208011E+02  0.31872588940E+02  0.96394812513E+02  0.41800000000E+01 0.  1.
        -11    1    4    4    0    0  0.44778274894E+02 -0.18668233090E+02 -0.18673290748E+02  0.51983541785E+02  0.00000000000E+00 0.  1.
         11    1    4    4    0    0  0.53192892338E+02  0.48614904866E+02  0.44015143771E+02  0.84440663495E+02  0.00000000000E+00 0. -1.
</event>
<event>
 8    1  0.3719512E-009  0.1136661E+03  0.7561462E-02  0.1253928E+00
         -1   -1    0    0    0  501 -0.00000000000E+00  0.00000000000E+00  0.70368059104E+02  0.70368059104E+02  0.00000000000E+00 0.  1.
          1   -1    0    0  501    0  0.00000000000E+00 -0.00000000000E+00 -0.24019234516E+03  0.24019234516E+03  0.00000000000E+00 0. -1.
         25    2    1    2    0    0 -0.62316148983E+02  0.37264808507E+02 -0.98523537840E+02  0.17500579572E+03  0.12509265626E+03 0.  0.
         23    2    1    2    0    0  0.62316148983E+02 -0.37264808507E+02 -0.71300748221E+02  0.13555460855E+03  0.89550470820E+02 0.  0.
          5    1    3    3  502    0 -0.81164797806E+02  0.10856482452E+02 -0.12461058316E+02  0.82935746145E+02  0.41800000000E+01 0.  1.
         -5    1    3    3    0  502  0.18848648824E+02  0.26408326055E+02 -0.86062479524E+02  0.92070049578E+02  0.41800000000E+01 0.  1.
        -11    1    4    4    0    0  0.83551984147E+02 -0.21783611152E+02 -0.66157447154E+02  0.10877622711E+03  0.00000000000E+00 0. -1.
         11    1    4    4    0    0 -0.21235835164E+02 -0.15481197355E+02 -0.51433010669E+01  0.26778381439E+02  0.00000000000E+00 0.  1.
</event>
<event>
 8    1  0.3719512E-009  0.1024110E+03  0.7561462E-02  0.1275306E+00
          1   -1    0    0  501    0  0.00000000000E+00  0.00000000000E+00  0.26144362870E+03  0.26144362870E+03  0.00000000000E+00 0. -1.
         -1   -1    0    0    0  501 -0.00000000000E+00 -0.00000000000E+00 -0.51478676886E+02  0.51478676886E+02  0.00000000000E+00 0.  1.
         25    2    1    2    0    0  0.97164736179E+01 -0.23749243453E+02  0.16285805059E+03  0.20695038682E+03  0.12508909440E+03 0.  0.
         23    2    1    2    0    0 -0.97164736179E+01  0.23749243453E+02  0.47106901227E+02  0.10597191877E+03  0.91392291804E+02 0.  0.
          5    1    3    3  502    0  0.53330605100E+02 -0.38799296550E+02  0.14101715645E+03  0.15573326448E+03  0.41800000000E+01 0. -1.
         -5    1    3    3    0  502 -0.43614131482E+02  0.15050053097E+02  0.21840894140E+02  0.51217122332E+02  0.41800000000E+01 0. -1.
        -11    1    4    4    0    0 -0.41097645946E+02 -0.13913404027E+02  0.10099634873E+02  0.44548871349E+02  0.00000000000E+00 0. -1.
         11    1    4    4    0    0  0.31381172328E+02  0.37662647480E+02  0.37007266355E+02  0.61423047425E+02  0.00000000000E+00 0.  1.
</event>
<event>
 8    1  0.3719512E-009  0.1260498E+03  0.7561462E-02  0.1233438E+00
          1   -1    0    0  501    0  0.00000000000E+00  0.00000000000E+00  0.18741949582E+04  0.18741949582E+04  0.00000000000E+00 0. -1.
         -1   -1    0    0    0  501 -0.00000000000E+00 -0.00000000000E+00 -0.10999214092E+02  0.10999214092E+02  0.00000000000E+00 0.  1.
         25    2    1    2    0    0  0.71697374972E+02  0.28578410874E+02  0.13712182749E+04  0.13790738112E+04  0.12509108757E+03 0.  0.
         23    2    1    2    0    0 -0.71697374972E+02 -0.28578410874E+02  0.49197746921E+03  0.50612036108E+03  0.90325802244E+02 0.  0.
          5    1    3    3  502    0 -0.29813716806E+02 -0.61738002867E+01  0.14831122353E+03  0.15146176067E+03  0.41800000000E+01 0. -1.
         -5    1    3    3    0  502  0.10151109178E+03  0.34752211161E+02  0.12229070514E+04  0.12276120506E+04  0.41800000000E+01 0. -1.
        -11    1    4    4    0    0 -0.56302635722E+02  0.22508691583E+02  0.33165709652E+03  0.33715435286E+03  0.00000000000E+00 0. -1.
         11    1    4    4    0    0 -0.15394739250E+02 -0.51087102457E+02  0.16032037269E+03  0.16896600822E+03  0.00000000000E+00 0.  1.
</event>
<event>
 8    1  0.3719512E-009  0.1080715E+03  0.7561462E-02  0.1264183E+00
         -3   -1    0    0    0  501 -0.00000000000E+00  0.00000000000E+00  0.18454723186E+03  0.18454723186E+03  0.00000000000E+00 0.  1.
          3   -1    0    0  501    0  0.00000000000E+00 -0.00000000000E+00 -0.11813202396E+03  0.11813202396E+03  0.00000000000E+00 0. -1.
         25    2    1    2    0    0 -0.11288716746E+02  0.96979403807E+02  0.19703708696E+02  0.15989546595E+03  0.12508350813E+03 0.  0.
         23    2    1    2    0    0  0.11288716746E+02 -0.96979403807E+02  0.46711499204E+02  0.14278378988E+03  0.93127904555E+02 0.  0.
          5    1    3    3  502    0  0.23178884858E+02  0.35674135056E+02 -0.46537541825E+02  0.63191137150E+02  0.41800000000E+01 0. -1.
         -5    1    3    3    0  502 -0.34467601604E+02  0.61305268752E+02  0.66241250521E+02  0.96704328795E+02  0.41800000000E+01 0. -1.
        -11    1    4    4    0    0 -0.11337296577E+02 -0.41611287863E+02  0.66950886415E+02  0.79639530153E+02  0.00000000000E+00 0.  1.
         11    1    4    4    0    0  0.22626013323E+02 -0.55368115944E+02 -0.20239387211E+02  0.63144259729E+02  0.00000000000E+00 0. -1.
</event>
<event>
 8    1  0.3719512E-009  0.8396720E+02  0.7561462E-02  0.1318156E+00
         -2   -1    0    0    0  501 -0.00000000000E+00  0.00000000000E+00  0.79224836157E+02  0.79224836157E+02  0.00000000000E+00 0.  1.
          2   -1    0    0  501    0  0.00000000000E+00 -0.00000000000E+00 -0.15785249531E+03  0.15785249531E+03  0.00000000000E+00 0. -1.
         25    2    1    2    0    0 -0.79893256879E+01  0.16854264209E+02 -0.65095069071E+02  0.14224353005E+03  0.12509179939E+03 0.  0.
         23    2    1    2    0    0  0.79893256879E+01 -0.16854264209E+02 -0.13532590086E+02  0.94833801424E+02  0.91991430857E+02 0.  0.
          5    1    3    3  502    0  0.29708336786E+02 -0.48353085516E+01  0.26782509948E+02  0.40506057849E+02  0.41800000000E+01 0. -1.
         -5    1    3    3    0  502 -0.37697662474E+02  0.21689572761E+02 -0.91877579019E+02  0.10173747220E+03  0.41800000000E+01 0. -1.
        -11    1    4    4    0    0  0.35306862712E+02  0.25430978563E+02 -0.69432085584E+01  0.44062652783E+02  0.00000000000E+00 0.  1.
         11    1    4    4    0    0 -0.27317537024E+02 -0.42285242772E+02 -0.65893815271E+01  0.50771148641E+02  0.00000000000E+00 0. -1.
</event>
<event>
 8    1  0.3719512E-009  0.1636362E+03  0.7561462E-02  0.1184652E+00
          2   -1    0    0  501    0  0.00000000000E+00  0.00000000000E+00  0.49826923656E+03  0.49826923656E+03  0.00000000000E+00 0. -1.
         -2   -1    0    0    0  501 -0.00000000000E+00 -0.00000000000E+00 -0.63604045717E+02  0.63604045717E+02  0.00000000000E+00 0.  1.
         25    2    1    2    0    0  0.13834700143E+03  0.24522825953E+02  0.23994542544E+03  0.30489783362E+03  0.12509044711E+03 0.  0.
         23    2    1    2    0    0 -0.13834700143E+03 -0.24522825953E+02  0.19471976540E+03  0.25697544866E+03  0.91538693339E+02 0.  0.
          5    1    3    3  502    0  0.12839156779E+02 -0.23660560036E+02  0.12510675150E+03  0.12803842282E+03  0.41800000000E+01 0.  1.
         -5    1    3    3    0  502  0.12550784465E+03  0.48183385989E+02  0.11483867394E+03  0.17685941080E+03  0.41800000000E+01 0.  1.
        -11    1    4    4    0    0 -0.12810922298E+03 -0.50423683202E+02  0.14474430484E+03  0.19976344667E+03  0.00000000000E+00 0.  1.
         11    1    4    4    0    0 -0.10237778451E+02  0.25900857250E+02  0.49975460560E+02  0.57212001993E+02  0.00000000000E+00 0. -1.
</event>
<event>
 8    1  0.3719512E-009  0.9999928E+02  0.7561462E-02  0.1280297E+00
         -1   -1    0    0    0  501 -0.00000000000E+00  0.00000000000E+00  0.66955459801E+02  0.66955459801E+02  0.00000000000E+00 0.  1.
          1   -1    0    0  501    0  0.00000000000E+00 -0.00000000000E+00 -0.20077941661E+03  0.20077941661E+03  0.00000000000E+00 0. -1.
         25    2    1    2    0    0 -0.11186032063E+02 -0.80343296312E+01 -0.53163849534E+02  0.13661576603E+03  0.12509114622E+03 0.  0.
         23    2    1    2    0    0  0.11186032063E+02  0.80343296312E+01 -0.80660107275E+02  0.13111911039E+03  0.10245238131E+03 0.  0.
          5    1    3    3  502    0 -0.60124011072E+02 -0.12968135921E+02  0.31503646188E+01  0.61728975804E+02  0.41800000000E+01 0.  1.
         -5    1    3    3    0  502  0.48937979009E+02  0.49338062901E+01 -0.56314214153E+02  0.74886790221E+02  0.41800000000E+01 0.  1.
        -11    1    4    4    0    0 -0.36407108049E+02 -0.10532703177E+02 -0.28105307908E+01  0.38004137091E+02  0.00000000000E+00 0.  1.
         11    1    4    4    0    0  0.47593140112E+02  0.18567032808E+02 -0.77849576484E+02  0.93114973296E+02  0.00000000000E+00 0. -1.
</event>
<event>
 8    1  0.3719512E-009  0.1351129E+03  0.7561462E-02  0.1220060E+00
          2   -1    0    0  501    0  0.00000000000E+00  0.00000000000E+00  0.44973933963E+03  0.44973933963E+03  0.00000000000E+00 0. -1.
         -2   -1    0    0    0  501 -0.00000000000E+00 -0.00000000000E+00 -0.48246068447E+02  0.48246068447E+02  0.00000000000E+00 0.  1.
         25    2    1    2    0    0  0.76799489492E+02 -0.44838782366E+02  0.28837343983E+03  0.32667150502E+03  0.12508538445E+03 0.  0.
         23    2    1    2    0    0 -0.76799489492E+02  0.44838782366E+02  0.11311983135E+03  0.17131390305E+03  0.92971388848E+02 0.  0.
          5    1    3    3  502    0  0.32046746509E+02  0.43599259587E+02  0.10152866712E+03  0.11512355122E+03  0.41800000000E+01 0. -1.
         -5    1    3    3    0  502  0.44752742984E+02 -0.88438041952E+02  0.18684477271E+03  0.21154795380E+03  0.41800000000E+01 0. -1.
        -11    1    4    4    0    0  0.41082346880E+01 -0.15362456621E+02 -0.43566620270E+01  0.16488273703E+02  0.00000000000E+00 0.  1.
         11    1    4    4    0    0 -0.80907724180E+02  0.60201238986E+02  0.11747649338E+03  0.15482562935E+03  0.00000000000E+00 0. -1.
</event>
<event>
 8    1  0.3719512E-009  0.1185764E+03  0.7561462E-02  0.1245464E+00
         -2   -1    0    0    0  501 -0.00000000000E+00  0.00000000000E+00  0.40330829416E+02  0.40330829416E+02  0.00000000000E+00 0.  1.
          2   -1    0    0  501    0  0.00000000000E+00 -0.00000000000E+00 -0.45081050507E+03  0.45081050507E+03  0.00000000000E+00 0. -1.
         25    2    1    2    0    0 -0.71100995802E+02  0.19769007435E+02 -0.27459508181E+03  0.31063825756E+03  0.12508997901E+03 0.  0.
         23    2    1    2    0    0  0.71100995802E+02 -0.19769007435E+02 -0.13588459384E+03  0.18050307692E+03  0.93115909895E+02 0.  0.
          5    1    3    3  502    0  0.87881472811E+01  0.51567450945E+02 -0.15225917769E+03  0.16104894635E+03  0.41800000000E+01 0.  1.
         -5    1    3    3    0  502 -0.79889143083E+02 -0.31798443509E+02 -0.12233590412E+03  0.14958931121E+03  0.41800000000E+01 0.  1.
        -11    1    4    4    0    0  0.89294834340E+01  0.21963512253E+02 -0.89121242251E+02  0.92221078747E+02  0.00000000000E+00 0. -1.
         11    1    4    4    0    0  0.62171512368E+02 -0.41732519689E+02 -0.46763351591E+02  0.88281998175E+02  0.00000000000E+00 0.  1.
</event>
<event>
 8    1  0.3719512E-009  0.1162492E+03  0.7561462E-02  0.1249416E+00
         -1   -1    0    0    0  501 -0.00000000000E+00  0.00000000000E+00  0.79222955601E+02  0.79222955601E+02  0.00000000000E+00 0.  1.
          1   -1    0    0  501    0  0.00000000000E+00 -0.00000000000E+00 -0.28442634928E+03  0.28442634928E+03  0.00000000000E+00 0. -1.
         25    2    1    2    0    0 -0.53258810339E+02 -0.69791370578E+02 -0.17675754731E+03  0.23366223791E+03  0.12508986612E+03 0.  0.
         23    2    1    2    0    0  0.53258810339E+02  0.69791370578E+02 -0.28445846373E+02  0.12998706698E+03  0.91543077943E+02 0.  0.
          5    1    3    3  502    0 -0.69157370957E+02 -0.85695074915E+02 -0.85209458399E+02  0.13930007905E+03  0.41800000000E+01 0.  1.
         -5    1    3    3    0  502  0.15898560618E+02  0.15903704336E+02 -0.91548088908E+02  0.94362158857E+02  0.41800000000E+01 0.  1.
        -11    1    4    4    0    0  0.51309696638E+02  0.29695821498E+02  0.23986536848E+02  0.63952175361E+02  0.00000000000E+00 0.  1.
         11    1    4    4    0    0  0.19491137012E+01  0.40095549080E+02 -0.52432383221E+02  0.66034891615E+02  0.00000000000E+00 0. -1.
</event>
<event>
 8    1  0.3719512E-009  0.2510717E+03  0.7561462E-02  0.1112629E+00
          2   -1    0    0  501    0  0.00000000000E+00  0.00000000000E+00  0.14186999995E+03  0.14186999995E+03  0.00000000000E+00 0. -1.
         -2   -1    0    0    0  501 -0.00000000000E+00 -0.00000000000E+00 -0.55021916019E+03  0.55021916019E+03  0.00000000000E+00 0.  1.
         25    2    1    2    0    0 -0.16064796186E+02 -0.24580105247E+03 -0.11922160130E+03  0.30089369967E+03  0.12508794192E+03 0.  0.
         23    2    1    2    0    0  0.16064796186E+02  0.24580105247E+03 -0.28912755894E+03  0.39119546047E+03  0.93610404769E+02 0.  0.
          5    1    3    3  502    0 -0.15132783193E+02 -0.45547518811E+02  0.24805442863E+02  0.54188190527E+02  0.41800000000E+01 0. -1.
         -5    1    3    3    0  502 -0.93201299301E+00 -0.20025353366E+03 -0.14402704416E+03  0.24670550914E+03  0.41800000000E+01 0. -1.
        -11    1    4    4    0    0  0.20114422339E+02  0.21924151257E+02 -0.77838920992E+02  0.83331602742E+02  0.00000000000E+00 0.  1.
         11    1    4    4    0    0 -0.40496261534E+01  0.22387690121E+03 -0.21128863795E+03  0.30786385773E+03  0.00000000000E+00 0. -1.
</event>
<event>
 8    1  0.3719512E-009  0.6038219E+02  0.7561462E-02  0.1396235E+00
          1   -1    0    0  501    0  0.00000000000E+00  0.00000000000E+00  0.27409882883E+02  0.27409882883E+02  0.00000000000E+00 0. -1.
         -1   -1    0    0    0  501 -0.00000000000E+00 -0.00000000000E+00 -0.54520686682E+03  0.54520686682E+03  0.00000000000E+00 0.  1.
         25    2    1    2    0    0  0.33222527718E+02  0.12927280501E+02 -0.39581948933E+03  0.41664314870E+03  0.12509034452E+03 0.  0.
         23    2    1    2    0    0 -0.33222527718E+02 -0.12927280501E+02 -0.12197749461E+03  0.15597360101E+03  0.90434529306E+02 0.  0.
          5    1    3    3  502    0 -0.94194137574E+01 -0.59411858954E+01 -0.35299154744E+03  0.35319191385E+03  0.41800000000E+01 0.  1.
         -5    1    3    3    0  502  0.42641941476E+02  0.18868466397E+02 -0.42827941891E+02  0.63451234847E+02  0.41800000000E+01 0.  1.
        -11    1    4    4    0    0 -0.17155571598E+02  0.19433446670E+02 -0.11659880604E+03  0.11944561129E+03  0.00000000000E+00 0.  1.
         11    1    4    4    0    0 -0.16066956121E+02 -0.32360727171E+02 -0.53786885673E+01  0.36527989717E+02  0.00000000000E+00 0. -1.
</event>
<event>
 8    1  0.3719512E-009  0.1102119E+03  0.7561462E-02  0.1260178E+00
         -2   -1    0    0    0  501 -0.00000000000E+00  0.00000000000E+00  0.29565618548E+02  0.29565618548E+02  0.00000000000E+00 0. -1.
          2   -1    0    0  501    0  0.00000000000E+00 -0.00000000000E+00 -0.45175611196E+03  0.45175611196E+03  0.00000000000E+00 0.  1.
         25    2    1    2    0    0  0.97449434051E+01 -0.35831388330E+02 -0.23174497168E+03  0.26595464673E+03  0.12508912785E+03 0.  0.
         23    2    1    2    0    0 -0.97449434051E+01  0.35831388330E+02 -0.19044552173E+03  0.21536708378E+03  0.93459251641E+02 0.  0.
          5    1    3    3  502    0  0.40430621511E+02 -0.71515947357E+02 -0.13109413673E+03  0.15476534162E+03  0.41800000000E+01 0. -1.
         -5    1    3    3    0  502 -0.30685678106E+02  0.35684559027E+02 -0.10065083496E+03  0.11118930511E+03  0.41800000000E+01 0. -1.
        -11    1    4    4    0    0 -0.34608136849E+02  0.51115813089E+02 -0.79527579145E+02  0.10067365757E+03  0.00000000000E+00 0. -1.
         11    1    4    4    0    0  0.24863193444E+02 -0.15284424759E+02 -0.11091794259E+03  0.11469342621E+03  0.00000000000E+00 0.  1.
</event>
<event>
 8    1  0.3719512E-009  0.1217542E+03  0.7561462E-02  0.1240231E+00
          2   -1    0    0  501    0  0.00000000000E+00  0.00000000000E+00  0.44163598878E+03  0.44163598878E+03  0.00000000000E+00 0.  1.
         -2   -1    0    0    0  501 -0.00000000000E+00 -0.00000000000E+00 -0.35985847903E+02  0.35985847903E+02  0.00000000000E+00 0. -1.
         25    2    1    2    0    0  0.51275757369E+02 -0.17536463100E+02  0.17211782958E+03  0.21956532345E+03  0.12509057987E+03 0.  0.
         23    2    1    2    0    0 -0.51275757369E+02  0.17536463100E+02  0.23353231129E+03  0.25805651322E+03  0.95493941006E+02 0.  0.
          5    1    3    3  502    0  0.81672479901E+02 -0.46287088994E+02  0.11195858596E+03  0.14616800591E+03  0.41800000000E+01 0.  1.
         -5    1    3    3    0  502 -0.30396722533E+02  0.28750625894E+02  0.60159243617E+02  0.73397317544E+02  0.41800000000E+01 0.  1.
        -11    1    4    4    0    0  0.20265280906E+02 -0.18452073820E+02  0.85019107170E+02  0.89327538993E+02  0.00000000000E+00 0.  1.
         11    1    4    4    0    0 -0.71541038275E+02  0.35988536921E+02  0.14851320412E+03  0.16872897423E+03  0.00000000000E+00 0. -1.
</event>
<event>
 8    1  0.3719512E-009  0.1170087E+03  0.7561462E-02  0.1248115E+00
         -1   -1    0    0    0  501 -0.00000000000E+00  0.00000000000E+00  0.58485686749E+02  0.58485686749E+02  0.00000000000E+00 0.  1.
          1   -1    0    0  501    0  0.00000000000E+00 -0.00000000000E+00 -0.37937362104E+03  0.37937362104E+03  0.00000000000E+00 0. -1.
         25    2    1    2    0    0 -0.18973336259E+02 -0.42638360179E+02 -0.30746014554E+03  0.33519723802E+03  0.12508968796E+03 0.  0.
         23    2    1    2    0    0  0.18973336259E+02  0.42638360179E+02 -0.13427788748E+02  0.10266206976E+03  0.90449863515E+02 0.  0.
          5    1    3    3  502    0 -0.10747174503E+02  0.44267375940E+02 -0.94011565675E+02  0.10455022340E+03  0.41800000000E+01 0.  1.
         -5    1    3    3    0  502 -0.82261617560E+01 -0.86905736118E+02 -0.21344857987E+03  0.23064701462E+03  0.41800000000E+01 0.  1.
        -11    1    4    4    0    0 -0.16927884500E+02 -0.21507047294E+02  0.23792229922E+01  0.27473024205E+02  0.00000000000E+00 0. -1.
         11    1    4    4    0    0  0.35901220759E+02  0.64145407472E+02 -0.15807011740E+02  0.75189045558E+02  0.00000000000E+00 0.  1.
</event>
<event>
 8    1  0.3719512E-009  0.1146790E+03  0.7561462E-02  0.1252142E+00
          1   -1    0    0  501    0  0.00000000000E+00  0.00000000000E+00  0.10805056208E+04  0.10805056208E+04  0.00000000000E+00 0. -1.
         -1   -1    0    0    0  501 -0.00000000000E+00 -0.00000000000E+00 -0.21635378615E+02  0.21635378615E+02  0.00000000000E+00 0.  1.
         25    2    1    2    0    0  0.77783271481E+02  0.73748907835E+02  0.55726294765E+03  0.58110118511E+03  0.12508979086E+03 0.  0.
         23    2    1    2    0    0 -0.77783271481E+02 -0.73748907835E+02  0.50160729452E+03  0.52103981429E+03  0.91561298782E+02 0.  0.
          5    1    3    3  502    0  0.23363956389E+02  0.58319345718E+02  0.48580994318E+03  0.48987324262E+03  0.41800000000E+01 0. -1.
         -5    1    3    3    0  502  0.54419315093E+02  0.15429562117E+02  0.71453004472E+02  0.91227942486E+02  0.41800000000E+01 0. -1.
        -11    1    4    4    0    0 -0.64050056678E+02 -0.46462278168E+02  0.47169488883E+03  0.47828571084E+03  0.00000000000E+00 0. -1.
         11    1    4    4    0    0 -0.13733214803E+02 -0.27286629666E+02  0.29912405692E+02  0.42754103448E+02  0.00000000000E+00 0.  1.
</event>
<event>
 8    1  0.3719512E-009  0.1031344E+03  0.7561462E-02  0.1273839E+00
          2   -1    0    0  501    0  0.00000000000E+00  0.00000000000E+00  0.21313066878E+03  0.21313066878E+03  0.00000000000E+00 0. -1.
         -2   -1    0    0    0  501 -0.00000000000E+00 -0.00000000000E+00 -0.84815132048E+02  0.84815132048E+02  0.00000000000E+00 0.  1.
         25    2    1    2    0    0  0.10507716463E+01  0.31230369699E+02 -0.10411466966E+02  0.12935957601E+03  0.12509620757E+03 0.  0.
         23    2    1    2    0    0 -0.10507716463E+01 -0.31230369699E+02  0.13872700370E+03  0.16858622482E+03  0.90552159178E+02 0.  0.
          5    1    3    3  502    0 -0.43903756055E+01  0.72367879487E+02 -0.35348174896E+02  0.80767265943E+02  0.41800000000E+01 0. -1.
         -5    1    3    3    0  502  0.54411472518E+01 -0.41137509788E+02  0.24936707930E+02  0.48592310064E+02  0.41800000000E+01 0. -1.
        -11    1    4    4    0    0  0.31451802143E+02  0.15464916540E+02  0.31145984023E+02  0.46887651065E+02  0.00000000000E+00 0.  1.
         11    1    4    4    0    0 -0.32502573790E+02 -0.46695286239E+02  0.10758101968E+03  0.12169857376E+03  0.00000000000E+00 0. -1.
</event>
<event>
 8    1  0.3719512E-009  0.1639734E+03  0.7561462E-02  0.1184282E+00
         -2   -1    0    0    0  501 -0.00000000000E+00  0.00000000000E+00  0.23121811036E+03  0.23121811036E+03  0.00000000000E+00 0.  1.
          2   -1    0    0  501    0  0.00000000000E+00 -0.00000000000E+00 -0.12903556989E+03  0.12903556989E+03  0.00000000000E+00 0. -1.
         25    2    1    2    0    0 -0.45913822340E+02 -0.11449352462E+03 -0.42135156429E+00  0.17568358976E+03  0.12509076669E+03 0.  0.
         23    2    1    2    0    0  0.45913822340E+02  0.11449352462E+03  0.10260389203E+03  0.18457009050E+03  0.91223425639E+02 0.  0.
          5    1    3    3  502    0 -0.88769076275E+02 -0.81410336998E+02  0.77632366918E+01  0.12076974835E+03  0.41800000000E+01 0. -1.
         -5    1    3    3    0  502  0.42855253935E+02 -0.33083187618E+02 -0.81845882561E+01  0.54913841404E+02  0.41800000000E+01 0. -1.
        -11    1    4    4    0    0  0.68528541239E+02  0.50134190926E+02  0.62573696697E+02  0.10547542644E+03  0.00000000000E+00 0.  1.
         11    1    4    4    0    0 -0.22614718900E+02  0.64359333689E+02  0.40030195331E+02  0.79094664056E+02  0.00000000000E+00 0. -1.
</event>
<event>
 8    1  0.3719512E-009  0.1817065E+03  0.7561462E-02  0.1166162E+00
          2   -1    0    0  501    0  0.00000000000E+00  0.00000000000E+00  0.22680824892E+03  0.22680824892E+03  0.00000000000E+00 0. -1.
         -2   -1    0    0    0  501 -0.00000000000E+00 -0.00000000000E+00 -0.17256754596E+03  0.17256754596E+03  0.00000000000E+00 0.  1.
         25    2    1    2    0    0  0.11842732108E+03 -0.96847868284E+02 -0.34882010841E+02  0.20067116767E+03  0.12509045880E+03 0.  0.
         23    2    1    2    0    0 -0.11842732108E+03  0.96847868284E+02  0.89122713796E+02  0.19870462721E+03  0.90200503273E+02 0.  0.
          5    1    3    3  502    0  0.12654303883E+03 -0.11893592922E+03 -0.30331700689E+02  0.17634165816E+03  0.41800000000E+01 0.  1.
         -5    1    3    3    0  502 -0.81157177525E+01  0.22088060934E+02 -0.45503101513E+01  0.24329509509E+02  0.41800000000E+01 0.  1.
        -11    1    4    4    0    0 -0.10757455566E+03  0.10642675849E+03  0.53922513491E+02  0.16064425732E+03  0.00000000000E+00 0.  1.
         11    1    4    4    0    0 -0.10852765417E+02 -0.95788902032E+01  0.35200200305E+02  0.38060369891E+02  0.00000000000E+00 0. -1.
</event>
<event>
 8    1  0.3719512E-009  0.5874556E+02  0.7561462E-02  0.1403173E+00
          2   -1    0    0  501    0  0.00000000000E+00  0.00000000000E+00  0.54487255046E+02  0.54487255046E+02  0.00000000000E+00 0. -1.
         -2   -1    0    0    0  501 -0.00000000000E+00 -0.00000000000E+00 -0.21781021750E+03  0.21781021750E+03  0.00000000000E+00 0.  1.
         25    2    1    2    0    0  0.63452050432E+01 -0.53801070826E+01 -0.10636647541E+03  0.16440506205E+03  0.12508393245E+03 0.  0.
         23    2    1    2    0    0 -0.63452050432E+01  0.53801070826E+01 -0.56956487046E+02  0.10789241050E+03  0.91255266408E+02 0.  0.
          5    1    3    3  502    0 -0.11825743806E+02 -0.20389980850E+02 -0.12915545449E+03  0.13135525631E+03  0.41800000000E+01 0.  1.
         -5    1    3    3    0  502  0.18170948849E+02  0.15009873768E+02  0.22788979075E+02  0.33049805746E+02  0.41800000000E+01 0.  1.
        -11    1    4    4    0    0 -0.28017367278E+02  0.27066986291E+02 -0.65371748668E+02  0.76099015368E+02  0.00000000000E+00 0.  1.
         11    1    4    4    0    0  0.21672162235E+02 -0.21686879208E+02  0.84152616222E+01  0.31793395130E+02  0.00000000000E+00 0. -1.
</event>
<event>
 8    1  0.3719512E-009  0.1416183E+03  0.7561462E-02  0.1211168E+00
          2   -1    0    0  501    0  0.00000000000E+00  0.00000000000E+00  0.28919884109E+04  0.28919884109E+04  0.00000000000E+00 0. -1.
         -2   -1    0    0    0  501 -0.00000000000E+00 -0.00000000000E+00 -0.10220424810E+02  0.10220424810E+02  0.00000000000E+00 0.  1.
         25    2    1    2    0    0 -0.97663031259E+02 -0.33709084845E+02  0.22668028195E+04  0.22726011636E+04  0.12508659341E+03 0.  0.
         23    2    1    2    0    0  0.97663031259E+02  0.33709084845E+02  0.61496516651E+03  0.62960767211E+03  0.86886677268E+02 0.  0.
          5    1    3    3  502    0 -0.12043055862E+03 -0.36520003487E+02  0.21380009136E+04  0.21417055374E+04  0.41800000000E+01 0. -1.
         -5    1    3    3    0  502  0.22767527358E+02  0.28109186417E+01  0.12880190599E+03  0.13089562618E+03  0.41800000000E+01 0. -1.
        -11    1    4    4    0    0  0.86957976734E+02 -0.11344765854E+02  0.36479872771E+03  0.37519129144E+03  0.00000000000E+00 0.  1.
         11    1    4    4    0    0  0.10705054525E+02  0.45053850699E+02  0.25016643879E+03  0.25441638067E+03  0.00000000000E+00 0. -1.
</event>
<event>
 8    1  0.3719512E-009  0.2104566E+03  0.7561462E-02  0.1141205E+00
         -1   -1    0    0    0  501 -0.00000000000E+00  0.00000000000E+00  0.18002971932E+03  0.18002971932E+03  0.00000000000E+00 0.  1.
          1   -1    0    0  501    0  0.00000000000E+00 -0.00000000000E+00 -0.28026472442E+03  0.28026472442E+03  0.00000000000E+00 0. -1.
         25    2    1    2    0    0  0.13258935488E+03 -0.13969957878E+03 -0.12785256322E+02  0.23001551847E+03  0.12509103332E+03 0.  0.
         23    2    1    2    0    0 -0.13258935488E+03  0.13969957878E+03 -0.87449748776E+02  0.23027892527E+03  0.91022060634E+02 0.  0.
          5    1    3    3  502    0  0.13517168911E+03 -0.15673859852E+03 -0.24944516310E+02  0.20851396859E+03  0.41800000000E+01 0. -1.
         -5    1    3    3    0  502 -0.25823342229E+01  0.17039019742E+02  0.12159259988E+02  0.21501549880E+02  0.41800000000E+01 0. -1.
        -11    1    4    4    0    0 -0.93174890194E+02  0.71708385936E+02 -0.69522904117E+01  0.11777940023E+03  0.00000000000E+00 0.  1.
         11    1    4    4    0    0 -0.39414464690E+02  0.67991192844E+02 -0.80497458365E+02  0.11249952504E+03  0.00000000000E+00 0. -1.
</event>
<event>
 8    1  0.3719512E-009  0.1291424E+03  0.7561462E-02  0.1228734E+00
         -2   -1    0    0    0  501 -0.00000000000E+00  0.00000000000E+00  0.11258726889E+04  0.11258726889E+04  0.00000000000E+00 0.  1.
          2   -1    0    0  501    0  0.00000000000E+00 -0.00000000000E+00 -0.18510199350E+02  0.18510199350E+02  0.00000000000E+00 0. -1.
         25    2    1    2    0    0  0.85313724110E+02  0.17960687487E+02  0.45746103710E+03  0.48220254419E+03  0.12509066849E+03 0.  0.
         23    2    1    2    0    0 -0.85313724110E+02 -0.17960687487E+02  0.64990145245E+03  0.66218034406E+03  0.92249077742E+02 0.  0.
          5    1    3    3  502    0 -0.61610551338E+01  0.37159654231E+02  0.27045511483E+03  0.27309749182E+03  0.41800000000E+01 0.  1.
         -5    1    3    3    0  502  0.91474779244E+02 -0.19198966744E+02  0.18700592227E+03  0.20910505237E+03  0.41800000000E+01 0.  1.
        -11    1    4    4    0    0 -0.24466624692E+02  0.37314151544E+02  0.21604115678E+03  0.22060086820E+03  0.00000000000E+00 0.  1.
         11    1    4    4    0    0 -0.60847099419E+02 -0.55274839031E+02  0.43386029567E+03  0.44157947586E+03  0.00000000000E+00 0. -1.
</event>
<event>
 8    1  0.3719512E-009  0.6401187E+02  0.7561462E-02  0.1381727E+00
         -2   -1    0    0    0  501 -0.00000000000E+00  0.00000000000E+00  0.14445934436E+03  0.14445934436E+03  0.00000000000E+00 0.  1.
          2   -1    0    0  501    0  0.00000000000E+00 -0.00000000000E+00 -0.94706202734E+02  0.94706202734E+02  0.00000000000E+00 0. -1.
         25    2    1    2    0    0 -0.32289937595E+02 -0.32676316103E+02  0.38013112107E+02  0.13856699553E+03  0.12508170871E+03 0.  0.
         23    2    1    2    0    0  0.32289937595E+02  0.32676316103E+02  0.11740029515E+02  0.10059855156E+03  0.88723495079E+02 0.  0.
          5    1    3    3  502    0 -0.25408623825E+01 -0.30962391101E+02  0.80566495783E+02  0.86449744286E+02  0.41800000000E+01 0.  1.
         -5    1    3    3    0  502 -0.29749075212E+02 -0.17139250020E+01 -0.42553383676E+02  0.52117251244E+02  0.41800000000E+01 0.  1.
        -11    1    4    4    0    0 -0.11377556650E+02 -0.10300027553E+01  0.37872949445E+02  0.39558437793E+02  0.00000000000E+00 0.  1.
         11    1    4    4    0    0  0.43667494245E+02  0.33706318858E+02 -0.26132919929E+02  0.61040113766E+02  0.00000000000E+00 0. -1.
</event>
<event>
 8    1  0.3719512E-009  0.6912462E+02  0.7561462E-02  0.1363095E+00
         -2   -1    0    0    0  501 -0.00000000000E+00  0.00000000000E+00  0.51865884607E+02  0.51865884607E+02  0.00000000000E+00 0.  1.
          2   -1    0    0  501    0  0.00000000000E+00 -0.00000000000E+00 -0.24987880866E+03  0.24987880866E+03  0.00000000000E+00 0. -1.
         25    2    1    2    0    0  0.36333779810E+02 -0.42611697064E+01 -0.10156090674E+03  0.16522690340E+03  0.12508801184E+03 0.  0.
         23    2    1    2    0    0 -0.36333779810E+02  0.42611697064E+01 -0.96452017309E+02  0.13651778987E+03  0.89419316620E+02 0.  0.
          5    1    3    3  502    0  0.32879601799E+02  0.30315755460E+01 -0.13061288623E+03  0.13478670971E+03  0.41800000000E+01 0. -1.
         -5    1    3    3    0  502  0.34541780112E+01 -0.72927452524E+01  0.29051979493E+02  0.30440193683E+02  0.41800000000E+01 0. -1.
        -11    1    4    4    0    0  0.10985749404E+02 -0.33553326301E+02 -0.43817245328E+02  0.56271337144E+02  0.00000000000E+00 0. -1.
         11    1    4    4    0    0 -0.47319529214E+02  0.37814496007E+02 -0.52634771981E+02  0.80246452724E+02  0.00000000000E+00 0.  1.
</event>
<event>
 8    1  0.3719512E-009  0.1001945E+03  0.7561462E-02  0.1279887E+00
         -2   -1    0    0    0  501 -0.00000000000E+00  0.00000000000E+00  0.15995300526E+03  0.15995300526E+03  0.00000000000E+00 0.  1.
          2   -1    0    0  501    0  0.00000000000E+00 -0.00000000000E+00 -0.11963110690E+03  0.11963110690E+03  0.00000000000E+00 0. -1.
         25    2    1    2    0    0 -0.59003387420E+02 -0.15967742358E+02  0.82397354771E+02  0.16178144001E+03  0.12509013445E+03 0.  0.
         23    2    1    2    0    0  0.59003387420E+02  0.15967742358E+02 -0.42075456409E+02  0.11780267214E+03  0.91491841214E+02 0.  0.
          5    1    3    3  502    0 -0.63345093721E+02 -0.64350569985E+02  0.50973049490E+02  0.10377533874E+03  0.41800000000E+01 0.  1.
         -5    1    3    3    0  502  0.43417063013E+01  0.48382827627E+02  0.31424305281E+02  0.58006101276E+02  0.41800000000E+01 0.  1.
        -11    1    4    4    0    0  0.15905382277E+02  0.60247872920E+01 -0.65555961015E+02  0.67726385345E+02  0.00000000000E+00 0. -1.
         11    1    4    4    0    0  0.43098005143E+02  0.99429550660E+01  0.23480504607E+02  0.50076286796E+02  0.00000000000E+00 0.  1.
</event>
<event>
 8    1  0.3719512E-009  0.1210510E+03  0.7561462E-02  0.1241373E+00
          1   -1    0    0  501    0  0.00000000000E+00  0.00000000000E+00  0.74538859933E+02  0.74538859933E+02  0.00000000000E+00 0. -1.
         -1   -1    0    0    0  501 -0.00000000000E+00 -0.00000000000E+00 -0.30443154661E+03  0.30443154661E+03  0.00000000000E+00 0.  1.
         25    2    1    2    0    0 -0.71960510957E+02  0.45603917333E+02 -0.19818914964E+03  0.24936877385E+03  0.12509122239E+03 0.  0.
         23    2    1    2    0    0  0.71960510957E+02 -0.45603917333E+02 -0.31703537031E+02  0.12960163269E+03  0.92376601603E+02 0.  0.
          5    1    3    3  502    0 -0.99485747182E+02  0.48426230354E+02 -0.19051153551E+03  0.22035115439E+03  0.41800000000E+01 0. -1.
         -5    1    3    3    0  502  0.27525236225E+02 -0.28223130208E+01 -0.76776141322E+01  0.29017619454E+02  0.41800000000E+01 0. -1.
        -11    1    4    4    0    0 -0.47092932753E+01 -0.22977264374E+02 -0.42889457110E+02  0.48883920183E+02  0.00000000000E+00 0.  1.
         11    1    4    4    0    0  0.76669804232E+02 -0.22626652959E+02  0.11185920080E+02  0.80717712512E+02  0.00000000000E+00 0. -1.
</event>
<event>
 8    1  0.3719512E-009  0.1593565E+03  0.7561462E-02  0.1189425E+00
         -2   -1    0    0    0  501 -0.00000000000E+00  0.00000000000E+00  0.87127709443E+02  0.87127709443E+02  0.00000000000E+00 0.  1.
          2   -1    0    0  501    0  0.00000000000E+00 -0.00000000000E+00 -0.35965626212E+03  0.35965626212E+03  0.00000000000E+00 0. -1.
         25    2    1    2    0    0  0.11895117499E+03 -0.56203725653E+01 -0.23613989338E+03  0.29255750036E+03  0.12508745401E+03 0.  0.
         23    2    1    2    0    0 -0.11895117499E+03  0.56203725653E+01 -0.36388659301E+02  0.15422647121E+03  0.90998347667E+02 0.  0.
          5    1    3    3  502    0  0.89693833888E+02  0.54674620446E+02 -0.15404704200E+03  0.18650003085E+03  0.41800000000E+01 0. -1.
         -5    1    3    3    0  502  0.29257341097E+02 -0.60294993011E+02 -0.82092851378E+02  0.10605746950E+03  0.41800000000E+01 0. -1.
        -11    1    4    4    0    0 -0.20809455793E+02 -0.34598046998E+02  0.43526557988E+01  0.40607929262E+02  0.00000000000E+00 0.  1.
         11    1    4    4    0    0 -0.98141719193E+02  0.40218419564E+02 -0.40741315100E+02  0.11361854195E+03  0.00000000000E+00 0. -1.
</event>
<event>
 8    1  0.3719512E-009  0.1197884E+03  0.7561462E-02  0.1243447E+00
         -2   -1    0    0    0  501 -0.00000000000E+00  0.00000000000E+00  0.13822219183E+03  0.13822219183E+03  0.00000000000E+00 0.  1.
          2   -1    0    0  501    0  0.00000000000E+00 -0.00000000000E+00 -0.13396551232E+03  0.13396551232E+03  0.00000000000E+00 0. -1.
         25    2    1    2    0    0  0.71552430614E+02  0.42378710754E+02  0.28907543744E+01  0.15023698507E+03  0.12508832788E+03 0.  0.
         23    2    1    2    0    0 -0.71552430614E+02 -0.42378710754E+02  0.13659251352E+01  0.12195071907E+03  0.89187480507E+02 0.  0.
          5    1    3    3  502    0  0.10335657033E+03  0.10382535397E+02  0.97360557853E+01  0.10441571172E+03  0.41800000000E+01 0. -1.
         -5    1    3    3    0  502 -0.31804139715E+02  0.31996175358E+02 -0.68453014109E+01  0.45821273355E+02  0.41800000000E+01 0. -1.
        -11    1    4    4    0    0 -0.39726746896E+02 -0.32326466625E+01 -0.40179425389E+02  0.56595500245E+02  0.00000000000E+00 0. -1.
         11    1    4    4    0    0 -0.31825683718E+02 -0.39146064092E+02  0.41545350524E+02  0.65355218829E+02  0.00000000000E+00 0.  1.
</event>
<event>
 8    1  0.3719512E-009  0.1066693E+03  0.7561462E-02  0.1266865E+00
          2   -1    0    0  501    0  0.00000000000E+00  0.00000000000E+00  0.78207227459E+02  0.78207227459E+02  0.00000000000E+00 0. -1.
         -2   -1    0    0    0  501 -0.00000000000E+00 -0.00000000000E+00 -0.74428393841E+03  0.74428393841E+03  0.00000000000E+00 0.  1.
         25    2    1    2    0    0  0.71901678568E+02  0.24081757173E+01 -0.68818904507E+03  0.70315509073E+03  0.12508904499E+03 0.  0.
         23    2    1    2    0    0 -0.71901678568E+02 -0.24081757173E+01  0.22112334114E+02  0.11933607514E+03  0.92609356002E+02 0.  0.
          5    1    3    3  502    0  0.69244593062E+02 -0.52041708030E+02 -0.48741382736E+03  0.49506854530E+03  0.41800000000E+01 0.  1.
         -5    1    3    3    0  502  0.26570855060E+01  0.54449883747E+02 -0.20077521770E+03  0.20808654543E+03  0.41800000000E+01 0.  1.
        -11    1    4    4    0    0 -0.17686501517E+02 -0.49495958540E+00 -0.35830823967E+02  0.39961297114E+02  0.00000000000E+00 0.  1.
         11    1    4    4    0    0 -0.54215177051E+02 -0.19132161319E+01  0.57943158080E+02  0.79374778028E+02  0.00000000000E+00 0. -1.
</event>
<event>
 8    1  0.3719512E-009  0.1058048E+03  0.7561462E-02  0.1268542E+00
         -1   -1    0    0    0  501 -0.00000000000E+00  0.00000000000E+00  0.29106171874E+02  0.29106171874E+02  0.00000000000E+00 0.  1.
          1   -1    0    0  501    0  0.00000000000E+00 -0.00000000000E+00 -0.11499311852E+04  0.11499311852E+04  0.00000000000E+00 0. -1.
         25    2    1    2    0    0  0.33809737015E+02  0.19432742451E+02 -0.10485940414E+04  0.10567483426E+04  0.12508743380E+03 0.  0.
         23    2    1    2    0    0 -0.33809737015E+02 -0.19432742451E+02 -0.72230971905E+02  0.12228901447E+03  0.90645242357E+02 0.  0.
          5    1    3    3  502    0  0.75615917502E+02  0.38394568250E+02 -0.67038419313E+03  0.67573985279E+03  0.41800000000E+01 0.  1.
         -5    1    3    3    0  502 -0.41806180487E+02 -0.18961825799E+02 -0.37820984827E+03  0.38100848979E+03  0.41800000000E+01 0.  1.
        -11    1    4    4    0    0 -0.55986304443E+02 -0.15401478377E+02 -0.13831537001E+02  0.59690729911E+02  0.00000000000E+00 0.  1.
         11    1    4    4    0    0  0.22176567428E+02 -0.40312640732E+01 -0.58399434904E+02  0.62598284562E+02  0.00000000000E+00 0. -1.
</event>
<event>
 8    1  0.3719512E-009  0.1267937E+03  0.7561462E-02  0.1232292E+00
          2   -1    0    0  501    0  0.00000000000E+00  0.00000000000E+00  0.65035048949E+02  0.65035048949E+02  0.00000000000E+00 0. -1.
         -2   -1    0    0    0  501 -0.00000000000E+00 -0.00000000000E+00 -0.31413115800E+03  0.31413115800E+03  0.00000000000E+00 0.  1.
         25    2    1    2    0    0  0.32797767526E+02 -0.84088595266E+02 -0.14091447279E+03  0.20893573426E+03  0.12510262588E+03 0.  0.
         23    2    1    2    0    0 -0.32797767526E+02  0.84088595266E+02 -0.10818163626E+03  0.17023047269E+03  0.95543508405E+02 0.  0.
          5    1    3    3  502    0 -0.32090665470E+02  0.26673670558E+01 -0.17435613685E+01  0.32518272764E+02  0.41800000000E+01 0. -1.
         -5    1    3    3    0  502  0.64888432996E+02 -0.86755962322E+02 -0.13917091142E+03  0.17641746149E+03  0.41800000000E+01 0. -1.
        -11    1    4    4    0    0 -0.29807045399E+02  0.95945612883E+02 -0.11768914318E+03  0.15474092868E+03  0.00000000000E+00 0.  1.
         11    1    4    4    0    0 -0.29907221269E+01 -0.11857017617E+02  0.95075069200E+01  0.15489544004E+02  0.00000000000E+00 0. -1.
</event>
<event>
 8    1  0.3719512E-009  0.2102843E+03  0.7561462E-02  0.1141341E+00
          2   -1    0    0  501    0  0.00000000000E+00  0.00000000000E+00  0.40471201486E+03  0.40471201486E+03  0.00000000000E+00 0. -1.
         -2   -1    0    0    0  501 -0.00000000000E+00 -0.00000000000E+00 -0.21033481649E+03  0.21033481649E+03  0.00000000000E+00 0.  1.
         25    2    1    2    0    0  0.19320439026E+03 -0.51368473059E+02 -0.93195161032E+02  0.25357505111E+03  0.12509321351E+03 0.  0.
         23    2    1    2    0    0 -0.19320439026E+03  0.51368473059E+02  0.28757235940E+03  0.36147178024E+03  0.89427789742E+02 0.  0.
          5    1    3    3  502    0  0.14895528215E+03  0.11447962041E+01 -0.10693831548E+03  0.18341827160E+03  0.41800000000E+01 0.  1.
         -5    1    3    3    0  502  0.44249108119E+02 -0.52513269263E+02  0.13743154449E+02  0.70156779517E+02  0.41800000000E+01 0.  1.
        -11    1    4    4    0    0 -0.74410983432E+02  0.29452993864E+01  0.44844017546E+02  0.86929023654E+02  0.00000000000E+00 0.  1.
         11    1    4    4    0    0 -0.11879340683E+03  0.48423173672E+02  0.24272834185E+03  0.27454275659E+03  0.00000000000E+00 0. -1.
</event>
<event>
 8    1  0.3719512E-009  0.1448962E+03  0.7561462E-02  0.1206889E+00
         -2   -1    0    0    0  501 -0.00000000000E+00  0.00000000000E+00  0.11745434272E+03  0.11745434272E+03  0.00000000000E+00 0.  1.
          2   -1    0    0  501    0  0.00000000000E+00 -0.00000000000E+00 -0.24935167108E+03  0.24935167108E+03  0.00000000000E+00 0. -1.
         25    2    1    2    0    0  0.38972210623E+02 -0.12583612940E+03 -0.72335389594E+02  0.19553473630E+03  0.12509140599E+03 0.  0.
         23    2    1    2    0    0 -0.38972210623E+02  0.12583612940E+03 -0.59561938768E+02  0.17127127749E+03  0.91829522922E+02 0.  0.
          5    1    3    3  502    0  0.19213767081E+02 -0.89044090533E+02 -0.10736673915E+03  0.14086556705E+03  0.41800000000E+01 0.  1.
         -5    1    3    3    0  502  0.19758443542E+02 -0.36792038864E+02  0.35031349559E+02  0.54669169254E+02  0.41800000000E+01 0.  1.
        -11    1    4    4    0    0 -0.43848567028E+02  0.15982016816E+02 -0.35676747020E+02  0.58744803769E+02  0.00000000000E+00 0. -1.
         11    1    4    4    0    0  0.48763564053E+01  0.10985411258E+03 -0.23885191748E+02  0.11252647372E+03  0.00000000000E+00 0.  1.
</event>
<event>
 8    1  0.3719512E-009  0.1083650E+03  0.7561462E-02  0.1263628E+00
          2   -1    0    0  501    0  0.00000000000E+00  0.00000000000E+00  0.50546247296E+02  0.50546247296E+02  0.00000000000E+00 0.  1.
         -2   -1    0    0    0  501 -0.00000000000E+00 -0.00000000000E+00 -0.39738011700E+03  0.39738011700E+03  0.00000000000E+00 0. -1.
         25    2    1    2    0    0  0.75667374538E+02 -0.20789867250E+02 -0.26321161934E+03  0.30180175486E+03  0.12508466145E+03 0.  0.
         23    2    1    2    0    0 -0.75667374538E+02  0.20789867250E+02 -0.83622250364E+02  0.14612460944E+03  0.90564621007E+02 0.  0.
          5    1    3    3  502    0  0.68374211925E+02 -0.37605007445E+02 -0.62104516787E+02  0.99817898429E+02  0.41800000000E+01 0.  1.
         -5    1    3    3    0  502  0.72931626124E+01  0.16815140195E+02 -0.20110710256E+03  0.20198385643E+03  0.41800000000E+01 0.  1.
        -11    1    4    4    0    0 -0.36524007902E+02  0.56184636500E+02 -0.44763161552E+02  0.80588194942E+02  0.00000000000E+00 0.  1.
         11    1    4    4    0    0 -0.39143366636E+02 -0.35394769250E+02 -0.38859088811E+02  0.65536414497E+02  0.00000000000E+00 0. -1.
</event>
<event>
 8    1  0.3719512E-009  0.1034917E+03  0.7561462E-02  0.1273120E+00
          1   -1    0    0  501    0  0.00000000000E+00  0.00000000000E+00  0.30690262096E+03  0.30690262096E+03  0.00000000000E+00 0. -1.
         -1   -1    0    0    0  501 -0.00000000000E+00 -0.00000000000E+00 -0.43594760813E+02  0.43594760813E+02  0.00000000000E+00 0.  1.
         25    2    1    2    0    0  0.29006030445E+02 -0.31290161502E+02  0.15167258257E+03  0.20117821291E+03  0.12509067527E+03 0.  0.
         23    2    1    2    0    0 -0.29006030445E+02  0.31290161502E+02  0.11163527758E+03  0.14931916886E+03  0.89517344578E+02 0.  0.
          5    1    3    3  502    0 -0.43754714790E+02 -0.13928963910E+02  0.10014343591E+03  0.11024822565E+03  0.41800000000E+01 0.  1.
         -5    1    3    3    0  502  0.72760745235E+02 -0.17361197591E+02  0.51529146655E+02  0.90929987265E+02  0.41800000000E+01 0.  1.
        -11    1    4    4    0    0 -0.48184398001E+02 -0.12310948425E+01  0.23889494659E+02  0.53795536620E+02  0.00000000000E+00 0.  1.
         11    1    4    4    0    0  0.19178367555E+02  0.32521256344E+02  0.87745782920E+02  0.95523632241E+02  0.00000000000E+00 0. -1.
</event>
<event>
 8    1  0.3719512E-009  0.1138395E+03  0.7561462E-02  0.1253620E+00
          4   -1    0    0  501    0  0.00000000000E+00  0.00000000000E+00  0.40506238556E+02  0.40506238556E+02  0.00000000000E+00 0. -1.
         -4   -1    0    0    0  501 -0.00000000000E+00 -0.00000000000E+00 -0.38347693883E+03  0.38347693883E+03  0.00000000000E+00 0.  1.
         25    2    1    2    0    0 -0.20832437796E+02 -0.40958973250E+02 -0.25888907542E+03  0.29117305272E+03  0.12508623147E+03 0.  0.
         23    2    1    2    0    0  0.20832437796E+02  0.40958973250E+02 -0.84081624854E+02  0.13281012466E+03  0.91962936127E+02 0.  0.
          5    1    3    3  502    0 -0.36624531832E+02  0.37621598234E+02 -0.11270451858E+03  0.12440466991E+03  0.41800000000E+01 0.  1.
         -5    1    3    3    0  502  0.15792094036E+02 -0.78580571484E+02 -0.14618455683E+03  0.16676838281E+03  0.41800000000E+01 0.  1.
        -11    1    4    4    0    0  0.39673028248E+02  0.57376975042E+02 -0.82111638051E+02  0.10774222728E+03  0.00000000000E+00 0.  1.
         11    1    4    4    0    0 -0.18840590452E+02 -0.16418001792E+02 -0.19699868033E+01  0.25067897387E+02  0.00000000000E+00 0. -1.
</event>
<event>
 8    1  0.3719512E-009  0.1565095E+03  0.7561462E-02  0.1192695E+00
         -2   -1    0    0    0  501 -0.00000000000E+00  0.00000000000E+00  0.16238241975E+03  0.16238241975E+03  0.00000000000E+00 0.  1.
          2   -1    0    0  501    0  0.00000000000E+00 -0.00000000000E+00 -0.16234093932E+03  0.16234093932E+03  0.00000000000E+00 0. -1.
         25    2    1    2    0    0 -0.71129737545E+02 -0.96410434019E+02 -0.13990188549E+02  0.17377465702E+03  0.12508994643E+03 0.  0.
         23    2    1    2    0    0  0.71129737545E+02  0.96410434019E+02  0.14031668982E+02  0.15094870205E+03  0.90742556523E+02 0.  0.
          5    1    3    3  502    0 -0.10490737896E+03 -0.84361060430E+02 -0.22824169761E+02  0.13660439892E+03  0.41800000000E+01 0. -1.
         -5    1    3    3    0  502  0.33777641419E+02 -0.12049373589E+02  0.88339812112E+01  0.37170258107E+02  0.41800000000E+01 0. -1.
        -11    1    4    4    0    0  0.82673672278E+02  0.55139177436E+02  0.32114264906E+02  0.10443462542E+03  0.00000000000E+00 0.  1.
         11    1    4    4    0    0 -0.11543934733E+02  0.41271256583E+02 -0.18082595924E+02  0.46514076626E+02  0.00000000000E+00 0. -1.
</event>
<event>
 8    1  0.3719512E-009  0.1773287E+03  0.7561462E-02  0.1170414E+00
          2   -1    0    0  501    0  0.00000000000E+00  0.00000000000E+00  0.30329576297E+03  0.30329576297E+03  0.00000000000E+00 0. -1.
         -2   -1    0    0    0  501 -0.00000000000E+00 -0.00000000000E+00 -0.12989792089E+03  0.12989792089E+03  0.00000000000E+00 0.  1.
         25    2    1    2    0    0 -0.35069231038E+02 -0.16277713615E+03  0.84685833020E+02  0.22482457873E+03  0.12509258120E+03 0.  0.
         23    2    1    2    0    0  0.35069231038E+02  0.16277713615E+03  0.88712009066E+02  0.20836910513E+03  0.88439902764E+02 0.  0.
          5    1    3    3  502    0 -0.47522358624E+01  0.10409357393E+02  0.42162283388E+02  0.43887002717E+02  0.41800000000E+01 0.  1.
         -5    1    3    3    0  502 -0.30316995175E+02 -0.17318649354E+03  0.42523549632E+02  0.18093757601E+03  0.41800000000E+01 0.  1.
        -11    1    4    4    0    0  0.46683063232E+01  0.32154158715E+02 -0.17852078540E+02  0.37072627568E+02  0.00000000000E+00 0.  1.
         11    1    4    4    0    0  0.30400924714E+02  0.13062297743E+03  0.10656408761E+03  0.17129647756E+03  0.00000000000E+00 0. -1.
</event>
<event>
 8    1  0.3719512E-009  0.1286687E+03  0.7561462E-02  0.1229445E+00
         -2   -1    0    0    0  501 -0.00000000000E+00  0.00000000000E+00  0.32255154761E+03  0.32255154761E+03  0.00000000000E+00 0.  1.
          2   -1    0    0  501    0  0.00000000000E+00 -0.00000000000E+00 -0.67363411921E+02  0.67363411921E+02  0.00000000000E+00 0. -1.
         25    2    1    2    0    0  0.34505726695E+02 -0.93424291580E+02  0.14322332949E+03  0.21465957474E+03  0.12508823880E+03 0.  0.
         23    2    1    2    0    0 -0.34505726695E+02  0.93424291580E+02  0.11196480620E+03  0.17525538479E+03  0.90882279014E+02 0.  0.
          5    1    3    3  502    0 -0.29701878152E+02 -0.87815098721E+02  0.10269016490E+03  0.13840677547E+03  0.41800000000E+01 0. -1.
         -5    1    3    3    0  502  0.64207604847E+02 -0.56091928590E+01  0.40533164589E+02  0.76252799269E+02  0.41800000000E+01 0. -1.
        -11    1    4    4    0    0 -0.16732194663E+02  0.57307288610E+02  0.12016252330E+03  0.13417571938E+03  0.00000000000E+00 0.  1.
         11    1    4    4    0    0 -0.17773532032E+02  0.36117002970E+02 -0.81977171002E+01  0.41079665409E+02  0.00000000000E+00 0. -1.
</event>
<event>
 8    1  0.3719512E-009  0.1083176E+03  0.7561462E-02  0.1263718E+00
         -1   -1    0    0    0  501 -0.00000000000E+00  0.00000000000E+00  0.41611498860E+02  0.41611498860E+02  0.00000000000E+00 0.  1.
          1   -1    0    0  501    0  0.00000000000E+00 -0.00000000000E+00 -0.44714730881E+03  0.44714730881E+03  0.00000000000E+00 0. -1.
         25    2    1    2    0    0  0.47811429715E+02  0.58557975888E+02 -0.28671990339E+03  0.32182237684E+03  0.12508545034E+03 0.  0.
         23    2    1    2    0    0 -0.47811429715E+02 -0.58557975888E+02 -0.11881590656E+03  0.16693643083E+03  0.89641413050E+02 0.  0.
          5    1    3    3  502    0  0.56417968409E+02  0.64671528596E+01 -0.25232885177E+03  0.25867379663E+03  0.41800000000E+01 0. -1.
         -5    1    3    3    0  502 -0.86065386937E+01  0.52090823028E+02 -0.34391051617E+02  0.63148580217E+02  0.41800000000E+01 0. -1.
        -11    1    4    4    0    0 -0.68433207167E+02 -0.42084909073E+02 -0.53587537579E+02  0.96570531730E+02  0.00000000000E+00 0.  1.
         11    1    4    4    0    0  0.20621777452E+02 -0.16473066815E+02 -0.65228368984E+02  0.70365899098E+02  0.00000000000E+00 0. -1.
</event>
<event>
 8    1  0.3719512E-009  0.8315183E+02  0.7561462E-02  0.1320338E+00
          1   -1    0    0  501    0  0.00000000000E+00  0.00000000000E+00  0.74900518060E+02  0.74900518060E+02  0.00000000000E+00 0. -1.
         -1   -1    0    0    0  501 -0.00000000000E+00 -0.00000000000E+00 -0.20099509448E+03  0.20099509448E+03  0.00000000000E+00 0.  1.
         25    2    1    2    0    0  0.49810303113E+02  0.19355027638E+02 -0.10347981589E+03  0.17090145920E+03  0.12507419026E+03 0.  0.
         23    2    1    2    0    0 -0.49810303113E+02 -0.19355027638E+02 -0.22614760528E+02  0.10499415334E+03  0.87502351118E+02 0.  0.
          5    1    3    3  502    0  0.51387114817E+02 -0.54877808318E+01  0.11563257518E+02  0.53121865857E+02  0.41800000000E+01 0.  1.
         -5    1    3    3    0  502 -0.15768117039E+01  0.24842808470E+02 -0.11504307341E+03  0.11777959334E+03  0.41800000000E+01 0.  1.
        -11    1    4    4    0    0 -0.10443762747E+02 -0.42353410364E+02 -0.36985201610E+02  0.57190809470E+02  0.00000000000E+00 0. -1.
         11    1    4    4    0    0 -0.39366540366E+02  0.22998382726E+02  0.14370441082E+02  0.47803343872E+02  0.00000000000E+00 0.  1.
</event>
<event>
 8    1  0.3719512E-009  0.1504110E+03  0.7561462E-02  0.1199969E+00
          1   -1    0    0  501    0  0.00000000000E+00  0.00000000000E+00  0.11778019197E+04  0.11778019197E+04  0.00000000000E+00 0. -1.
         -1   -1    0    0    0  501 -0.00000000000E+00 -0.00000000000E+00 -0.23189171280E+02  0.23189171280E+02  0.00000000000E+00 0.  1.
         25    2    1    2    0    0  0.92318594952E+02 -0.82481432448E+02  0.65784665584E+03  0.68098362496E+03  0.12510221896E+03 0.  0.
         23    2    1    2    0    0 -0.92318594952E+02  0.82481432448E+02  0.49676609253E+03  0.52000746598E+03  0.91133442313E+02 0.  0.
          5    1    3    3  502    0  0.86621723113E+02 -0.25875761232E+02  0.56358260201E+03  0.57080268011E+03  0.41800000000E+01 0. -1.
         -5    1    3    3    0  502  0.56968718387E+01 -0.56605671216E+02  0.94264053829E+02  0.11018094484E+03  0.41800000000E+01 0. -1.
        -11    1    4    4    0    0 -0.31068052903E+02 -0.17772736933E+02  0.99970869779E+02  0.10618506907E+03  0.00000000000E+00 0.  1.
         11    1    4    4    0    0 -0.61250542048E+02  0.10025416938E+03  0.39679522275E+03  0.41382239691E+03  0.00000000000E+00 0. -1.
</event>
<event>
 8    1  0.3719512E-009  0.9312334E+02  0.7561462E-02  0.1295460E+00
          1   -1    0    0  501    0  0.00000000000E+00  0.00000000000E+00  0.80895028475E+03  0.80895028475E+03  0.00000000000E+00 0. -1.
         -1   -1    0    0    0  501 -0.00000000000E+00 -0.00000000000E+00 -0.26422907914E+02  0.26422907914E+02  0.00000000000E+00 0.  1.
         25    2    1    2    0    0 -0.24276765526E+02  0.43205286142E+02  0.65384083858E+03  0.66754188277E+03  0.12509302518E+03 0.  0.
         23    2    1    2    0    0  0.24276765526E+02 -0.43205286142E+02  0.12868653825E+03  0.16783130990E+03  0.95661200915E+02 0.  0.
          5    1    3    3  502    0 -0.27932844925E+02 -0.33960870618E+02  0.39285710959E+03  0.39533247465E+03  0.41800000000E+01 0. -1.
         -5    1    3    3    0  502  0.36560793992E+01  0.77166156760E+02  0.26098372900E+03  0.27220940811E+03  0.41800000000E+01 0. -1.
        -11    1    4    4    0    0  0.25699392184E+02 -0.46354140087E+01 -0.67749717359E+01  0.26978622345E+02  0.00000000000E+00 0.  1.
         11    1    4    4    0    0 -0.14226266578E+01 -0.38569872133E+02  0.13546150999E+03  0.14085268756E+03  0.00000000000E+00 0. -1.
</event>
<event>
 8    1  0.3719512E-009  0.1199932E+03  0.7561462E-02  0.1243108E+00
         -2   -1    0    0    0  501 -0.00000000000E+00  0.00000000000E+00  0.74061984988E+02  0.74061984988E+02  0.00000000000E+00 0.  1.
          2   -1    0    0  501    0  0.00000000000E+00 -0.00000000000E+00 -0.28449536757E+03  0.28449536757E+03  0.00000000000E+00 0. -1.
         25    2    1    2    0    0 -0.19889207930E+02 -0.67292411022E+02 -0.19399365266E+03  0.24125681367E+03  0.12508982252E+03 0.  0.
         23    2    1    2    0    0  0.19889207930E+02  0.67292411022E+02 -0.16439729929E+02  0.11730053889E+03  0.92548919663E+02 0.  0.
          5    1    3    3  502    0 -0.61948500650E+02 -0.39550353035E+02 -0.50913536129E+02  0.89507026088E+02  0.41800000000E+01 0.  1.
         -5    1    3    3    0  502  0.42059292720E+02 -0.27742057987E+02 -0.14308011653E+03  0.15174978758E+03  0.41800000000E+01 0.  1.
        -11    1    4    4    0    0  0.47383345385E+02  0.49060469910E+01 -0.24217625617E+01  0.47698172405E+02  0.00000000000E+00 0.  1.
         11    1    4    4    0    0 -0.27494137454E+02  0.62386364031E+02 -0.14017967367E+02  0.69602366486E+02  0.00000000000E+00 0. -1.
</event>
<event>
 8    1  0.3719512E-009  0.9446618E+02  0.7561462E-02  0.1292383E+00
         -1   -1    0    0    0  501 -0.00000000000E+00  0.00000000000E+00  0.88334573366E+02  0.88334573366E+02  0.00000000000E+00 0.  1.
          1   -1    0    0  501    0  0.00000000000E+00 -0.00000000000E+00 -0.14561743471E+03  0.14561743471E+03  0.00000000000E+00 0. -1.
         25    2    1    2    0    0  0.34270863031E+02  0.10733817477E+02 -0.42185719628E+02  0.13681092177E+03  0.12509151244E+03 0.  0.
         23    2    1    2    0    0 -0.34270863031E+02 -0.10733817477E+02 -0.15097141716E+02  0.97141086311E+02  0.88987415240E+02 0.  0.
          5    1    3    3  502    0  0.13612246044E+02 -0.50751137234E+02  0.97592450487E+01  0.53606776034E+02  0.41800000000E+01 0. -1.
         -5    1    3    3    0  502  0.20658616988E+02  0.61484954711E+02 -0.51944964677E+02  0.83204145732E+02  0.41800000000E+01 0. -1.
        -11    1    4    4    0    0 -0.40215546115E+02 -0.30570517769E+02  0.21650773412E+02  0.54960009965E+02  0.00000000000E+00 0.  1.
         11    1    4    4    0    0  0.59446830832E+01  0.19836700292E+02 -0.36747915128E+02  0.42181076346E+02  0.00000000000E+00 0. -1.
</event>
<event>
 8    1  0.3719512E-009  0.2025725E+03  0.7561462E-02  0.1147587E+00
         -1   -1    0    0    0  501 -0.00000000000E+00  0.00000000000E+00  0.80082270739E+03  0.80082270739E+03  0.00000000000E+00 0.  1.
          1   -1    0    0  501    0  0.00000000000E+00 -0.00000000000E+00 -0.68243768369E+02  0.68243768369E+02  0.00000000000E+00 0. -1.
         25    2    1    2    0    0  0.18931257466E+03  0.41416672538E+02  0.51357089346E+03  0.56298948105E+03  0.12508997352E+03 0.  0.
         23    2    1    2    0    0 -0.18931257466E+03 -0.41416672538E+02  0.21900804557E+03  0.30607699472E+03  0.90354916756E+02 0.  0.
          5    1    3    3  502    0  0.81203240928E+02 -0.23765488471E+02  0.10263259869E+03  0.13307774981E+03  0.41800000000E+01 0.  1.
         -5    1    3    3    0  502  0.10810933373E+03  0.65182161010E+02  0.41093829476E+03  0.42991173124E+03  0.41800000000E+01 0.  1.
        -11    1    4    4    0    0 -0.67304848333E+02 -0.91694268275E+01  0.14413753943E+03  0.15934130434E+03  0.00000000000E+00 0.  1.
         11    1    4    4    0    0 -0.12200772633E+03 -0.32247245711E+02  0.74870506140E+02  0.14673569037E+03  0.00000000000E+00 0. -1.
</event>
<event>
 8    1  0.3719512E-009  0.1123427E+03  0.7561462E-02  0.1256292E+00
          2   -1    0    0  501    0  0.00000000000E+00  0.00000000000E+00  0.29957415301E+03  0.29957415301E+03  0.00000000000E+00 0. -1.
         -2   -1    0    0    0  501 -0.00000000000E+00 -0.00000000000E+00 -0.59167436858E+02  0.59167436858E+02  0.00000000000E+00 0.  1.
         25    2    1    2    0    0 -0.45423259574E+02  0.15223774320E+02  0.47396024885E+02  0.14208764073E+03  0.12508988232E+03 0.  0.
         23    2    1    2    0    0  0.45423259574E+02 -0.15223774320E+02  0.19301069126E+03  0.21665394914E+03  0.85969592990E+02 0.  0.
          5    1    3    3  502    0  0.13427649500E+02 -0.43213104674E+02 -0.19605942563E+01  0.45486157416E+02  0.41800000000E+01 0. -1.
         -5    1    3    3    0  502 -0.58850909073E+02  0.58436878994E+02  0.49356619141E+02  0.96601483313E+02  0.41800000000E+01 0. -1.
        -11    1    4    4    0    0 -0.23982933958E+02 -0.11752663167E+02  0.76079769656E+02  0.80631492382E+02  0.00000000000E+00 0.  1.
         11    1    4    4    0    0  0.69406193532E+02 -0.34711111530E+01  0.11693092161E+03  0.13602245675E+03  0.00000000000E+00 0. -1.
</event>
<event>
 8    1  0.3719512E-009  0.1631963E+03  0.7561462E-02  0.1185135E+00
         -2   -1    0    0    0  501 -0.00000000000E+00  0.00000000000E+00  0.15392591582E+02  0.15392591582E+02  0.00000000000E+00 0.  1.
          2   -1    0    0  501    0  0.00000000000E+00 -0.00000000000E+00 -0.17701279261E+04  0.17701279261E+04  0.00000000000E+00 0. -1.
         25    2    1    2    0    0 -0.12152998129E+03  0.24254247362E+02 -0.93194829982E+03  0.94843722896E+03  0.12509092243E+03 0.  0.
         23    2    1    2    0    0  0.12152998129E+03 -0.24254247362E+02 -0.82278703472E+03  0.83708328874E+03  0.91499305591E+02 0.  0.
          5    1    3    3  502    0 -0.77552205221E+02  0.72987731679E+02 -0.47722597538E+03  0.48898226705E+03  0.41800000000E+01 0.  1.
         -5    1    3    3    0  502 -0.43977776070E+02 -0.48733484317E+02 -0.45472232444E+03  0.45945496192E+03  0.41800000000E+01 0.  1.
        -11    1    4    4    0    0  0.49813815419E+02 -0.56570771093E+02 -0.39855294774E+03  0.40561819548E+03  0.00000000000E+00 0.  1.
         11    1    4    4    0    0  0.71716165871E+02  0.32316523731E+02 -0.42423408697E+03  0.43146509326E+03  0.00000000000E+00 0. -1.
</event>
<event>
 8    1  0.3719512E-009  0.1009035E+03  0.7561462E-02  0.1278407E+00
         -2   -1    0    0    0  501 -0.00000000000E+00  0.00000000000E+00  0.84217863819E+01  0.84217863819E+01  0.00000000000E+00 0.  1.
          2   -1    0    0  501    0  0.00000000000E+00 -0.00000000000E+00 -0.16640776581E+04  0.16640776581E+04  0.00000000000E+00 0. -1.
         25    2    1    2    0    0  0.17015839738E+02  0.12578492334E+02 -0.12330317812E+04  0.12395414289E+04  0.12509126015E+03 0.  0.
         23    2    1    2    0    0 -0.17015839738E+02 -0.12578492334E+02 -0.42262409059E+03  0.43295801561E+03  0.91617487722E+02 0.  0.
          5    1    3    3  502    0 -0.17376149292E+02 -0.40601607416E+02 -0.21477331385E+03  0.21930679385E+03  0.41800000000E+01 0. -1.
         -5    1    3    3    0  502  0.34391989030E+02  0.53180099750E+02 -0.10182584673E+04  0.10202346351E+04  0.41800000000E+01 0. -1.
        -11    1    4    4    0    0 -0.30482579190E+02 -0.47561176496E+02 -0.24688454919E+03  0.25326514520E+03  0.00000000000E+00 0.  1.
         11    1    4    4    0    0  0.13466739452E+02  0.34982684162E+02 -0.17573954140E+03  0.17969287041E+03  0.00000000000E+00 0. -1.
</event>
<event>
 8    1  0.3719512E-009  0.9949133E+02  0.7561462E-02  0.1281369E+00
          1   -1    0    0  501    0  0.00000000000E+00  0.00000000000E+00  0.45256860047E+02  0.45256860047E+02  0.00000000000E+00 0. -1.
         -1   -1    0    0    0  501 -0.00000000000E+00 -0.00000000000E+00 -0.39166950311E+03  0.39166950311E+03  0.00000000000E+00 0.  1.
         25    2    1    2    0    0 -0.13032688714E+02 -0.54304388977E+02 -0.27609255253E+03  0.30821287205E+03  0.12509699955E+03 0.  0.
         23    2    1    2    0    0  0.13032688714E+02  0.54304388977E+02 -0.70320090532E+02  0.12871349111E+03  0.92214044610E+02 0.  0.
          5    1    3    3  502    0 -0.31164277878E+02  0.70138798423E+01 -0.22208554318E+03  0.22441004349E+03  0.41800000000E+01 0. -1.
         -5    1    3    3    0  502  0.18131589165E+02 -0.61318268820E+02 -0.54007009346E+02  0.83802828563E+02  0.41800000000E+01 0. -1.
        -11    1    4    4    0    0 -0.13753188360E+02 -0.19676469000E+02 -0.35064573117E+02  0.42495151609E+02  0.00000000000E+00 0.  1.
         11    1    4    4    0    0  0.26785877073E+02  0.73980857978E+02 -0.35255517415E+02  0.86218339498E+02  0.00000000000E+00 0. -1.
</event>
<event>
 8    1  0.3719512E-009  0.1463411E+03  0.7561462E-02  0.1205042E+00
          1   -1    0    0  501    0  0.00000000000E+00  0.00000000000E+00  0.32450222793E+03  0.32450222793E+03  0.00000000000E+00 0. -1.
         -1   -1    0    0    0  501 -0.00000000000E+00 -0.00000000000E+00 -0.84082851343E+02  0.84082851343E+02  0.00000000000E+00 0.  1.
         25    2    1    2    0    0 -0.94571986972E+02 -0.79354262213E+02  0.14364194349E+03  0.22698426449E+03  0.12509152148E+03 0.  0.
         23    2    1    2    0    0  0.94571986972E+02  0.79354262213E+02  0.96777433103E+02  0.18160081479E+03  0.91498768964E+02 0.  0.
          5    1    3    3  502    0 -0.49499723925E+02 -0.10532598373E+03  0.12676598722E+03  0.17213620605E+03  0.41800000000E+01 0.  1.
         -5    1    3    3    0  502 -0.45072263046E+02  0.25971721517E+02  0.16875956266E+02  0.54848058439E+02  0.41800000000E+01 0.  1.
        -11    1    4    4    0    0  0.21527409266E+02  0.25012144577E+02  0.83259557831E+02  0.89561100352E+02  0.00000000000E+00 0. -1.
         11    1    4    4    0    0  0.73044577705E+02  0.54342117636E+02  0.13517875272E+02  0.92039714434E+02  0.00000000000E+00 0.  1.
</event>
<event>
 8    1  0.3719512E-009  0.1098231E+03  0.7561462E-02  0.1260898E+00
         -1   -1    0    0    0  501 -0.00000000000E+00  0.00000000000E+00  0.28482465852E+03  0.28482465852E+03  0.00000000000E+00 0.  1.
          1   -1    0    0  501    0  0.00000000000E+00 -0.00000000000E+00 -0.55358596505E+02  0.55358596505E+02  0.00000000000E+00 0. -1.
         25    2    1    2    0    0 -0.62770046646E+02  0.74912207284E+01  0.12295486262E+03  0.18645154669E+03  0.12510029527E+03 0.  0.
         23    2    1    2    0    0  0.62770046646E+02 -0.74912207284E+01  0.10651119939E+03  0.15373170833E+03  0.91063743647E+02 0.  0.
          5    1    3    3  502    0 -0.96258432897E+02  0.27385414953E+02  0.78981560169E+02  0.12755863790E+03  0.41800000000E+01 0.  1.
         -5    1    3    3    0  502  0.33488386251E+02 -0.19894194224E+02  0.43973302456E+02  0.58892908796E+02  0.41800000000E+01 0.  1.
        -11    1    4    4    0    0  0.11529150581E+02  0.19301326983E+02 -0.92669425825E+01  0.24317457953E+02  0.00000000000E+00 0. -1.
         11    1    4    4    0    0  0.51240896064E+02 -0.26792547712E+02  0.11577814198E+03  0.12941425038E+03  0.00000000000E+00 0.  1.
</event>
<event>
 8    1  0.3719512E-009  0.1304944E+03  0.7561462E-02  0.1226724E+00
          2   -1    0    0  501    0  0.00000000000E+00  0.00000000000E+00  0.10948921205E+03  0.10948921205E+03  0.00000000000E+00 0. -1.
         -2   -1    0    0    0  501 -0.00000000000E+00 -0.00000000000E+00 -0.15847367238E+03  0.15847367238E+03  0.00000000000E+00 0.  1.
         25    2    1    2    0    0  0.71850517272E+02  0.13622323251E+01 -0.97597729974E+01  0.14459209418E+03  0.12508904037E+03 0.  0.
         23    2    1    2    0    0 -0.71850517272E+02 -0.13622323251E+01 -0.39224687333E+02  0.12337079025E+03  0.92289887211E+02 0.  0.
          5    1    3    3  502    0 -0.27665971114E+02 -0.28700951202E+02  0.10853906197E+00  0.40082848431E+02  0.41800000000E+01 0.  1.
         -5    1    3    3    0  502  0.99516488387E+02  0.30063183527E+02 -0.98683120593E+01  0.10450924575E+03  0.41800000000E+01 0.  1.
        -11    1    4    4    0    0 -0.89581547688E+02 -0.19305057429E+02 -0.32892581314E+02  0.97362522739E+02  0.00000000000E+00 0.  1.
         11    1    4    4    0    0  0.17731030416E+02  0.17942825104E+02 -0.63321060184E+01  0.26008267512E+02  0.00000000000E+00 0. -1.
</event>
<event>
 8    1  0.3719512E-009  0.1178515E+03  0.7561462E-02  0.1246684E+00
         -1   -1    0    0    0  501 -0.00000000000E+00  0.00000000000E+00  0.59612687959E+02  0.59612687959E+02  0.00000000000E+00 0.  1.
          1   -1    0    0  501    0  0.00000000000E+00 -0.00000000000E+00 -0.44744371506E+03  0.44744371506E+03  0.00000000000E+00 0. -1.
         25    2    1    2    0    0  0.21124440911E+01 -0.94532607207E+02 -0.88385448619E+02  0.18000549933E+03  0.12509642687E+03 0.  0.
         23    2    1    2    0    0 -0.21124440911E+01  0.94532607207E+02 -0.29944557848E+03  0.32705090369E+03  0.91398921698E+02 0.  0.
          5    1    3    3  502    0  0.91005008798E+01 -0.95497434365E+02 -0.49293483916E+01  0.96147542673E+02  0.41800000000E+01 0.  1.
         -5    1    3    3    0  502 -0.69880567887E+01  0.96482715834E+00 -0.83456100228E+02  0.83857956655E+02  0.41800000000E+01 0.  1.
        -11    1    4    4    0    0 -0.12069253033E+01 -0.18453187147E+02 -0.39854122121E+02  0.43935496294E+02  0.00000000000E+00 0.  1.
         11    1    4    4    0    0 -0.90551878778E+00  0.11298579435E+03 -0.25959145636E+03  0.28311540740E+03  0.00000000000E+00 0. -1.
</event>
<event>
 8    1  0.3719512E-009  0.8937307E+02  0.7561462E-02  0.1304377E+00
         -1   -1    0    0    0  501 -0.00000000000E+00  0.00000000000E+00  0.65999147570E+02  0.65999147570E+02  0.00000000000E+00 0.  1.
          1   -1    0    0  501    0  0.00000000000E+00 -0.00000000000E+00 -0.24188415038E+03  0.24188415038E+03  0.00000000000E+00 0. -1.
         25    2    1    2    0    0 -0.26448783051E+02  0.58935231807E+02 -0.10226073908E+03  0.17400237481E+03  0.12508664202E+03 0.  0.
         23    2    1    2    0    0  0.26448783051E+02 -0.58935231807E+02 -0.73624263729E+02  0.13388092313E+03  0.91272502412E+02 0.  0.
          5    1    3    3  502    0  0.13469688139E+02  0.31870451421E+02  0.21610497397E+02  0.41007854981E+02  0.41800000000E+01 0. -1.
         -5    1    3    3    0  502 -0.39918471190E+02  0.27064780386E+02 -0.12387123648E+03  0.13299451983E+03  0.41800000000E+01 0. -1.
        -11    1    4    4    0    0 -0.14684311659E+02 -0.51669271951E+02 -0.55340016418E+01  0.53999702286E+02  0.00000000000E+00 0.  1.
         11    1    4    4    0    0  0.41133094710E+02 -0.72659598558E+01 -0.68090262087E+02  0.79881220848E+02  0.00000000000E+00 0. -1.
</event>
<event>
 8    1  0.3719512E-009  0.1444644E+03  0.7561462E-02  0.1207445E+00
          1   -1    0    0  501    0  0.00000000000E+00  0.00000000000E+00  0.34560650307E+03  0.34560650307E+03  0.00000000000E+00 0. -1.
         -1   -1    0    0    0  501 -0.00000000000E+00 -0.00000000000E+00 -0.95880133158E+02  0.95880133158E+02  0.00000000000E+00 0.  1.
         25    2    1    2    0    0  0.71279780819E+02 -0.64690362008E+02  0.26385039988E+03  0.30745944220E+03  0.12509446428E+03 0.  0.
         23    2    1    2    0    0 -0.71279780819E+02  0.64690362008E+02 -0.14124029969E+02  0.13402719402E+03  0.92185413296E+02 0.  0.
          5    1    3    3  502    0  0.48621301091E+02  0.32032074919E+02  0.94305222383E+02  0.11091001809E+03  0.41800000000E+01 0. -1.
         -5    1    3    3    0  502  0.22658479728E+02 -0.96722436927E+02  0.16954517750E+03  0.19654942412E+03  0.41800000000E+01 0. -1.
        -11    1    4    4    0    0 -0.33855605758E+02  0.82870462813E+02 -0.20759991069E+02  0.91895010078E+02  0.00000000000E+00 0.  1.
         11    1    4    4    0    0 -0.37424175060E+02 -0.18180100804E+02  0.66359610993E+01  0.42132183944E+02  0.00000000000E+00 0. -1.
</event>
<event>
 8    1  0.3719512E-009  0.9876882E+02  0.7561462E-02  0.1282906E+00
         -1   -1    0    0    0  501 -0.00000000000E+00  0.00000000000E+00  0.25629277303E+02  0.25629277303E+02  0.00000000000E+00 0.  1.
          1   -1    0    0  501    0  0.00000000000E+00 -0.00000000000E+00 -0.76225960210E+03  0.76225960210E+03  0.00000000000E+00 0. -1.
         25    2    1    2    0    0  0.50239526219E+02  0.29357168241E+02 -0.58257277002E+03  0.59868617881E+03  0.12509298546E+03 0.  0.
         23    2    1    2    0    0 -0.50239526219E+02 -0.29357168241E+02 -0.15405755478E+03  0.18920270059E+03  0.93156204330E+02 0.  0.
          5    1    3    3  502    0  0.33141946778E+02  0.73063976104E+02 -0.46729857121E+03  0.47415415246E+03  0.41800000000E+01 0. -1.
         -5    1    3    3    0  502  0.17097579441E+02 -0.43706807862E+02 -0.11527419880E+03  0.12453202635E+03  0.41800000000E+01 0. -1.
        -11    1    4    4    0    0 -0.29117638800E+02  0.52023988969E+01  0.34026349495E+00  0.29580696794E+02  0.00000000000E+00 0.  1.
         11    1    4    4    0    0 -0.21121887419E+02 -0.34559567138E+02 -0.15439781828E+03  0.15962200380E+03  0.00000000000E+00 0. -1.
</event>
<event>
 8    1  0.3719512E-009  0.1758000E+03  0.7561462E-02  0.1171931E+00
         -1   -1    0    0    0  501 -0.00000000000E+00  0.00000000000E+00  0.38280479647E+02  0.38280479647E+02  0.00000000000E+00 0.  1.
          1   -1    0    0  501    0  0.00000000000E+00 -0.00000000000E+00 -0.10309077198E+04  0.10309077198E+04  0.00000000000E+00 0. -1.
         25    2    1    2    0    0  0.35687921354E+02 -0.15576104062E+03 -0.64651210291E+03  0.67761408952E+03  0.12509126908E+03 0.  0.
         23    2    1    2    0    0 -0.35687921354E+02  0.15576104062E+03 -0.34611513724E+03  0.39157410993E+03  0.89439732959E+02 0.  0.
          5    1    3    3  502    0  0.48601306922E+02 -0.16599851486E+03 -0.63202095245E+03  0.65527517174E+03  0.41800000000E+01 0. -1.
         -5    1    3    3    0  502 -0.12913385568E+02  0.10237474242E+02 -0.14491150465E+02  0.22338917778E+02  0.41800000000E+01 0. -1.
        -11    1    4    4    0    0 -0.26316951257E+02  0.14474906905E+03 -0.34718937531E+03  0.37707471043E+03  0.00000000000E+00 0. -1.
         11    1    4    4    0    0 -0.93709700973E+01  0.11011971570E+02  0.10742380701E+01  0.14499399500E+02  0.00000000000E+00 0.  1.
</event>
<event>
 8    1  0.3719512E-009  0.1120119E+03  0.7561462E-02  0.1256889E+00
         -1   -1    0    0    0  501 -0.00000000000E+00  0.00000000000E+00  0.29353112237E+02  0.29353112237E+02  0.00000000000E+00 0.  1.
          1   -1    0    0  501    0  0.00000000000E+00 -0.00000000000E+00 -0.63796562641E+03  0.63796562641E+03  0.00000000000E+00 0. -1.
         25    2    1    2    0    0  0.20071933966E+02  0.78140954664E+02 -0.36269575981E+03  0.39205238926E+03  0.12509184789E+03 0.  0.
         23    2    1    2    0    0 -0.20071933966E+02 -0.78140954664E+02 -0.24591675437E+03  0.27526634940E+03  0.93742315430E+02 0.  0.
          5    1    3    3  502    0 -0.29597068512E+02  0.12155348055E+01 -0.22281414387E+03  0.22481343175E+03  0.41800000000E+01 0. -1.
         -5    1    3    3    0  502  0.49669002479E+02  0.76925419859E+02 -0.13988161594E+03  0.16723895750E+03  0.41800000000E+01 0. -1.
        -11    1    4    4    0    0 -0.92303301192E+01  0.10018447921E+02  0.18746993531E+00  0.13623635265E+02  0.00000000000E+00 0.  1.
         11    1    4    4    0    0 -0.10841603847E+02 -0.88159402585E+02 -0.24610422430E+03  0.26164271413E+03  0.00000000000E+00 0. -1.
</event>
<event>
 8    1  0.3719512E-009  0.2650686E+03  0.7561462E-02  0.1104136E+00
          3   -1    0    0  501    0  0.00000000000E+00  0.00000000000E+00  0.27466795896E+03  0.27466795896E+03  0.00000000000E+00 0. -1.
         -3   -1    0    0    0  501 -0.00000000000E+00 -0.00000000000E+00 -0.28182162353E+03  0.28182162353E+03  0.00000000000E+00 0.  1.
         25    2    1    2    0    0 -0.22366721617E+03  0.11596413668E+03 -0.43516234019E+02  0.28463413788E+03  0.12509286648E+03 0.  0.
         23    2    1    2    0    0  0.22366721617E+03 -0.11596413668E+03  0.36362569446E+02  0.27185544461E+03  0.95438156542E+02 0.  0.
          5    1    3    3  502    0 -0.84085619034E+02 -0.56476946303E+01 -0.52261517286E+02  0.99252336859E+02  0.41800000000E+01 0. -1.
         -5    1    3    3    0  502 -0.13958159713E+03  0.12161183131E+03  0.87452832661E+01  0.18538180103E+03  0.41800000000E+01 0. -1.
        -11    1    4    4    0    0  0.13767716356E+03 -0.34057243056E+02  0.54074195529E+02  0.15178575623E+03  0.00000000000E+00 0. -1.
         11    1    4    4    0    0  0.85990052603E+02 -0.81906893624E+02 -0.17711626084E+02  0.12006968838E+03  0.00000000000E+00 0.  1.
</event>
<event>
 8    1  0.3719512E-009  0.1550784E+03  0.7561462E-02  0.1194368E+00
          1   -1    0    0  501    0  0.00000000000E+00  0.00000000000E+00  0.31845324469E+03  0.31845324469E+03  0.00000000000E+00 0.  1.
         -1   -1    0    0    0  501 -0.00000000000E+00 -0.00000000000E+00 -0.11882280520E+03  0.11882280520E+03  0.00000000000E+00 0. -1.
         25    2    1    2    0    0 -0.13308403681E+03 -0.40011497371E+02  0.19627784450E+03  0.27107998985E+03  0.12508832033E+03 0.  0.
         23    2    1    2    0    0  0.13308403681E+03  0.40011497371E+02  0.33525949971E+01  0.16619606003E+03  0.91091216377E+02 0.  0.
          5    1    3    3  502    0 -0.52072842783E+02 -0.61378818961E+02  0.32185254015E+02  0.86788843456E+02  0.41800000000E+01 0.  1.
         -5    1    3    3    0  502 -0.81011194029E+02  0.21367321590E+02  0.16409259048E+03  0.18429114640E+03  0.41800000000E+01 0.  1.
        -11    1    4    4    0    0  0.10428749647E+03  0.11119656472E+02  0.39126885455E+02  0.11193945616E+03  0.00000000000E+00 0.  1.
         11    1    4    4    0    0  0.28796540346E+02  0.28891840899E+02 -0.35774290458E+02  0.54256603876E+02  0.00000000000E+00 0. -1.
</event>
<event>
 8    1  0.3719512E-009  0.4604866E+03  0.7561462E-02  0.1024640E+00
         -2   -1    0    0    0  501 -0.00000000000E+00  0.00000000000E+00  0.24248490769E+03  0.24248490769E+03  0.00000000000E+00 0.  1.
          2   -1    0    0  501    0  0.00000000000E+00 -0.00000000000E+00 -0.10082414053E+04  0.10082414053E+04  0.00000000000E+00 0. -1.
         25    2    1    2    0    0  0.10402149082E+03  0.44419268069E+03 -0.58356438986E+03  0.75121319656E+03  0.12508501684E+03 0.  0.
         23    2    1    2    0    0 -0.10402149082E+03 -0.44419268069E+03 -0.18219210771E+03  0.49951311640E+03  0.90508459335E+02 0.  0.
          5    1    3    3  502    0  0.10789512358E+03  0.30299474426E+03 -0.32936844924E+03  0.46037834494E+03  0.41800000000E+01 0.  1.
         -5    1    3    3    0  502 -0.38736327664E+01  0.14119793643E+03 -0.25419594062E+03  0.29083485161E+03  0.41800000000E+01 0.  1.
        -11    1    4    4    0    0 -0.83377622481E+02 -0.40710077976E+03 -0.13709988353E+03  0.43758342162E+03  0.00000000000E+00 0. -1.
         11    1    4    4    0    0 -0.20643868338E+02 -0.37091900935E+02 -0.45092224171E+02  0.61929694780E+02  0.00000000000E+00 0.  1.
</event>
<event>
 8    1  0.3719512E-009  0.1218229E+03  0.7561462E-02  0.1240120E+00
         -2   -1    0    0    0  501 -0.00000000000E+00  0.00000000000E+00  0.90696819161E+02  0.90696819161E+02  0.00000000000E+00 0.  1.
          2   -1    0    0  501    0  0.00000000000E+00 -0.00000000000E+00 -0.27649667045E+03  0.27649667045E+03  0.00000000000E+00 0. -1.
         25    2    1    2    0    0 -0.89427372556E+02 -0.54916073191E+02 -0.43401481361E+02  0.16896351534E+03  0.12510775705E+03 0.  0.
         23    2    1    2    0    0  0.89427372556E+02  0.54916073191E+02 -0.14239836993E+03  0.19822997427E+03  0.89469530484E+02 0.  0.
          5    1    3    3  502    0 -0.30504797786E+02 -0.26453047150E+02  0.43892707044E+02  0.59785855544E+02  0.41800000000E+01 0.  1.
         -5    1    3    3    0  502 -0.58922574770E+02 -0.28463026041E+02 -0.87294188405E+02  0.10917765979E+03  0.41800000000E+01 0.  1.
        -11    1    4    4    0    0  0.86852330074E+02  0.44664112699E+01 -0.97439832140E+02  0.13060550125E+03  0.00000000000E+00 0.  1.
         11    1    4    4    0    0  0.25750424819E+01  0.50449661921E+02 -0.44958537785E+02  0.67624473022E+02  0.00000000000E+00 0. -1.
</event>
<event>
 8    1  0.3719512E-009  0.1064815E+03  0.7561462E-02  0.1267228E+00
          2   -1    0    0  501    0  0.00000000000E+00  0.00000000000E+00  0.28117697501E+03  0.28117697501E+03  0.00000000000E+00 0.  1.
         -2   -1    0    0    0  501 -0.00000000000E+00 -0.00000000000E+00 -0.60068022489E+02  0.60068022489E+02  0.00000000000E+00 0. -1.
         25    2    1    2    0    0 -0.91437238478E+01  0.60111802382E+02  0.16801501982E+03  0.21810930782E+03  0.12508232009E+03 0.  0.
         23    2    1    2    0    0  0.91437238478E+01 -0.60111802382E+02  0.53093932696E+02  0.12313568968E+03  0.92985998471E+02 0.  0.
          5    1    3    3  502    0  0.53790377647E+02  0.15825708293E+02  0.10271429779E+03  0.11709635836E+03  0.41800000000E+01 0. -1.
         -5    1    3    3    0  502 -0.62934101495E+02  0.44286094089E+02  0.65300722035E+02  0.10101294946E+03  0.41800000000E+01 0. -1.
        -11    1    4    4    0    0 -0.20824027545E+02 -0.15640532702E+02  0.63388807280E+02  0.68530338353E+02  0.00000000000E+00 0.  1.
         11    1    4    4    0    0  0.29967751393E+02 -0.44471269680E+02 -0.10294874585E+02  0.54605351324E+02  0.00000000000E+00 0. -1.
</event>
<event>
 8    1  0.3719512E-009  0.1018599E+03  0.7561462E-02  0.1276433E+00
         -1   -1    0    0    0  501 -0.00000000000E+00  0.00000000000E+00  0.19845872859E+03  0.19845872859E+03  0.00000000000E+00 0.  1.
          1   -1    0    0  501    0  0.00000000000E+00 -0.00000000000E+00 -0.97878249762E+02  0.97878249762E+02  0.00000000000E+00 0. -1.
         25    2    1    2    0    0  0.72976273487E+02  0.41973605243E+02  0.29999917066E+02  0.15373513179E+03  0.12508867132E+03 0.  0.
         23    2    1    2    0    0 -0.72976273487E+02 -0.41973605243E+02  0.70580561760E+02  0.14260184656E+03  0.90919474894E+02 0.  0.
          5    1    3    3  502    0  0.44429305595E+01  0.13968121888E+02 -0.45455144186E+02  0.47942576005E+02  0.41800000000E+01 0. -1.
         -5    1    3    3    0  502  0.68533342928E+02  0.28005483355E+02  0.75455061252E+02  0.10579255578E+03  0.41800000000E+01 0. -1.
        -11    1    4    4    0    0 -0.58103895619E+02  0.11145562502E+02  0.63824309525E+02  0.87027746931E+02  0.00000000000E+00 0. -1.
         11    1    4    4    0    0 -0.14872377869E+02 -0.53119167746E+02  0.67562522356E+01  0.55574099630E+02  0.00000000000E+00 0.  1.
</event>
<event>
 8    1  0.3719512E-009  0.1063390E+03  0.7561462E-02  0.1267504E+00
          1   -1    0    0  501    0  0.00000000000E+00  0.00000000000E+00  0.78125356975E+02  0.78125356975E+02  0.00000000000E+00 0. -1.
         -1   -1    0    0    0  501 -0.00000000000E+00 -0.00000000000E+00 -0.35114289566E+03  0.35114289566E+03  0.00000000000E+00 0.  1.
         25    2    1    2    0    0 -0.64495778793E+02 -0.75759158920E+02 -0.24135831368E+03  0.28948234913E+03  0.12508812587E+03 0.  0.
         23    2    1    2    0    0  0.64495778793E+02  0.75759158920E+02 -0.31659225013E+02  0.13978590351E+03  0.92944266360E+02 0.  0.
          5    1    3    3  502    0  0.48551758427E+01 -0.28360014428E+02 -0.18720855620E+03  0.18945284127E+03  0.41800000000E+01 0.  1.
         -5    1    3    3    0  502 -0.69350954635E+02 -0.47399144493E+02 -0.54149757472E+02  0.10002950786E+03  0.41800000000E+01 0.  1.
        -11    1    4    4    0    0  0.39875280539E+02  0.46213624718E+02  0.29301330006E+02  0.67707496245E+02  0.00000000000E+00 0. -1.
         11    1    4    4    0    0  0.24620498253E+02  0.29545534203E+02 -0.60960555019E+02  0.72078407265E+02  0.00000000000E+00 0.  1.
</event>
<event>
 8    1  0.3719512E-009  0.1263665E+03  0.7561462E-02  0.1232949E+00
         -4   -1    0    0    0  501 -0.00000000000E+00  0.00000000000E+00  0.32973804484E+02  0.32973804484E+02  0.00000000000E+00 0.  1.
          4   -1    0    0  501    0  0.00000000000E+00 -0.00000000000E+00 -0.72218120007E+03  0.72218120007E+03  0.00000000000E+00 0. -1.
         25    2    1    2    0    0  0.79733391321E+02 -0.82346236165E+01 -0.54651978161E+03  0.56635395656E+03  0.12509080582E+03 0.  0.
         23    2    1    2    0    0 -0.79733391321E+02  0.82346236165E+01 -0.14268761398E+03  0.18880104800E+03  0.94132129608E+02 0.  0.
          5    1    3    3  502    0  0.11035068835E+03 -0.11794642167E+02 -0.48330284251E+03  0.49589867714E+03  0.41800000000E+01 0.  1.
         -5    1    3    3    0  502 -0.30617297032E+02  0.35600185506E+01 -0.63216939095E+02  0.70455279420E+02  0.41800000000E+01 0.  1.
        -11    1    4    4    0    0 -0.23345421009E+02  0.39656267042E+02 -0.20016778210E+02  0.50182662422E+02  0.00000000000E+00 0.  1.
         11    1    4    4    0    0 -0.56387970313E+02 -0.31421643426E+02 -0.12267083577E+03  0.13861838558E+03  0.00000000000E+00 0. -1.
</event>
<event>
 8    1  0.3719512E-009  0.1367032E+03  0.7561462E-02  0.1217835E+00
         -1   -1    0    0    0  501 -0.00000000000E+00  0.00000000000E+00  0.17596063534E+03  0.17596063534E+03  0.00000000000E+00 0.  1.
          1   -1    0    0  501    0  0.00000000000E+00 -0.00000000000E+00 -0.15895610151E+03  0.15895610151E+03  0.00000000000E+00 0. -1.
         25    2    1    2    0    0 -0.52015260217E+02  0.88663073217E+02 -0.64569331800E+02  0.17429483892E+03  0.12507103748E+03 0.  0.
         23    2    1    2    0    0  0.52015260217E+02 -0.88663073217E+02  0.81573865630E+02  0.16062189794E+03  0.92619494143E+02 0.  0.
          5    1    3    3  502    0 -0.52279121269E+02  0.11641238990E+03 -0.32642941722E+02  0.13178765150E+03  0.41800000000E+01 0.  1.
         -5    1    3    3    0  502  0.26386105216E+00 -0.27749316682E+02 -0.31926390078E+02  0.42507187420E+02  0.41800000000E+01 0.  1.
        -11    1    4    4    0    0  0.62477394687E+02 -0.57947934214E+02  0.14948345303E+02  0.86514975315E+02  0.00000000000E+00 0. -1.
         11    1    4    4    0    0 -0.10462134470E+02 -0.30715139003E+02  0.66625520326E+02  0.74106922621E+02  0.00000000000E+00 0.  1.
</event>
<event>
 8    1  0.3719512E-009  0.7518372E+02  0.7561462E-02  0.1343303E+00
          1   -1    0    0  501    0  0.00000000000E+00  0.00000000000E+00  0.55064915572E+03  0.55064915572E+03  0.00000000000E+00 0. -1.
         -1   -1    0    0    0  501 -0.00000000000E+00 -0.00000000000E+00 -0.33210098668E+02  0.33210098668E+02  0.00000000000E+00 0.  1.
         25    2    1    2    0    0 -0.51707478196E+02  0.92483396932E+01  0.41794740736E+03  0.43941627241E+03  0.12508968804E+03 0.  0.
         23    2    1    2    0    0  0.51707478196E+02 -0.92483396932E+01  0.99491649692E+02  0.14444298198E+03  0.90586928392E+02 0.  0.
          5    1    3    3  502    0 -0.12149101193E+02 -0.13302937003E+02  0.37871448030E+03  0.37916579326E+03  0.41800000000E+01 0. -1.
         -5    1    3    3    0  502 -0.39558377003E+02  0.22551276697E+02  0.39232927059E+02  0.60250479146E+02  0.41800000000E+01 0. -1.
        -11    1    4    4    0    0  0.59118022045E+02  0.14833434326E+02  0.10231016853E+03  0.11908963805E+03  0.00000000000E+00 0. -1.
         11    1    4    4    0    0 -0.74105438484E+01 -0.24081774019E+02 -0.28185188420E+01  0.25353343931E+02  0.00000000000E+00 0.  1.
</event>
<event>
 8    1  0.3719512E-009  0.1119937E+03  0.7561462E-02  0.1256922E+00
          2   -1    0    0  501    0  0.00000000000E+00  0.00000000000E+00  0.11632428688E+04  0.11632428688E+04  0.00000000000E+00 0. -1.
         -2   -1    0    0    0  501 -0.00000000000E+00 -0.00000000000E+00 -0.15174150218E+02  0.15174150218E+02  0.00000000000E+00 0.  1.
         25    2    1    2    0    0  0.31527749349E+02  0.30425868658E+02  0.92410735329E+03  0.93356402540E+03  0.12509059385E+03 0.  0.
         23    2    1    2    0    0 -0.31527749349E+02 -0.30425868658E+02  0.22396136532E+03  0.24485299363E+03  0.88738733788E+02 0.  0.
          5    1    3    3  502    0  0.18830077864E+02  0.78630340008E+02  0.63799982032E+03  0.64311627668E+03  0.41800000000E+01 0.  1.
         -5    1    3    3    0  502  0.12697671485E+02 -0.48204471349E+02  0.28610753296E+03  0.29044774872E+03  0.41800000000E+01 0.  1.
        -11    1    4    4    0    0 -0.52334621663E+02 -0.43819381421E+02  0.19584258684E+03  0.20739664807E+03  0.00000000000E+00 0. -1.
         11    1    4    4    0    0  0.20806872314E+02  0.13393512763E+02  0.28118778482E+02  0.37456345563E+02  0.00000000000E+00 0.  1.
</event>
<event>
 8    1  0.3719512E-009  0.1012963E+03  0.7561462E-02  0.1277593E+00
          1   -1    0    0  501    0  0.00000000000E+00  0.00000000000E+00  0.40040709587E+03  0.40040709587E+03  0.00000000000E+00 0. -1.
         -1   -1    0    0    0  501 -0.00000000000E+00 -0.00000000000E+00 -0.33871192007E+02  0.33871192007E+02  0.00000000000E+00 0.  1.
         25    2    1    2    0    0  0.25420640232E+02 -0.23924822613E+02  0.25702990909E+03  0.28797686388E+03  0.12509074257E+03 0.  0.
         23    2    1    2    0    0 -0.25420640232E+02  0.23924822613E+02  0.10950599478E+03  0.14630142400E+03  0.90520371659E+02 0.  0.
          5    1    3    3  502    0 -0.43264947006E+02 -0.30091255676E+02  0.16255407706E+03  0.17093460644E+03  0.41800000000E+01 0. -1.
         -5    1    3    3    0  502  0.68685587238E+02  0.61664330626E+01  0.94475832026E+02  0.11704225745E+03  0.41800000000E+01 0. -1.
        -11    1    4    4    0    0  0.25256707741E+02  0.17364773977E+01  0.19986852755E+01  0.25395105483E+02  0.00000000000E+00 0.  1.
         11    1    4    4    0    0 -0.50677347973E+02  0.22188345216E+02  0.10750730950E+03  0.12090631852E+03  0.00000000000E+00 0. -1.
</event>
<event>
 8    1  0.3719512E-009  0.1321412E+03  0.7561462E-02  0.1224313E+00
         -2   -1    0    0    0  501 -0.00000000000E+00  0.00000000000E+00  0.16367037114E+03  0.16367037114E+03  0.00000000000E+00 0.  1.
          2   -1    0    0  501    0  0.00000000000E+00 -0.00000000000E+00 -0.18571562213E+03  0.18571562213E+03  0.00000000000E+00 0. -1.
         25    2    1    2    0    0  0.96856206771E+02  0.51424363238E+02 -0.91692093590E+02  0.18994795246E+03  0.12508874726E+03 0.  0.
         23    2    1    2    0    0 -0.96856206771E+02 -0.51424363238E+02  0.69646842603E+02  0.15943804082E+03  0.92434929818E+02 0.  0.
          5    1    3    3  502    0  0.40903233623E+02  0.70883685472E+02 -0.14993988670E+01  0.81959087256E+02  0.41800000000E+01 0. -1.
         -5    1    3    3    0  502  0.55952973148E+02 -0.19459322234E+02 -0.90192694723E+02  0.10798886520E+03  0.41800000000E+01 0. -1.
        -11    1    4    4    0    0 -0.15621851080E+02  0.12154205846E+02 -0.15928772036E+02  0.25406548949E+02  0.00000000000E+00 0. -1.
         11    1    4    4    0    0 -0.81234355691E+02 -0.63578569084E+02  0.85575614640E+02  0.13403149187E+03  0.00000000000E+00 0.  1.
</event>
<event>
 8    1  0.3719512E-009  0.1000524E+03  0.7561462E-02  0.1280186E+00
         -1   -1    0    0    0  501 -0.00000000000E+00  0.00000000000E+00  0.21978898782E+02  0.21978898782E+02  0.00000000000E+00 0.  1.
          1   -1    0    0  501    0  0.00000000000E+00 -0.00000000000E+00 -0.84605980464E+03  0.84605980464E+03  0.00000000000E+00 0. -1.
         25    2    1    2    0    0 -0.53785069514E+02  0.61601005455E+02 -0.40140885114E+03  0.42832609918E+03  0.12508662554E+03 0.  0.
         23    2    1    2    0    0  0.53785069514E+02 -0.61601005455E+02 -0.42267205472E+03  0.43971260424E+03  0.89487378518E+02 0.  0.
          5    1    3    3  502    0 -0.34708564071E+02  0.22344858570E+02 -0.37469158976E+03  0.37698174619E+03  0.41800000000E+01 0.  1.
         -5    1    3    3    0  502 -0.19076505444E+02  0.39256146885E+02 -0.26717261379E+02  0.51344352988E+02  0.41800000000E+01 0.  1.
        -11    1    4    4    0    0  0.62297183191E+02 -0.10759156343E+02 -0.16013432164E+03  0.17216184085E+03  0.00000000000E+00 0.  1.
         11    1    4    4    0    0 -0.85121136770E+01 -0.50841849112E+02 -0.26253773307E+03  0.26755076338E+03  0.00000000000E+00 0. -1.
</event>
<event>
 8    1  0.3719512E-009  0.1124295E+03  0.7561462E-02  0.1256136E+00
          2   -1    0    0  501    0  0.00000000000E+00  0.00000000000E+00  0.12609096861E+03  0.12609096861E+03  0.00000000000E+00 0. -1.
         -2   -1    0    0    0  501 -0.00000000000E+00 -0.00000000000E+00 -0.12163772798E+03  0.12163772798E+03  0.00000000000E+00 0.  1.
         25    2    1    2    0    0 -0.24294922525E+02 -0.35533812821E+02 -0.36061708573E+02  0.13712385416E+03  0.12509839903E+03 0.  0.
         23    2    1    2    0    0  0.24294922525E+02  0.35533812821E+02  0.40514949195E+02  0.11060484243E+03  0.93483019567E+02 0.  0.
          5    1    3    3  502    0 -0.74765275980E+02 -0.31660127423E+02 -0.25903902269E+02  0.85326987018E+02  0.41800000000E+01 0.  1.
         -5    1    3    3    0  502  0.50470353455E+02 -0.38736853980E+01 -0.10157806304E+02  0.51796867139E+02  0.41800000000E+01 0.  1.
        -11    1    4    4    0    0  0.37960288256E+02 -0.14701059541E+02 -0.55577787692E+01  0.41085198563E+02  0.00000000000E+00 0. -1.
         11    1    4    4    0    0 -0.13665365732E+02  0.50234872362E+02  0.46072727964E+02  0.69519643870E+02  0.00000000000E+00 0.  1.
</event>
<event>
 8    1  0.3719512E-009  0.1471445E+03  0.7561462E-02  0.1204026E+00
         -1   -1    0    0    0  501 -0.00000000000E+00  0.00000000000E+00  0.31061142660E+02  0.31061142660E+02  0.00000000000E+00 0.  1.
          1   -1    0    0  501    0  0.00000000000E+00 -0.00000000000E+00 -0.89782618093E+03  0.89782618093E+03  0.00000000000E+00 0. -1.
         25    2    1    2    0    0 -0.10319636054E+03 -0.75185437479E+02 -0.48668121556E+03  0.51846826837E+03  0.12509356854E+03 0.  0.
         23    2    1    2    0    0  0.10319636054E+03  0.75185437479E+02 -0.38008382271E+03  0.41041905522E+03  0.87622769679E+02 0.  0.
          5    1    3    3  502    0 -0.11395831086E+03 -0.78849046368E+02 -0.29022567775E+03  0.32163968218E+03  0.41800000000E+01 0.  1.
         -5    1    3    3    0  502  0.10761950325E+02  0.36636088884E+01 -0.19645553781E+03  0.19682858619E+03  0.41800000000E+01 0.  1.
        -11    1    4    4    0    0  0.39505192363E+02 -0.64142790555E+01 -0.18806202950E+03  0.19227358149E+03  0.00000000000E+00 0.  1.
         11    1    4    4    0    0  0.63691168174E+02  0.81599716535E+02 -0.19202179321E+03  0.21814547373E+03  0.00000000000E+00 0. -1.
</event>
<event>
 8    1  0.3719512E-009  0.2020228E+03  0.7561462E-02  0.1148043E+00
         -1   -1    0    0    0  501 -0.00000000000E+00  0.00000000000E+00  0.36229501738E+02  0.36229501738E+02  0.00000000000E+00 0.  1.
          1   -1    0    0  501    0  0.00000000000E+00 -0.00000000000E+00 -0.11482816404E+04  0.11482816404E+04  0.00000000000E+00 0. -1.
         25    2    1    2    0    0 -0.90969423396E+02 -0.14398083715E+03 -0.62285240547E+03  0.65772209907E+03  0.12508926071E+03 0.  0.
         23    2    1    2    0    0  0.90969423396E+02  0.14398083715E+03 -0.48919973322E+03  0.52678904310E+03  0.95835272653E+02 0.  0.
          5    1    3    3  502    0 -0.11442004055E+03 -0.77577847059E+02 -0.45754905984E+03  0.47799464703E+03  0.41800000000E+01 0.  1.
         -5    1    3    3    0  502  0.23450617153E+02 -0.66402990093E+02 -0.16530334563E+03  0.17972745204E+03  0.41800000000E+01 0.  1.
        -11    1    4    4    0    0  0.70102629230E+02  0.15606250634E+03 -0.41997857581E+03  0.45348857610E+03  0.00000000000E+00 0. -1.
         11    1    4    4    0    0  0.20866794166E+02 -0.12081669191E+02 -0.69221157414E+02  0.73300467004E+02  0.00000000000E+00 0.  1.
</event>
<event>
 8    1  0.3719512E-009  0.2121326E+03  0.7561462E-02  0.1139888E+00
          2   -1    0    0  501    0  0.00000000000E+00  0.00000000000E+00  0.41803563118E+03  0.41803563118E+03  0.00000000000E+00 0.  1.
         -2   -1    0    0    0  501 -0.00000000000E+00 -0.00000000000E+00 -0.13647374719E+03  0.13647374719E+03  0.00000000000E+00 0. -1.
         25    2    1    2    0    0  0.18440292962E+03 -0.24070381990E+01  0.24095467499E+02  0.22413893962E+03  0.12508972146E+03 0.  0.
         23    2    1    2    0    0 -0.18440292962E+03  0.24070381990E+01  0.25746641649E+03  0.33037043875E+03  0.94050182872E+02 0.  0.
          5    1    3    3  502    0  0.55678996591E+01  0.36932220655E+02  0.15869446007E+02  0.40795859418E+02  0.41800000000E+01 0. -1.
         -5    1    3    3    0  502  0.17883502996E+03 -0.39339258854E+02  0.82260214924E+01  0.18334308020E+03  0.41800000000E+01 0. -1.
        -11    1    4    4    0    0 -0.11571356713E+03  0.43339288964E+02  0.18492560956E+03  0.22240819378E+03  0.00000000000E+00 0.  1.
         11    1    4    4    0    0 -0.68689362484E+02 -0.40932250765E+02  0.72540806928E+02  0.10796224498E+03  0.00000000000E+00 0. -1.
</event>
<event>
 8    1  0.3719512E-009  0.1210760E+03  0.7561462E-02  0.1241333E+00
         -2   -1    0    0    0  501 -0.00000000000E+00  0.00000000000E+00  0.73696054974E+02  0.73696054974E+02  0.00000000000E+00 0.  1.
          2   -1    0    0  501    0  0.00000000000E+00 -0.00000000000E+00 -0.21220793513E+03  0.21220793513E+03  0.00000000000E+00 0. -1.
         25    2    1    2    0    0  0.35808805355E+02 -0.48973194119E+02 -0.61464118916E+02  0.15200519922E+03  0.12508836233E+03 0.  0.
         23    2    1    2    0    0 -0.35808805355E+02  0.48973194119E+02 -0.77047761239E+02  0.13389879089E+03  0.91169536613E+02 0.  0.
          5    1    3    3  502    0 -0.18986211443E+02 -0.73703483273E+02 -0.48555366388E+02  0.90375747170E+02  0.41800000000E+01 0. -1.
         -5    1    3    3    0  502  0.54795016798E+02  0.24730289154E+02 -0.12908752528E+02  0.61629452045E+02  0.41800000000E+01 0. -1.
        -11    1    4    4    0    0  0.28869254781E+02  0.13067054564E+02 -0.79489479684E+01  0.32670591674E+02  0.00000000000E+00 0.  1.
         11    1    4    4    0    0 -0.64678060136E+02  0.35906139555E+02 -0.69098813270E+02  0.10122819921E+03  0.00000000000E+00 0. -1.
</event>
<event>
 8    1  0.3719512E-009  0.1069633E+03  0.7561462E-02  0.1266299E+00
          1   -1    0    0  501    0  0.00000000000E+00  0.00000000000E+00  0.39133011176E+03  0.39133011176E+03  0.00000000000E+00 0. -1.
         -1   -1    0    0    0  501 -0.00000000000E+00 -0.00000000000E+00 -0.44129835073E+02  0.44129835073E+02  0.00000000000E+00 0.  1.
         25    2    1    2    0    0 -0.35996746159E+02 -0.47796032191E+02  0.25338033198E+03  0.28884033098E+03  0.12508764022E+03 0.  0.
         23    2    1    2    0    0  0.35996746159E+02  0.47796032191E+02  0.93819944703E+02  0.14661961586E+03  0.95472002716E+02 0.  0.
          5    1    3    3  502    0  0.58775836995E+01 -0.60815836775E+02  0.45370228511E+02  0.76217071762E+02  0.41800000000E+01 0.  1.
         -5    1    3    3    0  502 -0.41874329858E+02  0.13019804584E+02  0.20801010347E+03  0.21262325921E+03  0.41800000000E+01 0.  1.
        -11    1    4    4    0    0  0.11730170763E+02 -0.27300641446E+02  0.96592291397E+01  0.31244561720E+02  0.00000000000E+00 0.  1.
         11    1    4    4    0    0  0.24266575396E+02  0.75096673637E+02  0.84160715563E+02  0.11537505414E+03  0.00000000000E+00 0. -1.
</event>
<event>
 8    1  0.3719512E-009  0.9483512E+02  0.7561462E-02  0.1291548E+00
         -1   -1    0    0    0  501 -0.00000000000E+00  0.00000000000E+00  0.26657295805E+02  0.26657295805E+02  0.00000000000E+00 0.  1.
          1   -1    0    0  501    0  0.00000000000E+00 -0.00000000000E+00 -0.59646304638E+03  0.59646304638E+03  0.00000000000E+00 0. -1.
         25    2    1    2    0    0  0.12419933107E+02 -0.63036186076E+02 -0.28750307177E+03  0.32005239177E+03  0.12509077387E+03 0.  0.
         23    2    1    2    0    0 -0.12419933107E+02  0.63036186076E+02 -0.28230267881E+03  0.30306795042E+03  0.89596677479E+02 0.  0.
          5    1    3    3  502    0  0.28692126186E+02 -0.81622392401E+02 -0.28117055257E+03  0.29421047751E+03  0.41800000000E+01 0.  1.
         -5    1    3    3    0  502 -0.16272193079E+02  0.18586206325E+02 -0.63325192046E+01  0.25841914260E+02  0.41800000000E+01 0.  1.
        -11    1    4    4    0    0  0.13007922024E+02  0.44946156078E+02 -0.26129057143E+03  0.26544702993E+03  0.00000000000E+00 0. -1.
         11    1    4    4    0    0 -0.25427855131E+02  0.18090029998E+02 -0.21012107382E+02  0.37620920490E+02  0.00000000000E+00 0.  1.
</event>
<event>
 8    1  0.3719512E-009  0.9686363E+02  0.7561462E-02  0.1287033E+00
          1   -1    0    0  501    0  0.00000000000E+00  0.00000000000E+00  0.80861285252E+02  0.80861285252E+02  0.00000000000E+00 0. -1.
         -1   -1    0    0    0  501 -0.00000000000E+00 -0.00000000000E+00 -0.31210961861E+03  0.31210961861E+03  0.00000000000E+00 0.  1.
         25    2    1    2    0    0  0.18050939836E+02  0.14011730959E+02 -0.26316857590E+03  0.29227976455E+03  0.12509035291E+03 0.  0.
         23    2    1    2    0    0 -0.18050939836E+02 -0.14011730959E+02  0.31920242544E+02  0.10069113931E+03  0.92723452364E+02 0.  0.
          5    1    3    3  502    0 -0.22544137989E+02  0.52795766193E+02 -0.19782000284E+03  0.20602392339E+03  0.41800000000E+01 0.  1.
         -5    1    3    3    0  502  0.40595077826E+02 -0.38784035235E+02 -0.65348573056E+02  0.86255841154E+02  0.41800000000E+01 0.  1.
        -11    1    4    4    0    0  0.29762410459E+02  0.92278675837E+00 -0.13847889742E+02  0.32839254895E+02  0.00000000000E+00 0.  1.
         11    1    4    4    0    0 -0.47813350296E+02 -0.14934517717E+02  0.45768132286E+02  0.67851884417E+02  0.00000000000E+00 0. -1.
</event>
<event>
 8    1  0.3719512E-009  0.8236424E+02  0.7561462E-02  0.1322473E+00
         -2   -1    0    0    0  501 -0.00000000000E+00  0.00000000000E+00  0.83989920126E+02  0.83989920126E+02  0.00000000000E+00 0. -1.
          2   -1    0    0  501    0  0.00000000000E+00 -0.00000000000E+00 -0.41993949240E+03  0.41993949240E+03  0.00000000000E+00 0.  1.
         25    2    1    2    0    0 -0.28114906265E+02  0.63787656238E+02 -0.35954637733E+03  0.38701144087E+03  0.12507975405E+03 0.  0.
         23    2    1    2    0    0  0.28114906265E+02 -0.63787656238E+02  0.23596805057E+02  0.11691797165E+03  0.90849820272E+02 0.  0.
          5    1    3    3  502    0  0.69946069859E+01  0.43225709795E+02 -0.33786936010E+03  0.34072065304E+03  0.41800000000E+01 0. -1.
         -5    1    3    3    0  502 -0.35109513251E+02  0.20561946443E+02 -0.21677017230E+02  0.46290787833E+02  0.41800000000E+01 0. -1.
        -11    1    4    4    0    0  0.20204590165E+02 -0.53931921345E+01  0.48597681379E+02  0.52906016865E+02  0.00000000000E+00 0. -1.
         11    1    4    4    0    0  0.79103160999E+01 -0.58394464104E+02 -0.25000876321E+02  0.64011954786E+02  0.00000000000E+00 0.  1.
</event>
<event>
 8    1  0.3719512E-009  0.1762439E+03  0.7561462E-02  0.1171488E+00
          1   -1    0    0  501    0  0.00000000000E+00  0.00000000000E+00  0.44288054657E+03  0.44288054657E+03  0.00000000000E+00 0. -1.
         -1   -1    0    0    0  501 -0.00000000000E+00 -0.00000000000E+00 -0.96709015157E+02  0.96709015157E+02  0.00000000000E+00 0.  1.
         25    2    1    2    0    0 -0.76217933156E+02 -0.15171886183E+03  0.11811739506E+03  0.24171725033E+03  0.12509086186E+03 0.  0.
         23    2    1    2    0    0  0.76217933156E+02  0.15171886183E+03  0.22805413635E+03  0.29787231139E+03  0.88833768455E+02 0.  0.
          5    1    3    3  502    0 -0.37654290700E+02 -0.13124019030E+03  0.25113226025E+02  0.13888837129E+03  0.41800000000E+01 0. -1.
         -5    1    3    3    0  502 -0.38563642456E+02 -0.20478671535E+02  0.93004169039E+02  0.10282887905E+03  0.41800000000E+01 0. -1.
        -11    1    4    4    0    0  0.30090791003E+02  0.32995507780E+02  0.12902726623E+03  0.13653642250E+03  0.00000000000E+00 0.  1.
         11    1    4    4    0    0  0.46127142153E+02  0.11872335405E+03  0.99026870119E+02  0.16133588890E+03  0.00000000000E+00 0. -1.
</event>
<event>
 8    1  0.3719512E-009  0.1289437E+03  0.7561462E-02  0.1229031E+00
         -1   -1    0    0    0  501 -0.00000000000E+00  0.00000000000E+00  0.19970054079E+02  0.19970054079E+02  0.00000000000E+00 0.  1.
          1   -1    0    0  501    0  0.00000000000E+00 -0.00000000000E+00 -0.91771047715E+03  0.91771047715E+03  0.00000000000E+00 0. -1.
         25    2    1    2    0    0  0.61689737950E+02 -0.47183291080E+02 -0.54137068894E+03  0.56103688380E+03  0.12509306703E+03 0.  0.
         23    2    1    2    0    0 -0.61689737950E+02  0.47183291080E+02 -0.35636973413E+03  0.37664364743E+03  0.93963626030E+02 0.  0.
          5    1    3    3  502    0  0.90285401245E+02 -0.32570843716E+01 -0.40273303206E+03  0.41276316429E+03  0.41800000000E+01 0.  1.
         -5    1    3    3    0  502 -0.28595663295E+02 -0.43926206708E+02 -0.13863765687E+03  0.14827371951E+03  0.41800000000E+01 0.  1.
        -11    1    4    4    0    0 -0.45896566559E+01  0.56780193181E+02 -0.11382944668E+03  0.12728785573E+03  0.00000000000E+00 0.  1.
         11    1    4    4    0    0 -0.57100081295E+02 -0.95969021013E+01 -0.24254028745E+03  0.24935579169E+03  0.00000000000E+00 0. -1.
</event>
<event>
 8    1  0.3719512E-009  0.1071475E+03  0.7561462E-02  0.1265945E+00
          1   -1    0    0  501    0  0.00000000000E+00  0.00000000000E+00  0.30058390183E+03  0.30058390183E+03  0.00000000000E+00 0. -1.
         -1   -1    0    0    0  501 -0.00000000000E+00 -0.00000000000E+00 -0.63326015080E+02  0.63326015080E+02  0.00000000000E+00 0.  1.
         25    2    1    2    0    0  0.60625751369E+02 -0.25578303621E+02  0.56872058997E+02  0.15235606904E+03  0.12509280288E+03 0.  0.
         23    2    1    2    0    0 -0.60625751369E+02  0.25578303621E+02  0.18038582775E+03  0.21155384787E+03  0.88804573923E+02 0.  0.
          5    1    3    3  502    0  0.79219565176E+01 -0.71018422513E+02  0.26809469615E+02  0.76436861476E+02  0.41800000000E+01 0.  1.
         -5    1    3    3    0  502  0.52703794851E+02  0.45440118892E+02  0.30062589382E+02  0.75919207563E+02  0.41800000000E+01 0.  1.
        -11    1    4    4    0    0 -0.22325025672E+02  0.26548420768E+02  0.88599946367E+01  0.35801186035E+02  0.00000000000E+00 0.  1.
         11    1    4    4    0    0 -0.38300725697E+02 -0.97011714738E+00  0.17152583312E+03  0.17575266183E+03  0.00000000000E+00 0. -1.
</event>
<event>
 8    1  0.3719512E-009  0.8815663E+02  0.7561462E-02  0.1307378E+00
          4   -1    0    0  501    0  0.00000000000E+00  0.00000000000E+00  0.63288977227E+02  0.63288977227E+02  0.00000000000E+00 0. -1.
         -4   -1    0    0    0  501 -0.00000000000E+00 -0.00000000000E+00 -0.22444182593E+03  0.22444182593E+03  0.00000000000E+00 0.  1.
         25    2    1    2    0    0 -0.93349919881E+01  0.49683856242E+02 -0.99657228423E+02  0.16772942638E+03  0.12508385048E+03 0.  0.
         23    2    1    2    0    0  0.93349919881E+01 -0.49683856242E+02 -0.61495620284E+02  0.12000137678E+03  0.89794161658E+02 0.  0.
          5    1    3    3  502    0  0.11209450487E+02  0.65480759529E+02 -0.19883236309E+01  0.66594350207E+02  0.41800000000E+01 0.  1.
         -5    1    3    3    0  502 -0.20544442475E+02 -0.15796903286E+02 -0.97668904792E+02  0.10113507618E+03  0.41800000000E+01 0.  1.
        -11    1    4    4    0    0  0.37490899968E+02 -0.36801974904E+02 -0.70346310024E+02  0.87798384217E+02  0.00000000000E+00 0.  1.
         11    1    4    4    0    0 -0.28155907980E+02 -0.12881881338E+02  0.88506897395E+01  0.32202992560E+02  0.00000000000E+00 0. -1.
</event>
<event>
 8    1  0.3719512E-009  0.9709605E+02  0.7561462E-02  0.1286524E+00
          2   -1    0    0  501    0  0.00000000000E+00  0.00000000000E+00  0.20956079826E+03  0.20956079826E+03  0.00000000000E+00 0. -1.
         -2   -1    0    0    0  501 -0.00000000000E+00 -0.00000000000E+00 -0.61745307432E+02  0.61745307432E+02  0.00000000000E+00 0.  1.
         25    2    1    2    0    0 -0.22906580552E+02  0.10910843439E+02  0.13514193502E+03  0.18587754696E+03  0.12507342614E+03 0.  0.
         23    2    1    2    0    0  0.22906580552E+02 -0.10910843439E+02  0.12673555813E+02  0.85428558738E+02  0.80583259390E+02 0.  0.
          5    1    3    3  502    0  0.39533401152E+02 -0.29529113063E+02  0.33245265448E+02  0.59645439051E+02  0.41800000000E+01 0.  1.
         -5    1    3    3    0  502 -0.62439981704E+02  0.40439956502E+02  0.10189666957E+03  0.12623210791E+03  0.41800000000E+01 0.  1.
        -11    1    4    4    0    0  0.37180754639E+01 -0.37327205728E+02 -0.17114644580E+02  0.41231728459E+02  0.00000000000E+00 0.  1.
         11    1    4    4    0    0  0.19188505088E+02  0.26416362289E+02  0.29788200393E+02  0.44196830279E+02  0.00000000000E+00 0. -1.
</event>
<event>
 8    1  0.3719512E-009  0.1495416E+03  0.7561462E-02  0.1201037E+00
          1   -1    0    0  501    0  0.00000000000E+00  0.00000000000E+00  0.11590667073E+04  0.11590667073E+04  0.00000000000E+00 0. -1.
         -1   -1    0    0    0  501 -0.00000000000E+00 -0.00000000000E+00 -0.26354757757E+02  0.26354757757E+02  0.00000000000E+00 0.  1.
         25    2    1    2    0    0 -0.10588958752E+03 -0.71052872163E+02  0.76982076085E+03  0.79027361407E+03  0.12508903178E+03 0.  0.
         23    2    1    2    0    0  0.10588958752E+03  0.71052872163E+02  0.36289118874E+03  0.39514785104E+03  0.90502452582E+02 0.  0.
          5    1    3    3  502    0 -0.81409635174E+02 -0.82837059318E+02  0.33504146700E+03  0.35462623156E+03  0.41800000000E+01 0.  1.
         -5    1    3    3    0  502 -0.24479952349E+02  0.11784187155E+02  0.43477929384E+03  0.43564738251E+03  0.41800000000E+01 0.  1.
        -11    1    4    4    0    0  0.59289295539E+02  0.87725727986E+02  0.22569970554E+03  0.24930178699E+03  0.00000000000E+00 0.  1.
         11    1    4    4    0    0  0.46600291984E+02 -0.16672855822E+02  0.13719148320E+03  0.14584606404E+03  0.00000000000E+00 0. -1.
</event>
<event>
 8    1  0.3719512E-009  0.1460856E+03  0.7561462E-02  0.1205367E+00
         -2   -1    0    0    0  501 -0.00000000000E+00  0.00000000000E+00  0.11353254161E+03  0.11353254161E+03  0.00000000000E+00 0.  1.
          2   -1    0    0  501    0  0.00000000000E+00 -0.00000000000E+00 -0.38779935436E+03  0.38779935436E+03  0.00000000000E+00 0. -1.
         25    2    1    2    0    0  0.13154750617E+03  0.35541206510E+02 -0.28228446869E+03  0.33749032917E+03  0.12508907737E+03 0.  0.
         23    2    1    2    0    0 -0.13154750617E+03 -0.35541206510E+02  0.80176559461E+01  0.16384156680E+03  0.90619272046E+02 0.  0.
          5    1    3    3  502    0 -0.10317123996E+00  0.59939921267E+01  0.11813736420E+02  0.13891556936E+02  0.41800000000E+01 0.  1.
         -5    1    3    3    0  502  0.13165067741E+03  0.29547214383E+02 -0.29409820511E+03  0.32359877223E+03  0.41800000000E+01 0.  1.
        -11    1    4    4    0    0 -0.10483635576E+03  0.71561447900E+00  0.35970274243E+02  0.11083787359E+03  0.00000000000E+00 0. -1.
         11    1    4    4    0    0 -0.26711150408E+02 -0.36256820989E+02 -0.27952618297E+02  0.53003693211E+02  0.00000000000E+00 0.  1.
</event>
<event>
 8    1  0.3719512E-009  0.1360547E+03  0.7561462E-02  0.1218739E+00
          2   -1    0    0  501    0  0.00000000000E+00  0.00000000000E+00  0.32684188248E+03  0.32684188248E+03  0.00000000000E+00 0. -1.
         -2   -1    0    0    0  501 -0.00000000000E+00 -0.00000000000E+00 -0.92265152284E+02  0.92265152284E+02  0.00000000000E+00 0.  1.
         25    2    1    2    0    0 -0.85277964908E+02 -0.78303236577E+02  0.20293702345E+03  0.26501300705E+03  0.12507889615E+03 0.  0.
         23    2    1    2    0    0  0.85277964908E+02  0.78303236577E+02  0.31639706748E+02  0.15409402771E+03  0.96644555857E+02 0.  0.
          5    1    3    3  502    0 -0.50843402322E+02  0.17851881764E+02  0.24436961720E+02  0.59315923160E+02  0.41800000000E+01 0. -1.
         -5    1    3    3    0  502 -0.34434562586E+02 -0.96155118341E+02  0.17850006173E+03  0.20569708389E+03  0.41800000000E+01 0. -1.
        -11    1    4    4    0    0  0.45689821543E+02  0.44595755976E+02  0.65956005484E+02  0.91796164970E+02  0.00000000000E+00 0. -1.
         11    1    4    4    0    0  0.39588143365E+02  0.33707480601E+02 -0.34316298736E+02  0.62297862744E+02  0.00000000000E+00 0.  1.
</event>
<event>
 8    1  0.3719512E-009  0.1516056E+03  0.7561462E-02  0.1198514E+00
          1   -1    0    0  501    0  0.00000000000E+00  0.00000000000E+00  0.57831402072E+03  0.57831402072E+03  0.00000000000E+00 0. -1.
         -1   -1    0    0    0  501 -0.00000000000E+00 -0.00000000000E+00 -0.45195840710E+02  0.45195840710E+02  0.00000000000E+00 0.  1.
         25    2    1    2    0    0  0.82572096465E+02 -0.89363215201E+02  0.26778071308E+03  0.31962141886E+03  0.12508959091E+03 0.  0.
         23    2    1    2    0    0 -0.82572096465E+02  0.89363215201E+02  0.26533746693E+03  0.30388844257E+03  0.84500170542E+02 0.  0.
          5    1    3    3  502    0  0.55299148142E+02 -0.12064685479E+03  0.20244661932E+03  0.24210692975E+03  0.41800000000E+01 0.  1.
         -5    1    3    3    0  502  0.27272948323E+02  0.31283639591E+02  0.65334093753E+02  0.77514489115E+02  0.41800000000E+01 0.  1.
        -11    1    4    4    0    0 -0.46473748508E+02  0.78135979954E+02  0.10378756295E+03  0.13797426893E+03  0.00000000000E+00 0.  1.
         11    1    4    4    0    0 -0.36098347957E+02  0.11227235247E+02  0.16154990399E+03  0.16591417364E+03  0.00000000000E+00 0. -1.
</event>
<event>
 8    1  0.3719512E-009  0.9596540E+02  0.7561462E-02  0.1289016E+00
          1   -1    0    0  501    0  0.00000000000E+00  0.00000000000E+00  0.40533910018E+03  0.40533910018E+03  0.00000000000E+00 0. -1.
         -1   -1    0    0    0  501 -0.00000000000E+00 -0.00000000000E+00 -0.41908878391E+02  0.41908878391E+02  0.00000000000E+00 0.  1.
         25    2    1    2    0    0 -0.36752256291E+02  0.73614225340E+00  0.93881597180E+02  0.16066631775E+03  0.12509452875E+03 0.  0.
         23    2    1    2    0    0  0.36752256291E+02 -0.73614225340E+00  0.26954862461E+03  0.28658166082E+03  0.90118350193E+02 0.  0.
          5    1    3    3  502    0 -0.28911878224E+02  0.50741135936E+02  0.55982053270E+01  0.58816425269E+02  0.41800000000E+01 0.  1.
         -5    1    3    3    0  502 -0.78403780671E+01 -0.50004993683E+02  0.88283391853E+02  0.10184989248E+03  0.41800000000E+01 0.  1.
        -11    1    4    4    0    0  0.18217127304E+02  0.36614710674E+02  0.58033131728E+02  0.70995388182E+02  0.00000000000E+00 0.  1.
         11    1    4    4    0    0  0.18535128987E+02 -0.37350852928E+02  0.21151549288E+03  0.21558627264E+03  0.00000000000E+00 0. -1.
</event>
<event>
 8    1  0.3719512E-009  0.1169223E+03  0.7561462E-02  0.1248262E+00
         -2   -1    0    0    0  501 -0.00000000000E+00  0.00000000000E+00  0.47185702423E+02  0.47185702423E+02  0.00000000000E+00 0.  1.
          2   -1    0    0  501    0  0.00000000000E+00 -0.00000000000E+00 -0.46815369213E+03  0.46815369213E+03  0.00000000000E+00 0. -1.
         25    2    1    2    0    0 -0.77277609577E+02 -0.22282033361E+02 -0.12515672213E+03  0.19437132011E+03  0.12509071522E+03 0.  0.
         23    2    1    2    0    0  0.77277609577E+02  0.22282033361E+02 -0.29581126758E+03  0.32096807445E+03  0.95120349204E+02 0.  0.
          5    1    3    3  502    0 -0.76375075626E+02  0.31578840517E+02 -0.11111920931E+03  0.13854719926E+03  0.41800000000E+01 0.  1.
         -5    1    3    3    0  502 -0.90253395078E+00 -0.53860873878E+02 -0.14037512818E+02  0.55824120849E+02  0.41800000000E+01 0.  1.
        -11    1    4    4    0    0  0.13697344705E+01  0.21101020609E+02 -0.68905559171E+01  0.22239806746E+02  0.00000000000E+00 0.  1.
         11    1    4    4    0    0  0.75907875107E+02  0.11810127521E+01 -0.28892071166E+03  0.29872826770E+03  0.00000000000E+00 0. -1.
</event>
<event>
 8    1  0.3719512E-009  0.1289479E+03  0.7561462E-02  0.1229025E+00
          1   -1    0    0  501    0  0.00000000000E+00  0.00000000000E+00  0.84100931001E+03  0.84100931001E+03  0.00000000000E+00 0. -1.
         -1   -1    0    0    0  501 -0.00000000000E+00 -0.00000000000E+00 -0.32462259080E+02  0.32462259080E+02  0.00000000000E+00 0.  1.
         25    2    1    2    0    0  0.10337824328E+03  0.55079765554E+02  0.53724982030E+03  0.56391944475E+03  0.12508768527E+03 0.  0.
         23    2    1    2    0    0 -0.10337824328E+03 -0.55079765554E+02  0.27129723063E+03  0.30955212433E+03  0.92192670939E+02 0.  0.
          5    1    3    3  502    0  0.78164782334E+02  0.45635386032E+02  0.52711974113E+03  0.53485046092E+03  0.41800000000E+01 0.  1.
         -5    1    3    3    0  502  0.25213460943E+02  0.94443795223E+01  0.10130079166E+02  0.29068983835E+02  0.41800000000E+01 0.  1.
        -11    1    4    4    0    0 -0.87790227887E+02 -0.53809393454E+01  0.11483786859E+03  0.14465066430E+03  0.00000000000E+00 0.  1.
         11    1    4    4    0    0 -0.15588015390E+02 -0.49698826209E+02  0.15645936204E+03  0.16490146003E+03  0.00000000000E+00 0. -1.
</event>
<event>
 8    1  0.3719512E-009  0.1271229E+03  0.7561462E-02  0.1231788E+00
          4   -1    0    0  501    0  0.00000000000E+00  0.00000000000E+00  0.51743379768E+03  0.51743379768E+03  0.00000000000E+00 0.  1.
         -4   -1    0    0    0  501 -0.00000000000E+00 -0.00000000000E+00 -0.42155693043E+02  0.42155693043E+02  0.00000000000E+00 0. -1.
         25    2    1    2    0    0  0.40739579093E+02 -0.90903756106E+02  0.26976175073E+03  0.31359517305E+03  0.12508926502E+03 0.  0.
         23    2    1    2    0    0 -0.40739579093E+02  0.90903756106E+02  0.20551635390E+03  0.24599431767E+03  0.91394892773E+02 0.  0.
          5    1    3    3  502    0  0.81782471014E+02 -0.50093095966E+02  0.20665765286E+03  0.22786519855E+03  0.41800000000E+01 0. -1.
         -5    1    3    3    0  502 -0.41042891922E+02 -0.40810660139E+02  0.63104097877E+02  0.85729974496E+02  0.41800000000E+01 0. -1.
        -11    1    4    4    0    0 -0.31890658352E+02  0.58477572558E+02  0.41299162668E+02  0.78372580789E+02  0.00000000000E+00 0. -1.
         11    1    4    4    0    0 -0.88489207410E+01  0.32426183548E+02  0.16421719123E+03  0.16762173688E+03  0.00000000000E+00 0.  1.
</event>
<event>
 8    1  0.3719512E-009  0.1465635E+03  0.7561462E-02  0.1204761E+00
         -1   -1    0    0    0  501 -0.00000000000E+00  0.00000000000E+00  0.16274344021E+03  0.16274344021E+03  0.00000000000E+00 0.  1.
          1   -1    0    0  501    0  0.00000000000E+00 -0.00000000000E+00 -0.17475143696E+03  0.17475143696E+03  0.00000000000E+00 0. -1.
         25    2    1    2    0    0  0.27960884126E+02  0.12216066643E+03  0.18874170163E+02  0.17807270720E+03  0.12509442548E+03 0.  0.
         23    2    1    2    0    0 -0.27960884126E+02 -0.12216066643E+03 -0.30882166919E+02  0.15942216997E+03  0.93577137054E+02 0.  0.
          5    1    3    3  502    0  0.41829915368E+02  0.60175813504E+02  0.66125216587E+02  0.98797201475E+02  0.41800000000E+01 0.  1.
         -5    1    3    3    0  502 -0.13869031242E+02  0.61984852928E+02 -0.47251046424E+02  0.79275505727E+02  0.41800000000E+01 0.  1.
        -11    1    4    4    0    0  0.30786879546E+02 -0.73835119081E+02 -0.10609451619E+02  0.80697070737E+02  0.00000000000E+00 0.  1.
         11    1    4    4    0    0 -0.58747763671E+02 -0.48325547351E+02 -0.20272715300E+02  0.78725099230E+02  0.00000000000E+00 0. -1.
</event>
<event>
 8    1  0.3719512E-009  0.1100938E+03  0.7561462E-02  0.1260396E+00
          3   -1    0    0  501    0  0.00000000000E+00  0.00000000000E+00  0.21943991662E+03  0.21943991662E+03  0.00000000000E+00 0. -1.
         -3   -1    0    0    0  501 -0.00000000000E+00 -0.00000000000E+00 -0.60339045133E+02  0.60339045133E+02  0.00000000000E+00 0.  1.
         25    2    1    2    0    0 -0.53380912024E+01 -0.27374395953E+02  0.12182369198E+03  0.17682325712E+03  0.12509036558E+03 0.  0.
         23    2    1    2    0    0  0.53380912024E+01  0.27374395953E+02  0.37277179504E+02  0.10295570463E+03  0.91828297559E+02 0.  0.
          5    1    3    3  502    0  0.52725712554E+02  0.12751596807E+02  0.34327625122E+02  0.64330880858E+02  0.41800000000E+01 0. -1.
         -5    1    3    3    0  502 -0.58063803757E+02 -0.40125992759E+02  0.87496066857E+02  0.11249237626E+03  0.41800000000E+01 0. -1.
        -11    1    4    4    0    0  0.46528734121E+02  0.17390690534E+01  0.25265743383E+02  0.52974571719E+02  0.00000000000E+00 0.  1.
         11    1    4    4    0    0 -0.41190642919E+02  0.25635326899E+02  0.12011436121E+02  0.49981132910E+02  0.00000000000E+00 0. -1.
</event>
<event>
 8    1  0.3719512E-009  0.1052794E+03  0.7561462E-02  0.1269570E+00
          3   -1    0    0  501    0  0.00000000000E+00  0.00000000000E+00  0.37636624767E+03  0.37636624767E+03  0.00000000000E+00 0. -1.
         -3   -1    0    0    0  501 -0.00000000000E+00 -0.00000000000E+00 -0.43920747648E+02  0.43920747648E+02  0.00000000000E+00 0.  1.
         25    2    1    2    0    0 -0.21742217991E+02 -0.64864081052E+02  0.17518858840E+03  0.22588157913E+03  0.12510544843E+03 0.  0.
         23    2    1    2    0    0  0.21742217991E+02  0.64864081052E+02  0.15725691162E+03  0.19440541619E+03  0.91562309597E+02 0.  0.
          5    1    3    3  502    0  0.36401571327E+02 -0.72056342225E+02  0.78060150863E+02  0.11237459856E+03  0.41800000000E+01 0. -1.
         -5    1    3    3    0  502 -0.58143789318E+02  0.71922611727E+01  0.97128437541E+02  0.11350698056E+03  0.41800000000E+01 0. -1.
        -11    1    4    4    0    0  0.49710077458E+00  0.31032634070E+02  0.15077221955E+03  0.15393353655E+03  0.00000000000E+00 0. -1.
         11    1    4    4    0    0  0.21245117217E+02  0.33831446982E+02  0.64846920672E+01  0.40471879641E+02  0.00000000000E+00 0.  1.
</event>
<event>
 8    1  0.3719512E-009  0.1011018E+03  0.7561462E-02  0.1277996E+00
         -3   -1    0    0    0  501 -0.00000000000E+00  0.00000000000E+00  0.38157945233E+02  0.38157945233E+02  0.00000000000E+00 0.  1.
          3   -1    0    0  501    0  0.00000000000E+00 -0.00000000000E+00 -0.32241396626E+03  0.32241396626E+03  0.00000000000E+00 0. -1.
         25    2    1    2    0    0 -0.95512826393E+01  0.52889803460E+01 -0.19811681819E+03  0.23455780195E+03  0.12509152047E+03 0.  0.
         23    2    1    2    0    0  0.95512826393E+01 -0.52889803460E+01 -0.86139202844E+02  0.12601410955E+03  0.91325753353E+02 0.  0.
          5    1    3    3  502    0 -0.49927800462E+00  0.57975322007E+02 -0.15567200634E+03  0.16617049436E+03  0.41800000000E+01 0.  1.
         -5    1    3    3    0  502 -0.90520046347E+01 -0.52686341661E+02 -0.42444811848E+02  0.68387307582E+02  0.41800000000E+01 0.  1.
        -11    1    4    4    0    0 -0.32785519696E+02  0.22543458596E+02 -0.26725996229E+02  0.47930957654E+02  0.00000000000E+00 0.  1.
         11    1    4    4    0    0  0.42336802335E+02 -0.27832438942E+02 -0.59413206615E+02  0.78083151894E+02  0.00000000000E+00 0. -1.
</event>
<event>
 8    1  0.3719512E-009  0.1162240E+03  0.7561462E-02  0.1249459E+00
          2   -1    0    0  501    0  0.00000000000E+00  0.00000000000E+00  0.60123075362E+03  0.60123075362E+03  0.00000000000E+00 0. -1.
         -2   -1    0    0    0  501 -0.00000000000E+00 -0.00000000000E+00 -0.30765392303E+02  0.30765392303E+02  0.00000000000E+00 0.  1.
         25    2    1    2    0    0 -0.20023200155E+02  0.79705580007E+02  0.30087877590E+03  0.33604959600E+03  0.12508950856E+03 0.  0.
         23    2    1    2    0    0  0.20023200155E+02 -0.79705580007E+02  0.26958658542E+03  0.29594654993E+03  0.90296873418E+02 0.  0.
          5    1    3    3  502    0 -0.32650156479E+02  0.91732909733E+02  0.30272116362E+03  0.31802285256E+03  0.41800000000E+01 0.  1.
         -5    1    3    3    0  502  0.12626956325E+02 -0.12027329726E+02 -0.18423877215E+01  0.18026743435E+02  0.41800000000E+01 0.  1.
        -11    1    4    4    0    0 -0.18155164913E+02  0.91608613562E+01  0.86771218058E+02  0.89122251302E+02  0.00000000000E+00 0. -1.
         11    1    4    4    0    0  0.38178365068E+02 -0.88866441363E+02  0.18281536736E+03  0.20682429863E+03  0.00000000000E+00 0.  1.
</event>
<event>
 8    1  0.3719512E-009  0.9116501E+02  0.7561462E-02  0.1300055E+00
         -2   -1    0    0    0  501 -0.00000000000E+00  0.00000000000E+00  0.47140408368E+02  0.47140408368E+02  0.00000000000E+00 0.  1.
          2   -1    0    0  501    0  0.00000000000E+00 -0.00000000000E+00 -0.30053757380E+03  0.30053757380E+03  0.00000000000E+00 0. -1.
         25    2    1    2    0    0 -0.29396124552E+02  0.19934753341E+02 -0.19274258664E+03  0.23250600018E+03  0.12509120227E+03 0.  0.
         23    2    1    2    0    0  0.29396124552E+02 -0.19934753341E+02 -0.60654578792E+02  0.11517198199E+03  0.91236401604E+02 0.  0.
          5    1    3    3  502    0 -0.40253414406E+02 -0.34411804836E+02 -0.31056635588E+02  0.61534516310E+02  0.41800000000E+01 0. -1.
         -5    1    3    3    0  502  0.10857289854E+02  0.54346558177E+02 -0.16168595105E+03  0.17097148387E+03  0.41800000000E+01 0. -1.
        -11    1    4    4    0    0  0.46173096594E+02  0.17578229261E+01  0.25476500325E+01  0.46276725373E+02  0.00000000000E+00 0.  1.
         11    1    4    4    0    0 -0.16776972042E+02 -0.21692576267E+02 -0.63202228825E+02  0.68895256618E+02  0.00000000000E+00 0. -1.
</event>
<event>
 8    1  0.3719512E-009  0.1116461E+03  0.7561462E-02  0.1257552E+00
          2   -1    0    0  501    0  0.00000000000E+00  0.00000000000E+00  0.28561213349E+03  0.28561213349E+03  0.00000000000E+00 0. -1.
         -2   -1    0    0    0  501 -0.00000000000E+00 -0.00000000000E+00 -0.51758616383E+02  0.51758616383E+02  0.00000000000E+00 0.  1.
         25    2    1    2    0    0  0.32013834335E+02 -0.14186335783E+01  0.68735206942E+02  0.14628335836E+03  0.12508954453E+03 0.  0.
         23    2    1    2    0    0 -0.32013834335E+02  0.14186335783E+01  0.16511831017E+03  0.19108739151E+03  0.90683166753E+02 0.  0.
          5    1    3    3  502    0 -0.15157496775E+02 -0.55229236780E+02  0.31976352560E+02  0.65726538223E+02  0.41800000000E+01 0.  1.
         -5    1    3    3    0  502  0.47171331110E+02  0.53810603202E+02  0.36758854382E+02  0.80556820140E+02  0.41800000000E+01 0.  1.
        -11    1    4    4    0    0 -0.20906693309E+02  0.44783120955E+02  0.10579458102E+03  0.11676947855E+03  0.00000000000E+00 0.  1.
         11    1    4    4    0    0 -0.11107141027E+02 -0.43364487377E+02  0.59323729151E+02  0.74317912966E+02  0.00000000000E+00 0. -1.
</event>
<event>
 8    1  0.3719512E-009  0.6938150E+02  0.7561462E-02  0.1362209E+00
         -2   -1    0    0    0  501 -0.00000000000E+00  0.00000000000E+00  0.37248102788E+02  0.37248102788E+02  0.00000000000E+00 0.  1.
          2   -1    0    0  501    0  0.00000000000E+00 -0.00000000000E+00 -0.35057351693E+03  0.35057351693E+03  0.00000000000E+00 0. -1.
         25    2    1    2    0    0  0.17425260041E+02  0.26143123524E+02 -0.20944496690E+03  0.24597128562E+03  0.12509027379E+03 0.  0.
         23    2    1    2    0    0 -0.17425260041E+02 -0.26143123524E+02 -0.10388044724E+03  0.14185033409E+03  0.91341487660E+02 0.  0.
          5    1    3    3  502    0  0.19482885941E+02 -0.10767816307E+02 -0.20748320010E+03  0.20871578626E+03  0.41800000000E+01 0. -1.
         -5    1    3    3    0  502 -0.20576258997E+01  0.36910939831E+02 -0.19617668018E+01  0.37255499360E+02  0.41800000000E+01 0. -1.
        -11    1    4    4    0    0 -0.54027303854E+01  0.25407547188E+02 -0.79378622202E+02  0.83520647821E+02  0.00000000000E+00 0. -1.
         11    1    4    4    0    0 -0.12022529656E+02 -0.51550670712E+02 -0.24501825037E+02  0.58329686270E+02  0.00000000000E+00 0.  1.
</event>
<event>
 8    1  0.3719512E-009  0.1174979E+03  0.7561462E-02  0.1247283E+00
          1   -1    0    0  501    0  0.00000000000E+00  0.00000000000E+00  0.41289898979E+03  0.41289898979E+03  0.00000000000E+00 0. -1.
         -1   -1    0    0    0  501 -0.00000000000E+00 -0.00000000000E+00 -0.84684685917E+02  0.84684685917E+02  0.00000000000E+00 0.  1.
         25    2    1    2    0    0  0.35743848366E+02  0.10437541891E+03  0.31150781407E+03  0.35335002992E+03  0.12508906687E+03 0.  0.
         23    2    1    2    0    0 -0.35743848366E+02 -0.10437541891E+03  0.16706489801E+02  0.14423364578E+03  0.91391394595E+02 0.  0.
          5    1    3    3  502    0  0.20142591604E+02  0.22410060139E+02 -0.42545486044E+00  0.30423481126E+02  0.41800000000E+01 0. -1.
         -5    1    3    3    0  502  0.15601256761E+02  0.81965358771E+02  0.31193326893E+03  0.32292654879E+03  0.41800000000E+01 0. -1.
        -11    1    4    4    0    0 -0.48405156974E+02 -0.86601575111E+02 -0.20304865650E+02  0.10126786066E+03  0.00000000000E+00 0.  1.
         11    1    4    4    0    0  0.12661308608E+02 -0.17773843799E+02  0.37011355451E+02  0.42965785125E+02  0.00000000000E+00 0. -1.
</event>
<event>
 8    1  0.3719512E-009  0.1049312E+03  0.7561462E-02  0.1270255E+00
          2   -1    0    0  501    0  0.00000000000E+00  0.00000000000E+00  0.15241869303E+03  0.15241869303E+03  0.00000000000E+00 0. -1.
         -2   -1    0    0    0  501 -0.00000000000E+00 -0.00000000000E+00 -0.88918420398E+02  0.88918420398E+02  0.00000000000E+00 0.  1.
         25    2    1    2    0    0 -0.12598987073E+02  0.30046437260E+02  0.13014953801E+02  0.12991631552E+03  0.12508931669E+03 0.  0.
         23    2    1    2    0    0  0.12598987073E+02 -0.30046437260E+02  0.50485318835E+02  0.11142079791E+03  0.93831252370E+02 0.  0.
          5    1    3    3  502    0 -0.26813176363E+02 -0.38386416218E+02  0.32603520943E+02  0.57209486579E+02  0.41800000000E+01 0.  1.
         -5    1    3    3    0  502  0.14214189290E+02  0.68432853478E+02 -0.19588567143E+02  0.72706828944E+02  0.41800000000E+01 0.  1.
        -11    1    4    4    0    0  0.48790959398E+02 -0.28723570186E+02  0.10699657725E+02  0.57620169026E+02  0.00000000000E+00 0.  1.
         11    1    4    4    0    0 -0.36191972326E+02 -0.13228670743E+01  0.39785661110E+02  0.53800628882E+02  0.00000000000E+00 0. -1.
</event>
<event>
 8    1  0.3719512E-009  0.1499864E+03  0.7561462E-02  0.1200490E+00
          2   -1    0    0  501    0  0.00000000000E+00  0.00000000000E+00  0.21842447934E+03  0.21842447934E+03  0.00000000000E+00 0. -1.
         -2   -1    0    0    0  501 -0.00000000000E+00 -0.00000000000E+00 -0.12634553167E+03  0.12634553167E+03  0.00000000000E+00 0.  1.
         25    2    1    2    0    0  0.96164691761E+01  0.11363847130E+03  0.36230189220E+00  0.16927521384E+03  0.12509111926E+03 0.  0.
         23    2    1    2    0    0 -0.96164691761E+01 -0.11363847130E+03  0.91716645772E+02  0.17549479717E+03  0.96851959620E+02 0.  0.
          5    1    3    3  502    0 -0.21222341322E+02 -0.17936449245E+02 -0.17182238404E+02  0.32936388680E+02  0.41800000000E+01 0. -1.
         -5    1    3    3    0  502  0.30838810498E+02  0.13157492055E+03  0.17544540296E+02  0.13633882516E+03  0.41800000000E+01 0. -1.
        -11    1    4    4    0    0  0.29902367474E+02 -0.77686624324E+02  0.19209307979E+02  0.85430443593E+02  0.00000000000E+00 0.  1.
         11    1    4    4    0    0 -0.39518836650E+02 -0.35951846980E+02  0.72507337793E+02  0.90064353577E+02  0.00000000000E+00 0. -1.
</event>
<event>
 8    1  0.3719512E-009  0.1480252E+03  0.7561462E-02  0.1202921E+00
         -2   -1    0    0    0  501 -0.00000000000E+00  0.00000000000E+00  0.13174520901E+03  0.13174520901E+03  0.00000000000E+00 0. -1.
          2   -1    0    0  501    0  0.00000000000E+00 -0.00000000000E+00 -0.26768505696E+03  0.26768505696E+03  0.00000000000E+00 0.  1.
         25    2    1    2    0    0 -0.98204631531E+01 -0.10674665276E+03 -0.18668615849E+03  0.24897941965E+03  0.12509092798E+03 0.  0.
         23    2    1    2    0    0  0.98204631531E+01  0.10674665276E+03  0.50746310546E+02  0.15045084632E+03  0.92568783905E+02 0.  0.
          5    1    3    3  502    0 -0.15638179457E-01  0.23451188800E+02 -0.36367109617E+01  0.24096816539E+02  0.41800000000E+01 0.  1.
         -5    1    3    3    0  502 -0.98048249737E+01 -0.13019784156E+03 -0.18304944753E+03  0.22488260311E+03  0.41800000000E+01 0.  1.
        -11    1    4    4    0    0  0.44797919126E+02  0.21986131311E+02  0.19554468082E+02  0.53596835261E+02  0.00000000000E+00 0. -1.
         11    1    4    4    0    0 -0.34977455973E+02  0.84760521448E+02  0.31191842464E+02  0.96854011062E+02  0.00000000000E+00 0.  1.
</event>
<event>
 8    1  0.3719512E-009  0.1374810E+03  0.7561462E-02  0.1216759E+00
         -1   -1    0    0    0  501 -0.00000000000E+00  0.00000000000E+00  0.40367946409E+03  0.40367946409E+03  0.00000000000E+00 0.  1.
          1   -1    0    0  501    0  0.00000000000E+00 -0.00000000000E+00 -0.59417115018E+02  0.59417115018E+02  0.00000000000E+00 0. -1.
         25    2    1    2    0    0  0.10117084979E+03  0.15355001032E+02  0.12641384156E+03  0.20518098869E+03  0.12508981525E+03 0.  0.
         23    2    1    2    0    0 -0.10117084979E+03 -0.15355001032E+02  0.21784850752E+03  0.25791559042E+03  0.92688524896E+02 0.  0.
          5    1    3    3  502    0  0.71155320270E+02 -0.35057210967E+02  0.12279858324E+03  0.14624996441E+03  0.41800000000E+01 0. -1.
         -5    1    3    3    0  502  0.30015529521E+02  0.50412211999E+02  0.36152583205E+01  0.58931024289E+02  0.41800000000E+01 0. -1.
        -11    1    4    4    0    0 -0.63603592876E+02  0.35996373750E+02  0.98313319200E+02  0.12250169257E+03  0.00000000000E+00 0. -1.
         11    1    4    4    0    0 -0.37567256915E+02 -0.51351374782E+02  0.11953518832E+03  0.13541389785E+03  0.00000000000E+00 0.  1.
</event>
<event>
 8    1  0.3719512E-009  0.6978645E+02  0.7561462E-02  0.1360821E+00
          1   -1    0    0  501    0  0.00000000000E+00  0.00000000000E+00  0.41047577520E+02  0.41047577520E+02  0.00000000000E+00 0. -1.
         -1   -1    0    0    0  501 -0.00000000000E+00 -0.00000000000E+00 -0.32225142058E+03  0.32225142058E+03  0.00000000000E+00 0.  1.
         25    2    1    2    0    0  0.79004374906E+01 -0.30954143822E+02 -0.10511614044E+03  0.16648564003E+03  0.12508992534E+03 0.  0.
         23    2    1    2    0    0 -0.79004374906E+01  0.30954143822E+02 -0.17608770261E+03  0.19681335807E+03  0.81902643239E+02 0.  0.
          5    1    3    3  502    0 -0.25181494015E+02 -0.26051987452E+02 -0.12302633299E+03  0.12831899587E+03  0.41800000000E+01 0. -1.
         -5    1    3    3    0  502  0.33081931506E+02 -0.49021563698E+01  0.17910192551E+02  0.38166644160E+02  0.41800000000E+01 0. -1.
        -11    1    4    4    0    0  0.15112635810E+02  0.41438023258E+02 -0.16193345735E+03  0.16783309013E+03  0.00000000000E+00 0.  1.
         11    1    4    4    0    0 -0.23013073301E+02 -0.10483879436E+02 -0.14154245262E+02  0.28980267937E+02  0.00000000000E+00 0. -1.
</event>
<event>
 8    1  0.3719512E-009  0.1439001E+03  0.7561462E-02  0.1208175E+00
         -1   -1    0    0    0  501 -0.00000000000E+00  0.00000000000E+00  0.26935611581E+02  0.26935611581E+02  0.00000000000E+00 0.  1.
          1   -1    0    0  501    0  0.00000000000E+00 -0.00000000000E+00 -0.12527801766E+04  0.12527801766E+04  0.00000000000E+00 0. -1.
         25    2    1    2    0    0  0.98126653217E+01  0.10613370306E+03 -0.10070094728E+04  0.10203312672E+04  0.12508862980E+03 0.  0.
         23    2    1    2    0    0 -0.98126653217E+01 -0.10613370306E+03 -0.21883509224E+03  0.25938452095E+03  0.89615181669E+02 0.  0.
          5    1    3    3  502    0 -0.43378883096E+02 -0.94967339993E+00 -0.32457049826E+03  0.32748451890E+03  0.41800000000E+01 0. -1.
         -5    1    3    3    0  502  0.53191548417E+02  0.10708337646E+03 -0.68243897453E+03  0.69284674834E+03  0.41800000000E+01 0. -1.
        -11    1    4    4    0    0 -0.31796020695E+02 -0.94484883514E+02 -0.21089305835E+03  0.23326864814E+03  0.00000000000E+00 0. -1.
         11    1    4    4    0    0  0.21983355373E+02 -0.11648819544E+02 -0.79420338917E+01  0.26115872809E+02  0.00000000000E+00 0.  1.
</event>
<event>
 8    1  0.3719512E-009  0.1364130E+03  0.7561462E-02  0.1218239E+00
         -2   -1    0    0    0  501 -0.00000000000E+00  0.00000000000E+00  0.12970718623E+02  0.12970718623E+02  0.00000000000E+00 0.  1.
          2   -1    0    0  501    0  0.00000000000E+00 -0.00000000000E+00 -0.27605033012E+04  0.27605033012E+04  0.00000000000E+00 0. -1.
         25    2    1    2    0    0  0.53063506638E+02 -0.95199489275E+02 -0.22237358548E+04  0.22299170300E+04  0.12510048064E+03 0.  0.
         23    2    1    2    0    0 -0.53063506638E+02  0.95199489275E+02 -0.52379672778E+03  0.54355698983E+03  0.95981824650E+02 0.  0.
          5    1    3    3  502    0 -0.12816921705E+02 -0.39128572570E+02 -0.19549130772E+03  0.19982402875E+03  0.41800000000E+01 0.  1.
         -5    1    3    3    0  502  0.65880428344E+02 -0.56070916705E+02 -0.20282445471E+04  0.20300930012E+04  0.41800000000E+01 0.  1.
        -11    1    4    4    0    0  0.26727088935E+02  0.38810619417E+02 -0.18982614310E+03  0.19558774518E+03  0.00000000000E+00 0.  1.
         11    1    4    4    0    0 -0.79790595574E+02  0.56388869858E+02 -0.33397058468E+03  0.34796924465E+03  0.00000000000E+00 0. -1.
</event>
<event>
 8    1  0.3719512E-009  0.2083526E+03  0.7561462E-02  0.1142877E+00
         -2   -1    0    0    0  501 -0.00000000000E+00  0.00000000000E+00  0.21509560670E+02  0.21509560670E+02  0.00000000000E+00 0.  1.
          2   -1    0    0  501    0  0.00000000000E+00 -0.00000000000E+00 -0.24266972001E+04  0.24266972001E+04  0.00000000000E+00 0. -1.
         25    2    1    2    0    0 -0.18549623471E+03 -0.31966625701E+02 -0.16223703742E+04  0.16380366343E+04  0.12509063004E+03 0.  0.
         23    2    1    2    0    0  0.18549623471E+03  0.31966625701E+02 -0.78281726518E+03  0.81017012650E+03  0.90233280746E+02 0.  0.
          5    1    3    3  502    0 -0.20268099033E+03 -0.22787300718E+02 -0.15300938979E+04  0.15436332640E+04  0.41800000000E+01 0. -1.
         -5    1    3    3    0  502  0.17184755614E+02 -0.91793249829E+01 -0.92276476373E+02  0.94403370303E+02  0.41800000000E+01 0. -1.
        -11    1    4    4    0    0  0.68238528663E+02 -0.84295433174E+01 -0.14589000595E+03  0.16128064927E+03  0.00000000000E+00 0.  1.
         11    1    4    4    0    0  0.11725770605E+03  0.40396169018E+02 -0.63692725923E+03  0.64888947722E+03  0.00000000000E+00 0. -1.
</event>
<event>
 8    1  0.3719512E-009  0.8946747E+02  0.7561462E-02  0.1304146E+00
         -4   -1    0    0    0  501 -0.00000000000E+00  0.00000000000E+00  0.58803632505E+02  0.58803632505E+02  0.00000000000E+00 0.  1.
          4   -1    0    0  501    0  0.00000000000E+00 -0.00000000000E+00 -0.32534326448E+03  0.32534326448E+03  0.00000000000E+00 0. -1.
         25    2    1    2    0    0 -0.61471852437E+02 -0.51072599756E+02 -0.18793530715E+03  0.23948766576E+03  0.12508982089E+03 0.  0.
         23    2    1    2    0    0  0.61471852437E+02  0.51072599756E+02 -0.78604324824E+02  0.14465923123E+03  0.91435519410E+02 0.  0.
          5    1    3    3  502    0 -0.34867131252E+02 -0.13476723950E+02 -0.18951755027E+03  0.19321416405E+03  0.41800000000E+01 0. -1.
         -5    1    3    3    0  502 -0.26604721185E+02 -0.37595875806E+02  0.15822431206E+01  0.46273501707E+02  0.41800000000E+01 0. -1.
        -11    1    4    4    0    0 -0.29247678707E+01  0.25690109158E+02  0.13718410897E+02  0.29269963669E+02  0.00000000000E+00 0.  1.
         11    1    4    4    0    0  0.64396620308E+02  0.25382490598E+02 -0.92322735722E+02  0.11538926756E+03  0.00000000000E+00 0. -1.
</event>
<event>
 8    1  0.3719512E-009  0.1020979E+03  0.7561462E-02  0.1275945E+00
          1   -1    0    0  501    0  0.00000000000E+00  0.00000000000E+00  0.35124080482E+03  0.35124080482E+03  0.00000000000E+00 0. -1.
         -1   -1    0    0    0  501 -0.00000000000E+00 -0.00000000000E+00 -0.38668973193E+02  0.38668973193E+02  0.00000000000E+00 0.  1.
         25    2    1    2    0    0 -0.35687716969E+02  0.21135433332E+02  0.20027548136E+03  0.23974749634E+03  0.12509306089E+03 0.  0.
         23    2    1    2    0    0  0.35687716969E+02 -0.21135433332E+02  0.11229635026E+03  0.15016228167E+03  0.90652748825E+02 0.  0.
          5    1    3    3  502    0  0.21094237643E+01 -0.48620950005E+02  0.10417833705E+03  0.11506104797E+03  0.41800000000E+01 0. -1.
         -5    1    3    3    0  502 -0.37797140734E+02  0.69756383337E+02  0.96097144313E+02  0.12468644838E+03  0.41800000000E+01 0. -1.
        -11    1    4    4    0    0 -0.17695866132E+02  0.18248085917E+01 -0.56598744525E+01  0.18668363168E+02  0.00000000000E+00 0.  1.
         11    1    4    4    0    0  0.53383583102E+02 -0.22960241924E+02  0.11795622471E+03  0.13149391850E+03  0.00000000000E+00 0. -1.
</event>
<event>
 8    1  0.3719512E-009  0.1705127E+03  0.7561462E-02  0.1177314E+00
         -1   -1    0    0    0  501 -0.00000000000E+00  0.00000000000E+00  0.36123688571E+03  0.36123688571E+03  0.00000000000E+00 0.  1.
          1   -1    0    0  501    0  0.00000000000E+00 -0.00000000000E+00 -0.96341946232E+02  0.96341946232E+02  0.00000000000E+00 0. -1.
         25    2    1    2    0    0  0.42140529299E+02  0.13672985527E+03  0.82157597569E+02  0.20705805654E+03  0.12510911401E+03 0.  0.
         23    2    1    2    0    0 -0.42140529299E+02 -0.13672985527E+03  0.18273734191E+03  0.25052077540E+03  0.94323089695E+02 0.  0.
          5    1    3    3  502    0  0.79157031522E+02  0.10172247049E+03  0.26814922073E+02  0.13171867403E+03  0.41800000000E+01 0.  1.
         -5    1    3    3    0  502 -0.37016502223E+02  0.35007384775E+02  0.55342675497E+02  0.75339382508E+02  0.41800000000E+01 0.  1.
        -11    1    4    4    0    0  0.15312853866E+02 -0.32893303199E+01  0.54604600404E+02  0.56806386725E+02  0.00000000000E+00 0.  1.
         11    1    4    4    0    0 -0.57453383165E+02 -0.13344052495E+03  0.12813274150E+03  0.19371438868E+03  0.00000000000E+00 0. -1.
</event>
<event>
 8    1  0.3719512E-009  0.1226257E+03  0.7561462E-02  0.1238827E+00
          3   -1    0    0  501    0  0.00000000000E+00  0.00000000000E+00  0.23057039310E+03  0.23057039310E+03  0.00000000000E+00 0. -1.
         -3   -1    0    0    0  501 -0.00000000000E+00 -0.00000000000E+00 -0.11114162634E+03  0.11114162634E+03  0.00000000000E+00 0.  1.
         25    2    1    2    0    0 -0.53041324069E+02  0.10272235869E+03  0.42627051953E+02  0.17558540836E+03  0.12509158659E+03 0.  0.
         23    2    1    2    0    0  0.53041324069E+02 -0.10272235869E+03  0.76801714814E+02  0.16612661108E+03  0.91292291442E+02 0.  0.
          5    1    3    3  502    0 -0.21301006027E+02  0.28457215383E+02  0.79136947090E+02  0.86854330692E+02  0.41800000000E+01 0.  1.
         -5    1    3    3    0  502 -0.31740318042E+02  0.74265143311E+02 -0.36509895138E+02  0.88731077663E+02  0.41800000000E+01 0.  1.
        -11    1    4    4    0    0  0.13883924446E+02 -0.84082097258E+02  0.90718852709E+01  0.85702167649E+02  0.00000000000E+00 0.  1.
         11    1    4    4    0    0  0.39157399624E+02 -0.18640261436E+02  0.67729829543E+02  0.80424443434E+02  0.00000000000E+00 0. -1.
</event>
<event>
 8    1  0.3719512E-009  0.9106101E+02  0.7561462E-02  0.1300302E+00
          1   -1    0    0  501    0  0.00000000000E+00  0.00000000000E+00  0.46621255678E+03  0.46621255678E+03  0.00000000000E+00 0. -1.
         -1   -1    0    0    0  501 -0.00000000000E+00 -0.00000000000E+00 -0.26556910027E+02  0.26556910027E+02  0.00000000000E+00 0.  1.
         25    2    1    2    0    0 -0.29467648047E+02  0.12172262643E+02  0.21458520864E+03  0.25042135746E+03  0.12509012050E+03 0.  0.
         23    2    1    2    0    0  0.29467648047E+02 -0.12172262643E+02  0.22507043811E+03  0.24234810935E+03  0.84020222162E+02 0.  0.
          5    1    3    3  502    0 -0.50926071365E+02 -0.22238850467E+02  0.33975222749E+02  0.65267291775E+02  0.41800000000E+01 0.  1.
         -5    1    3    3    0  502  0.21458423318E+02  0.34411113110E+02  0.18060998589E+03  0.18515406568E+03  0.41800000000E+01 0.  1.
        -11    1    4    4    0    0  0.87466943559E+01 -0.45527005419E+02  0.84333908436E+02  0.96236276927E+02  0.00000000000E+00 0.  1.
         11    1    4    4    0    0  0.20720953691E+02  0.33354742776E+02  0.14073652968E+03  0.14611183242E+03  0.00000000000E+00 0. -1.
</event>
<event>
 8    1  0.3719512E-009  0.1302842E+03  0.7561462E-02  0.1227035E+00
         -1   -1    0    0    0  501 -0.00000000000E+00  0.00000000000E+00  0.21419429345E+02  0.21419429345E+02  0.00000000000E+00 0.  1.
          1   -1    0    0  501    0  0.00000000000E+00 -0.00000000000E+00 -0.89032495297E+03  0.89032495297E+03  0.00000000000E+00 0. -1.
         25    2    1    2    0    0  0.66262334635E+02  0.51492955095E+02 -0.38008771399E+03  0.40884710518E+03  0.12508822353E+03 0.  0.
         23    2    1    2    0    0 -0.66262334635E+02 -0.51492955095E+02 -0.48881780963E+03  0.50289727714E+03  0.83190137203E+02 0.  0.
          5    1    3    3  502    0  0.88778377087E+02  0.22298756011E+01 -0.16993570883E+03  0.19178683510E+03  0.41800000000E+01 0. -1.
         -5    1    3    3    0  502 -0.22516042452E+02  0.49263079493E+02 -0.21015200517E+03  0.21706027007E+03  0.41800000000E+01 0. -1.
        -11    1    4    4    0    0  0.17340217515E+02 -0.23434642961E+02 -0.97441616730E+02  0.10170906698E+03  0.00000000000E+00 0.  1.
         11    1    4    4    0    0 -0.83602552150E+02 -0.28058312133E+02 -0.39137619290E+03  0.40118821017E+03  0.00000000000E+00 0. -1.
</event>
<event>
 8    1  0.3719512E-009  0.1001662E+03  0.7561462E-02  0.1279947E+00
          1   -1    0    0  501    0  0.00000000000E+00  0.00000000000E+00  0.38398960372E+02  0.38398960372E+02  0.00000000000E+00 0. -1.
         -1   -1    0    0    0  501 -0.00000000000E+00 -0.00000000000E+00 -0.35908897378E+03  0.35908897378E+03  0.00000000000E+00 0.  1.
         25    2    1    2    0    0  0.35123218509E+02 -0.21809776972E+02 -0.14974227541E+03  0.19944272899E+03  0.12508135852E+03 0.  0.
         23    2    1    2    0    0 -0.35123218509E+02  0.21809776972E+02 -0.17094773800E+03  0.19804520517E+03  0.91046511810E+02 0.  0.
          5    1    3    3  502    0  0.36397120697E+02 -0.55557782202E+02 -0.26573103406E+02  0.71659052344E+02  0.41800000000E+01 0. -1.
         -5    1    3    3    0  502 -0.12739021881E+01  0.33748005230E+02 -0.12316917200E+03  0.12778367664E+03  0.41800000000E+01 0. -1.
        -11    1    4    4    0    0 -0.65515026499E+02  0.68310369713E+01 -0.11926277659E+03  0.13624423526E+03  0.00000000000E+00 0.  1.
         11    1    4    4    0    0  0.30391807990E+02  0.14978740001E+02 -0.51684961411E+02  0.61800969903E+02  0.00000000000E+00 0. -1.
</event>
<event>
 8    1  0.3719512E-009  0.2211556E+03  0.7561462E-02  0.1133024E+00
         -2   -1    0    0    0  501 -0.00000000000E+00  0.00000000000E+00  0.63804767294E+03  0.63804767294E+03  0.00000000000E+00 0.  1.
          2   -1    0    0  501    0  0.00000000000E+00 -0.00000000000E+00 -0.18073201639E+03  0.18073201639E+03  0.00000000000E+00 0. -1.
         25    2    1    2    0    0 -0.32663487892E+01 -0.21974246031E+03  0.51214980822E+03  0.57117592625E+03  0.12508834784E+03 0.  0.
         23    2    1    2    0    0  0.32663487892E+01  0.21974246031E+03 -0.54834151677E+02  0.24760376307E+03  0.10001710554E+03 0.  0.
          5    1    3    3  502    0 -0.18069352268E+02 -0.10613079002E+03  0.11403223461E+03  0.15687915417E+03  0.41800000000E+01 0. -1.
         -5    1    3    3    0  502  0.14803003479E+02 -0.11361167029E+03  0.39811757361E+03  0.41429677208E+03  0.41800000000E+01 0. -1.
        -11    1    4    4    0    0 -0.28147144289E+01  0.78713852710E+02 -0.70332686671E+02  0.10559583344E+03  0.00000000000E+00 0.  1.
         11    1    4    4    0    0  0.60810632180E+01  0.14102860760E+03  0.15498534993E+02  0.14200792963E+03  0.00000000000E+00 0. -1.
</event>
<event>
 8    1  0.3719512E-009  0.1825387E+03  0.7561462E-02  0.1165368E+00
          3   -1    0    0  501    0  0.00000000000E+00  0.00000000000E+00  0.96540376037E+03  0.96540376037E+03  0.00000000000E+00 0. -1.
         -3   -1    0    0    0  501 -0.00000000000E+00 -0.00000000000E+00 -0.52570464917E+02  0.52570464917E+02  0.00000000000E+00 0.  1.
         25    2    1    2    0    0  0.12784585520E+03 -0.10850480104E+03  0.23989659433E+03  0.31829962882E+03  0.12508566343E+03 0.  0.
         23    2    1    2    0    0 -0.12784585520E+03  0.10850480104E+03  0.67293670112E+03  0.69967459647E+03  0.92643848620E+02 0.  0.
          5    1    3    3  502    0  0.11747634439E+03 -0.76895703015E+02  0.24688766611E+03  0.28405040523E+03  0.41800000000E+01 0. -1.
         -5    1    3    3    0  502  0.10369510810E+02 -0.31609098026E+02 -0.69910717724E+01  0.34249223596E+02  0.41800000000E+01 0. -1.
        -11    1    4    4    0    0 -0.22947636083E+02  0.78778932612E+02  0.31403164036E+03  0.32457446815E+03  0.00000000000E+00 0. -1.
         11    1    4    4    0    0 -0.10489821911E+03  0.29725868429E+02  0.35890506076E+03  0.37510012832E+03  0.00000000000E+00 0.  1.
</event>
<event>
 8    1  0.3719512E-009  0.1254664E+03  0.7561462E-02  0.1234342E+00
         -2   -1    0    0    0  501 -0.00000000000E+00  0.00000000000E+00  0.10823668462E+02  0.10823668462E+02  0.00000000000E+00 0.  1.
          2   -1    0    0  501    0  0.00000000000E+00 -0.00000000000E+00 -0.18845133182E+04  0.18845133182E+04  0.00000000000E+00 0. -1.
         25    2    1    2    0    0 -0.61415693381E+02  0.46863921191E+02 -0.13636477418E+04  0.13715513673E+04  0.12509945998E+03 0.  0.
         23    2    1    2    0    0  0.61415693381E+02 -0.46863921191E+02 -0.51004190795E+03  0.52378561939E+03  0.90777269784E+02 0.  0.
          5    1    3    3  502    0 -0.25831042023E+00 -0.34823014153E+02 -0.61102568623E+03  0.61203151117E+03  0.41800000000E+01 0. -1.
         -5    1    3    3    0  502 -0.61157382961E+02  0.81686935344E+02 -0.75262205555E+03  0.75951985609E+03  0.41800000000E+01 0. -1.
        -11    1    4    4    0    0  0.40685605624E+02  0.18837646286E+02 -0.12909481016E+03  0.13665886518E+03  0.00000000000E+00 0.  1.
         11    1    4    4    0    0  0.20730087757E+02 -0.65701567476E+02 -0.38094709780E+03  0.38712675421E+03  0.00000000000E+00 0. -1.
</event>
<event>
 8    1  0.3719512E-009  0.1360362E+03  0.7561462E-02  0.1218764E+00
         -1   -1    0    0    0  501 -0.00000000000E+00  0.00000000000E+00  0.65815926053E+03  0.65815926053E+03  0.00000000000E+00 0.  1.
          1   -1    0    0  501    0  0.00000000000E+00 -0.00000000000E+00 -0.33926790492E+02  0.33926790492E+02  0.00000000000E+00 0. -1.
         25    2    1    2    0    0 -0.68216303598E+02  0.79675052753E+02  0.34427077037E+03  0.38101240485E+03  0.12508601523E+03 0.  0.
         23    2    1    2    0    0  0.68216303598E+02 -0.79675052753E+02  0.27996169967E+03  0.31107364618E+03  0.85945808256E+02 0.  0.
          5    1    3    3  502    0 -0.66517475567E+02 -0.14207731313E+02  0.16691705006E+03  0.18029200811E+03  0.41800000000E+01 0. -1.
         -5    1    3    3    0  502 -0.16988280318E+01  0.93882784066E+02  0.17735372031E+03  0.20072039674E+03  0.41800000000E+01 0. -1.
        -11    1    4    4    0    0  0.62708757482E+02 -0.51267292130E+02  0.26763049380E+03  0.27961903497E+03  0.00000000000E+00 0.  1.
         11    1    4    4    0    0  0.55075461161E+01 -0.28407760623E+02  0.12331205868E+02  0.31454611205E+02  0.00000000000E+00 0. -1.
</event>
<event>
 8    1  0.3719512E-009  0.1587236E+03  0.7561462E-02  0.1190145E+00
          2   -1    0    0  501    0  0.00000000000E+00  0.00000000000E+00  0.23522347891E+03  0.23522347891E+03  0.00000000000E+00 0. -1.
         -2   -1    0    0    0  501 -0.00000000000E+00 -0.00000000000E+00 -0.16646353568E+03  0.16646353568E+03  0.00000000000E+00 0.  1.
         25    2    1    2    0    0 -0.10522086386E+03  0.74514548256E+02  0.14078963402E+03  0.22823731371E+03  0.12508677879E+03 0.  0.
         23    2    1    2    0    0  0.10522086386E+03 -0.74514548256E+02 -0.72029690789E+02  0.17344970088E+03  0.90954242816E+02 0.  0.
          5    1    3    3  502    0  0.14715340604E+01  0.68846678446E+02  0.78439254499E+02  0.10446156993E+03  0.41800000000E+01 0. -1.
         -5    1    3    3    0  502 -0.10669239792E+03  0.56678698101E+01  0.62350379520E+02  0.12377574378E+03  0.41800000000E+01 0. -1.
        -11    1    4    4    0    0  0.10748950551E+03 -0.52902575746E+02 -0.26062499584E+02  0.12260477234E+03  0.00000000000E+00 0. -1.
         11    1    4    4    0    0 -0.22686416526E+01 -0.21611972511E+02 -0.45967191205E+02  0.50844928538E+02  0.00000000000E+00 0.  1.
</event>
<event>
 8    1  0.3719512E-009  0.1457350E+03  0.7561462E-02  0.1205814E+00
         -1   -1    0    0    0  501 -0.00000000000E+00  0.00000000000E+00  0.31541265881E+02  0.31541265881E+02  0.00000000000E+00 0.  1.
          1   -1    0    0  501    0  0.00000000000E+00 -0.00000000000E+00 -0.83944638563E+03  0.83944638563E+03  0.00000000000E+00 0. -1.
         25    2    1    2    0    0  0.83818944888E+02  0.62333912613E+02 -0.26952028204E+03  0.31495936305E+03  0.12508831184E+03 0.  0.
         23    2    1    2    0    0 -0.83818944888E+02 -0.62333912613E+02 -0.53838483771E+03  0.55602828846E+03  0.91641103827E+02 0.  0.
          5    1    3    3  502    0 -0.27311661803E+02  0.73565618808E+01 -0.10551047676E+03  0.10931595940E+03  0.41800000000E+01 0. -1.
         -5    1    3    3    0  502  0.11113060669E+03  0.54977350733E+02 -0.16400980528E+03  0.20564340365E+03  0.41800000000E+01 0. -1.
        -11    1    4    4    0    0 -0.28409840488E+02 -0.76521065538E+02 -0.30434593685E+03  0.31510163723E+03  0.00000000000E+00 0.  1.
         11    1    4    4    0    0 -0.55409104400E+02  0.14187152925E+02 -0.23403890086E+03  0.24092665123E+03  0.00000000000E+00 0. -1.
</event>
<event>
 8    1  0.3719512E-009  0.1169095E+03  0.7561462E-02  0.1248284E+00
         -1   -1    0    0    0  501 -0.00000000000E+00  0.00000000000E+00  0.27542824203E+02  0.27542824203E+02  0.00000000000E+00 0.  1.
          1   -1    0    0  501    0  0.00000000000E+00 -0.00000000000E+00 -0.68234040438E+03  0.68234040438E+03  0.00000000000E+00 0. -1.
         25    2    1    2    0    0  0.12553658621E+02  0.79401903406E+02 -0.42286045101E+03  0.44824205174E+03  0.12509084423E+03 0.  0.
         23    2    1    2    0    0 -0.12553658621E+02 -0.79401903406E+02 -0.23193712917E+03  0.26164117685E+03  0.90548423094E+02 0.  0.
          5    1    3    3  502    0  0.52916679390E+02  0.99393860675E+00 -0.23131549741E+03  0.23732992777E+03  0.41800000000E+01 0. -1.
         -5    1    3    3    0  502 -0.40363020769E+02  0.78407964799E+02 -0.19154495360E+03  0.21091212397E+03  0.41800000000E+01 0. -1.
        -11    1    4    4    0    0 -0.29738194717E+02 -0.44248858099E+02 -0.42430447017E+02  0.68137100776E+02  0.00000000000E+00 0.  1.
         11    1    4    4    0    0  0.17184536096E+02 -0.35153045307E+02 -0.18950668215E+03  0.19350407607E+03  0.00000000000E+00 0. -1.
</event>
<event>
 8    1  0.3719512E-009  0.8172332E+02  0.7561462E-02  0.1324231E+00
         -1   -1    0    0    0  501 -0.00000000000E+00  0.00000000000E+00  0.34315527773E+03  0.34315527773E+03  0.00000000000E+00 0.  1.
          1   -1    0    0  501    0  0.00000000000E+00 -0.00000000000E+00 -0.46338800373E+02  0.46338800373E+02  0.00000000000E+00 0. -1.
         25    2    1    2    0    0  0.23570391110E+02  0.10536133268E+02  0.72437997918E+02  0.14683779858E+03  0.12508997605E+03 0.  0.
         23    2    1    2    0    0 -0.23570391110E+02 -0.10536133268E+02  0.22437847944E+03  0.24265627952E+03  0.88711862308E+02 0.  0.
          5    1    3    3  502    0  0.43236781752E+02  0.23960044230E+02  0.99114838318E+02  0.11083648583E+03  0.41800000000E+01 0.  1.
         -5    1    3    3    0  502 -0.19666390643E+02 -0.13423910962E+02 -0.26676840400E+02  0.36001312756E+02  0.41800000000E+01 0.  1.
        -11    1    4    4    0    0  0.31328688206E+02 -0.14700883086E+02  0.59544798764E+02  0.68870790093E+02  0.00000000000E+00 0. -1.
         11    1    4    4    0    0 -0.54899079316E+02  0.41647498174E+01  0.16483368067E+03  0.17378548943E+03  0.00000000000E+00 0.  1.
</event>
<event>
 8    1  0.3719512E-009  0.8004275E+02  0.7561462E-02  0.1328930E+00
         -1   -1    0    0    0  501 -0.00000000000E+00  0.00000000000E+00  0.33407773794E+02  0.33407773794E+02  0.00000000000E+00 0.  1.
          1   -1    0    0  501    0  0.00000000000E+00 -0.00000000000E+00 -0.67656422890E+03  0.67656422890E+03  0.00000000000E+00 0. -1.
         25    2    1    2    0    0 -0.53483931571E+02 -0.14033945152E+01 -0.55932607238E+03  0.57563438995E+03  0.12508715037E+03 0.  0.
         23    2    1    2    0    0  0.53483931571E+02  0.14033945152E+01 -0.83830382725E+02  0.13433761275E+03  0.90313679360E+02 0.  0.
          5    1    3    3  502    0  0.55442669167E+01  0.30234323773E+02 -0.41839738634E+03  0.41954582411E+03  0.41800000000E+01 0.  1.
         -5    1    3    3    0  502 -0.59028198488E+02 -0.31637718289E+02 -0.14092868604E+03  0.15608856583E+03  0.41800000000E+01 0.  1.
        -11    1    4    4    0    0  0.38581477473E+02  0.15376710626E+02  0.62227459118E+01  0.41996383182E+02  0.00000000000E+00 0.  1.
         11    1    4    4    0    0  0.14902454099E+02 -0.13973316111E+02 -0.90053128636E+02  0.92341229570E+02  0.00000000000E+00 0. -1.
</event>
<event>
 8    1  0.3719512E-009  0.8485235E+02  0.7561462E-02  0.1315819E+00
          4   -1    0    0  501    0  0.00000000000E+00  0.00000000000E+00  0.70777422263E+02  0.70777422263E+02  0.00000000000E+00 0. -1.
         -4   -1    0    0    0  501 -0.00000000000E+00 -0.00000000000E+00 -0.20184006070E+03  0.20184006070E+03  0.00000000000E+00 0.  1.
         25    2    1    2    0    0 -0.91929670920E+01 -0.49191044722E+02 -0.72011046336E+02  0.15276435821E+03  0.12508832407E+03 0.  0.
         23    2    1    2    0    0  0.91929670920E+01  0.49191044722E+02 -0.59051592097E+02  0.11985312475E+03  0.91506346551E+02 0.  0.
          5    1    3    3  502    0  0.46899338929E+02 -0.41705502619E+02 -0.23857527399E+01  0.62944905726E+02  0.41800000000E+01 0.  1.
         -5    1    3    3    0  502 -0.56092306021E+02 -0.74855421031E+01 -0.69625293597E+02  0.89819452480E+02  0.41800000000E+01 0.  1.
        -11    1    4    4    0    0  0.65506168564E+01  0.38160621790E+02 -0.83974346753E+02  0.92470722660E+02  0.00000000000E+00 0.  1.
         11    1    4    4    0    0  0.26423502356E+01  0.11030422932E+02  0.24922754655E+02  0.27382402094E+02  0.00000000000E+00 0. -1.
</event>
<event>
 8    1  0.3719512E-009  0.1048475E+03  0.7561462E-02  0.1270420E+00
          3   -1    0    0  501    0  0.00000000000E+00  0.00000000000E+00  0.90459992807E+02  0.90459992807E+02  0.00000000000E+00 0.  1.
         -3   -1    0    0    0  501 -0.00000000000E+00 -0.00000000000E+00 -0.19884569042E+03  0.19884569042E+03  0.00000000000E+00 0. -1.
         25    2    1    2    0    0 -0.47952518987E+02  0.14255252174E+02 -0.12642176028E+03  0.18474947519E+03  0.12508897161E+03 0.  0.
         23    2    1    2    0    0  0.47952518987E+02 -0.14255252174E+02  0.18036062670E+02  0.10455620804E+03  0.90022468253E+02 0.  0.
          5    1    3    3  502    0  0.21524256933E+02 -0.30168937067E+02 -0.45953846444E+01  0.37577231941E+02  0.41800000000E+01 0. -1.
         -5    1    3    3    0  502 -0.69476775921E+02  0.44424189241E+02 -0.12182637563E+03  0.14717224325E+03  0.41800000000E+01 0. -1.
        -11    1    4    4    0    0  0.68284909504E+02 -0.12511513744E+02 -0.97271531367E+01  0.70099817049E+02  0.00000000000E+00 0.  1.
         11    1    4    4    0    0 -0.20332390517E+02 -0.17437384293E+01  0.27763215807E+02  0.34456390986E+02  0.00000000000E+00 0. -1.
</event>
<event>
 8    1  0.3719512E-009  0.7342583E+02  0.7561462E-02  0.1348816E+00
          2   -1    0    0  501    0  0.00000000000E+00  0.00000000000E+00  0.14324483636E+03  0.14324483636E+03  0.00000000000E+00 0. -1.
         -2   -1    0    0    0  501 -0.00000000000E+00 -0.00000000000E+00 -0.95804427027E+02  0.95804427027E+02  0.00000000000E+00 0.  1.
         25    2    1    2    0    0 -0.26293948754E+02 -0.95598779006E+01  0.67236952184E+02  0.14474759111E+03  0.12509314284E+03 0.  0.
         23    2    1    2    0    0  0.26293948754E+02  0.95598779006E+01 -0.19796542848E+02  0.94301672282E+02  0.87852941214E+02 0.  0.
          5    1    3    3  502    0 -0.15045820279E+02  0.18460184553E+02  0.98298289134E+02  0.10122836148E+03  0.41800000000E+01 0.  1.
         -5    1    3    3    0  502 -0.11248128475E+02 -0.28020062454E+02 -0.31061336950E+02  0.43519229626E+02  0.41800000000E+01 0.  1.
        -11    1    4    4    0    0 -0.19522179544E+02  0.34785852010E+02 -0.92243500487E+01  0.40942149773E+02  0.00000000000E+00 0.  1.
         11    1    4    4    0    0  0.45816128297E+02 -0.25225974109E+02 -0.10572192799E+02  0.53359522510E+02  0.00000000000E+00 0. -1.
</event>
<event>
 8    1  0.3719512E-009  0.1047618E+03  0.7561462E-02  0.1270590E+00
          1   -1    0    0  501    0  0.00000000000E+00  0.00000000000E+00  0.69169226708E+03  0.69169226708E+03  0.00000000000E+00 0. -1.
         -1   -1    0    0    0  501 -0.00000000000E+00 -0.00000000000E+00 -0.23668941229E+02  0.23668941229E+02  0.00000000000E+00 0.  1.
         25    2    1    2    0    0 -0.44973770475E+02  0.52103750605E+02  0.31824091645E+03  0.34880069178E+03  0.12508877178E+03 0.  0.
         23    2    1    2    0    0  0.44973770475E+02 -0.52103750605E+02  0.34978240941E+03  0.36656051653E+03  0.85331339456E+02 0.  0.
          5    1    3    3  502    0 -0.63674322024E+02  0.27803931875E+02  0.70276814897E+02  0.98912997250E+02  0.41800000000E+01 0.  1.
         -5    1    3    3    0  502  0.18700551550E+02  0.24299818730E+02  0.24796410155E+03  0.24988769453E+03  0.41800000000E+01 0.  1.
        -11    1    4    4    0    0  0.48416289469E+02  0.77382169901E+01  0.17755666767E+03  0.18420202855E+03  0.00000000000E+00 0. -1.
         11    1    4    4    0    0 -0.34425189946E+01 -0.59841967595E+02  0.17222574174E+03  0.18235848798E+03  0.00000000000E+00 0.  1.
</event>
<event>
 8    1  0.3719512E-009  0.7242833E+02  0.7561462E-02  0.1352025E+00
         -2   -1    0    0    0  501 -0.00000000000E+00  0.00000000000E+00  0.87321832234E+02  0.87321832234E+02  0.00000000000E+00 0.  1.
          2   -1    0    0  501    0  0.00000000000E+00 -0.00000000000E+00 -0.14599141621E+03  0.14599141621E+03  0.00000000000E+00 0. -1.
         25    2    1    2    0    0 -0.20552514386E+02 -0.24838913326E+02 -0.37086381387E+02  0.13439483744E+03  0.12508874923E+03 0.  0.
         23    2    1    2    0    0  0.20552514386E+02  0.24838913326E+02 -0.21583202588E+02  0.98918411005E+02  0.90992526830E+02 0.  0.
          5    1    3    3  502    0 -0.14392521108E+02  0.24170761632E+02  0.36126723002E+02  0.45978069735E+02  0.41800000000E+01 0. -1.
         -5    1    3    3    0  502 -0.61599932786E+01 -0.49009674958E+02 -0.73213104389E+02  0.88416767703E+02  0.41800000000E+01 0. -1.
        -11    1    4    4    0    0 -0.38246853327E+01  0.38642038555E+02  0.23829985408E+02  0.45559889883E+02  0.00000000000E+00 0.  1.
         11    1    4    4    0    0  0.24377199719E+02 -0.13803125229E+02 -0.45413187997E+02  0.53358521121E+02  0.00000000000E+00 0. -1.
</event>
<event>
 8    1  0.3719512E-009  0.8941624E+02  0.7561462E-02  0.1304272E+00
         -4   -1    0    0    0  501 -0.00000000000E+00  0.00000000000E+00  0.35534031781E+03  0.35534031781E+03  0.00000000000E+00 0.  1.
          4   -1    0    0  501    0  0.00000000000E+00 -0.00000000000E+00 -0.39393020569E+02  0.39393020569E+02  0.00000000000E+00 0. -1.
         25    2    1    2    0    0  0.26183328495E+02 -0.35978552923E+02  0.16621878453E+03  0.21273668097E+03  0.12509271817E+03 0.  0.
         23    2    1    2    0    0 -0.26183328495E+02  0.35978552923E+02  0.14972851272E+03  0.18199665741E+03  0.93403066479E+02 0.  0.
          5    1    3    3  502    0 -0.40703874019E+02  0.97903178327E+01  0.98247680508E+02  0.10687719499E+03  0.41800000000E+01 0.  1.
         -5    1    3    3    0  502  0.66887202514E+02 -0.45768870756E+02  0.67971104021E+02  0.10585948598E+03  0.41800000000E+01 0.  1.
        -11    1    4    4    0    0  0.13641672493E+01  0.26405875490E+02  0.15051785850E+03  0.15282263229E+03  0.00000000000E+00 0.  1.
         11    1    4    4    0    0 -0.27547495744E+02  0.95726774329E+01 -0.78934578465E+00  0.29174025121E+02  0.00000000000E+00 0. -1.
</event>
<event>
 8    1  0.3719512E-009  0.8846836E+02  0.7561462E-02  0.1306604E+00
          1   -1    0    0  501    0  0.00000000000E+00  0.00000000000E+00  0.27638926426E+03  0.27638926426E+03  0.00000000000E+00 0. -1.
         -1   -1    0    0    0  501 -0.00000000000E+00 -0.00000000000E+00 -0.61012296425E+02  0.61012296425E+02  0.00000000000E+00 0.  1.
         25    2    1    2    0    0  0.58273025710E+02  0.15712866497E-01  0.61427360719E+02  0.15105552045E+03  0.12509477943E+03 0.  0.
         23    2    1    2    0    0 -0.58273025710E+02 -0.15712866497E-01  0.15394960711E+03  0.18634604023E+03  0.87341968187E+02 0.  0.
          5    1    3    3  502    0  0.61424263670E+02 -0.35424675543E+02 -0.94328786995E+01  0.71654025744E+02  0.41800000000E+01 0. -1.
         -5    1    3    3    0  502 -0.31512379602E+01  0.35440388410E+02  0.70860239418E+02  0.79401494707E+02  0.41800000000E+01 0. -1.
        -11    1    4    4    0    0 -0.24229621492E+02  0.19266977900E+02  0.14214806750E+03  0.14547977210E+03  0.00000000000E+00 0. -1.
         11    1    4    4    0    0 -0.34043404218E+02 -0.19282690766E+02  0.11801539613E+02  0.40866268134E+02  0.00000000000E+00 0.  1.
</event>
<event>
 8    1  0.3719512E-009  0.1793851E+03  0.7561462E-02  0.1168399E+00
         -2   -1    0    0    0  501 -0.00000000000E+00  0.00000000000E+00  0.26794832591E+03  0.26794832591E+03  0.00000000000E+00 0.  1.
          2   -1    0    0  501    0  0.00000000000E+00 -0.00000000000E+00 -0.27609913480E+03  0.27609913480E+03  0.00000000000E+00 0. -1.
         25    2    1    2    0    0 -0.12376768903E+03 -0.12035155887E+03 -0.18384027205E+03  0.28150928622E+03  0.12508914433E+03 0.  0.
         23    2    1    2    0    0  0.12376768903E+03  0.12035155887E+03  0.17568946316E+03  0.26253817448E+03  0.90865653725E+02 0.  0.
          5    1    3    3  502    0 -0.10024996872E+03 -0.52605439008E+02 -0.17591590684E+03  0.20923973600E+03  0.41800000000E+01 0. -1.
         -5    1    3    3    0  502 -0.23517720307E+02 -0.67746119862E+02 -0.79243652093E+01  0.72269550218E+02  0.41800000000E+01 0. -1.
        -11    1    4    4    0    0  0.52335151069E+02  0.38276939144E+02  0.11930782938E+02  0.65927503284E+02  0.00000000000E+00 0.  1.
         11    1    4    4    0    0  0.71432537958E+02  0.82074619725E+02  0.16375868022E+03  0.19661067120E+03  0.00000000000E+00 0. -1.
</event>
<event>
 8    1  0.3719512E-009  0.1056067E+03  0.7561462E-02  0.1268929E+00
          2   -1    0    0  501    0  0.00000000000E+00  0.00000000000E+00  0.31015573666E+03  0.31015573666E+03  0.00000000000E+00 0. -1.
         -2   -1    0    0    0  501 -0.00000000000E+00 -0.00000000000E+00 -0.83226768781E+02  0.83226768781E+02  0.00000000000E+00 0.  1.
         25    2    1    2    0    0  0.28455328883E+02  0.63494690370E+02  0.23783589531E+03  0.27758996556E+03  0.12509594092E+03 0.  0.
         23    2    1    2    0    0 -0.28455328883E+02 -0.63494690370E+02 -0.10906927425E+02  0.11579253989E+03  0.91911205959E+02 0.  0.
          5    1    3    3  502    0 -0.41723771140E+02  0.53744528748E+02  0.84072918859E+02  0.10823620251E+03  0.41800000000E+01 0.  1.
         -5    1    3    3    0  502  0.70179100023E+02  0.97501616218E+01  0.15376297645E+03  0.16935376305E+03  0.41800000000E+01 0.  1.
        -11    1    4    4    0    0 -0.64834056814E-01 -0.20781911113E+02 -0.48127254826E+02  0.52422558981E+02  0.00000000000E+00 0.  1.
         11    1    4    4    0    0 -0.28390494826E+02 -0.42712779256E+02  0.37220327401E+02  0.63369980907E+02  0.00000000000E+00 0. -1.
</event>
<event>
 8    1  0.3719512E-009  0.8181755E+02  0.7561462E-02  0.1323971E+00
         -2   -1    0    0    0  501 -0.00000000000E+00  0.00000000000E+00  0.22675662656E+03  0.22675662656E+03  0.00000000000E+00 0.  1.
          2   -1    0    0  501    0  0.00000000000E+00 -0.00000000000E+00 -0.67760259452E+02  0.67760259452E+02  0.00000000000E+00 0. -1.
         25    2    1    2    0    0  0.24196172692E+02  0.19327904073E+02  0.26817454032E+02  0.13162835837E+03  0.12509127163E+03 0.  0.
         23    2    1    2    0    0 -0.24196172692E+02 -0.19327904073E+02  0.13217891307E+03  0.16288852764E+03  0.90013247505E+02 0.  0.
          5    1    3    3  502    0  0.42665050522E+02  0.29022290236E+02 -0.37473779079E+02  0.63908969519E+02  0.41800000000E+01 0. -1.
         -5    1    3    3    0  502 -0.18468877830E+02 -0.96943861633E+01  0.64291233111E+02  0.67719388851E+02  0.41800000000E+01 0. -1.
        -11    1    4    4    0    0 -0.43490147665E+02 -0.42248151079E+02  0.62680612663E+02  0.87207559404E+02  0.00000000000E+00 0. -1.
         11    1    4    4    0    0  0.19293974973E+02  0.22920247006E+02  0.69498300408E+02  0.75680968233E+02  0.00000000000E+00 0.  1.
</event>
<event>
 8    1  0.3719512E-009  0.1315442E+03  0.7561462E-02  0.1225182E+00
         -2   -1    0    0    0  501 -0.00000000000E+00  0.00000000000E+00  0.49765006428E+02  0.49765006428E+02  0.00000000000E+00 0.  1.
          2   -1    0    0  501    0  0.00000000000E+00 -0.00000000000E+00 -0.37619572027E+03  0.37619572027E+03  0.00000000000E+00 0. -1.
         25    2    1    2    0    0 -0.78760962144E+02 -0.13297299616E+02 -0.20118103439E+03  0.25000042407E+03  0.12508515539E+03 0.  0.
         23    2    1    2    0    0  0.78760962144E+02  0.13297299616E+02 -0.12524967945E+03  0.17596030263E+03  0.94310331170E+02 0.  0.
          5    1    3    3  502    0 -0.86062782999E+02  0.38810697264E+02 -0.14341662687E+03  0.17175236273E+03  0.41800000000E+01 0. -1.
         -5    1    3    3    0  502  0.73018208548E+01 -0.52107996881E+02 -0.57764407521E+02  0.78248061337E+02  0.41800000000E+01 0. -1.
        -11    1    4    4    0    0  0.69227594002E+02  0.45087112961E+02 -0.11426166867E+03  0.14100012927E+03  0.00000000000E+00 0.  1.
         11    1    4    4    0    0  0.95333681429E+01 -0.31789813344E+02 -0.10988010774E+02  0.34960173360E+02  0.00000000000E+00 0. -1.
</event>
<event>
 8    1  0.3719512E-009  0.9959036E+02  0.7561462E-02  0.1281160E+00
         -3   -1    0    0    0  501 -0.00000000000E+00  0.00000000000E+00  0.20690387272E+03  0.20690387272E+03  0.00000000000E+00 0.  1.
          3   -1    0    0  501    0  0.00000000000E+00 -0.00000000000E+00 -0.10433957610E+03  0.10433957610E+03  0.00000000000E+00 0. -1.
         25    2    1    2    0    0  0.30235697496E+02 -0.32398760011E+02  0.14904439590E+03  0.19956435061E+03  0.12509125081E+03 0.  0.
         23    2    1    2    0    0 -0.30235697496E+02  0.32398760011E+02 -0.46480099281E+02  0.11167909821E+03  0.91367085401E+02 0.  0.
          5    1    3    3  502    0  0.73584973757E+02 -0.37055401259E+02  0.12451981708E+03  0.14936702571E+03  0.41800000000E+01 0. -1.
         -5    1    3    3    0  502 -0.43349276260E+02  0.46566412484E+01  0.24524578824E+02  0.50197324894E+02  0.41800000000E+01 0. -1.
        -11    1    4    4    0    0 -0.47742082417E+02  0.24865076958E+02 -0.65481377825E+02  0.84766675807E+02  0.00000000000E+00 0. -1.
         11    1    4    4    0    0  0.17506384920E+02  0.75336830531E+01  0.19001278544E+02  0.26912422403E+02  0.00000000000E+00 0.  1.
</event>
<event>
 8    1  0.3719512E-009  0.8789795E+02  0.7561462E-02  0.1308023E+00
          2   -1    0    0  501    0  0.00000000000E+00  0.00000000000E+00  0.11177177663E+03  0.11177177663E+03  0.00000000000E+00 0. -1.
         -2   -1    0    0    0  501 -0.00000000000E+00 -0.00000000000E+00 -0.11918534640E+03  0.11918534640E+03  0.00000000000E+00 0.  1.
         25    2    1    2    0    0 -0.35746710373E+02  0.27809452672E+01 -0.21217632925E+02  0.13184668434E+03  0.12509116382E+03 0.  0.
         23    2    1    2    0    0  0.35746710373E+02 -0.27809452672E+01  0.13804063159E+02  0.99110438684E+02  0.91360636695E+02 0.  0.
          5    1    3    3  502    0 -0.75906733598E+02  0.13811674358E+02 -0.38783428639E+02  0.86453578822E+02  0.41800000000E+01 0. -1.
         -5    1    3    3    0  502  0.40160023226E+02 -0.11030729091E+02  0.17565795714E+02  0.45393105521E+02  0.41800000000E+01 0. -1.
        -11    1    4    4    0    0 -0.66221827053E+01  0.10375308400E+02 -0.32639144124E+02  0.34882861943E+02  0.00000000000E+00 0.  1.
         11    1    4    4    0    0  0.42368893078E+02 -0.13156253667E+02  0.46443207284E+02  0.64227576741E+02  0.00000000000E+00 0. -1.
</event>
<event>
 8    1  0.3719512E-009  0.1425009E+03  0.7561462E-02  0.1210003E+00
          4   -1    0    0  501    0  0.00000000000E+00  0.00000000000E+00  0.25036482685E+03  0.25036482685E+03  0.00000000000E+00 0. -1.
         -4   -1    0    0    0  501 -0.00000000000E+00 -0.00000000000E+00 -0.10797405718E+03  0.10797405718E+03  0.00000000000E+00 0.  1.
         25    2    1    2    0    0 -0.66963164629E+02 -0.99125353588E+02  0.42531965360E+02  0.17823625334E+03  0.12509713340E+03 0.  0.
         23    2    1    2    0    0  0.66963164629E+02  0.99125353588E+02  0.99858804311E+02  0.18010263070E+03  0.90306564799E+02 0.  0.
          5    1    3    3  502    0 -0.61609841977E+01 -0.65340048657E+02  0.76360457464E+02  0.10077535189E+03  0.41800000000E+01 0. -1.
         -5    1    3    3    0  502 -0.60802180431E+02 -0.33785304931E+02 -0.33828492104E+02  0.77460901444E+02  0.41800000000E+01 0. -1.
        -11    1    4    4    0    0 -0.12696891908E+02  0.59017676470E+02  0.34500851100E+02  0.69531330540E+02  0.00000000000E+00 0.  1.
         11    1    4    4    0    0  0.79660056537E+02  0.40107677119E+02  0.65357953210E+02  0.11057130016E+03  0.00000000000E+00 0. -1.
</event>
<event>
 8    1  0.3719512E-009  0.6537416E+02  0.7561462E-02  0.1376570E+00
          4   -1    0    0  501    0  0.00000000000E+00  0.00000000000E+00  0.28123999526E+02  0.28123999526E+02  0.00000000000E+00 0. -1.
         -4   -1    0    0    0  501 -0.00000000000E+00 -0.00000000000E+00 -0.44509488842E+03  0.44509488842E+03  0.00000000000E+00 0.  1.
         25    2    1    2    0    0 -0.25520894024E+02  0.93315958119E+01 -0.25483029226E+03  0.28517380608E+03  0.12508887682E+03 0.  0.
         23    2    1    2    0    0  0.25520894024E+02 -0.93315958119E+01 -0.16214059663E+03  0.18804508187E+03  0.91285185150E+02 0.  0.
          5    1    3    3  502    0 -0.17752572650E+00 -0.91961418555E+01 -0.25326286705E+03  0.25346430274E+03  0.41800000000E+01 0.  1.
         -5    1    3    3    0  502 -0.25343368297E+02  0.18527737667E+02 -0.15674252163E+01  0.31709503332E+02  0.41800000000E+01 0.  1.
        -11    1    4    4    0    0  0.50257367339E+02 -0.28413501096E+02 -0.13436022917E+03  0.14623884983E+03  0.00000000000E+00 0.  1.
         11    1    4    4    0    0 -0.24736473315E+02  0.19081905284E+02 -0.27780367457E+02  0.41806232040E+02  0.00000000000E+00 0. -1.
</event>
<event>
 8    1  0.3719512E-009  0.3168599E+03  0.7561462E-02  0.1077104E+00
          1   -1    0    0  501    0  0.00000000000E+00  0.00000000000E+00  0.21636386339E+03  0.21636386339E+03  0.00000000000E+00 0. -1.
         -1   -1    0    0    0  501 -0.00000000000E+00 -0.00000000000E+00 -0.57528781341E+03  0.57528781341E+03  0.00000000000E+00 0.  1.
         25    2    1    2    0    0 -0.20723856077E+03 -0.23348229870E+03 -0.32017879534E+03  0.46435453475E+03  0.12509543590E+03 0.  0.
         23    2    1    2    0    0  0.20723856077E+03  0.23348229870E+03 -0.38745154679E+02  0.32729714205E+03  0.90335083476E+02 0.  0.
          5    1    3    3  502    0 -0.19827162197E+02 -0.38206790903E+02 -0.12038185543E+03  0.12791457598E+03  0.41800000000E+01 0. -1.
         -5    1    3    3    0  502 -0.18741139857E+03 -0.19527550779E+03 -0.19979693991E+03  0.33643995877E+03  0.41800000000E+01 0. -1.
        -11    1    4    4    0    0  0.17604022715E+03  0.22808652562E+03 -0.52347066041E+02  0.29283756601E+03  0.00000000000E+00 0.  1.
         11    1    4    4    0    0  0.31198333617E+02  0.53957730724E+01  0.13601911362E+02  0.34459576031E+02  0.00000000000E+00 0. -1.
</event>
<event>
 8    1  0.3719512E-009  0.9456471E+02  0.7561462E-02  0.1292159E+00
         -2   -1    0    0    0  501 -0.00000000000E+00  0.00000000000E+00  0.77433232200E+02  0.77433232200E+02  0.00000000000E+00 0.  1.
          2   -1    0    0  501    0  0.00000000000E+00 -0.00000000000E+00 -0.17740240623E+03  0.17740240623E+03  0.00000000000E+00 0. -1.
         25    2    1    2    0    0  0.15949910131E+01 -0.43811734593E+02 -0.70810232968E+02  0.15027917835E+03  0.12509088803E+03 0.  0.
         23    2    1    2    0    0 -0.15949910131E+01  0.43811734593E+02 -0.29158941065E+02  0.10455646008E+03  0.90331597000E+02 0.  0.
          5    1    3    3  502    0  0.51483596247E+02 -0.46611842194E+02 -0.81866275682E+01  0.70055105354E+02  0.41800000000E+01 0.  1.
         -5    1    3    3    0  502 -0.49888605234E+02  0.28001076008E+01 -0.62623605400E+02  0.80224072996E+02  0.41800000000E+01 0.  1.
        -11    1    4    4    0    0 -0.27716999101E+02  0.22494700129E+02 -0.52545262809E+02  0.63523603619E+02  0.00000000000E+00 0. -1.
         11    1    4    4    0    0  0.26122008088E+02  0.21317034465E+02  0.23386321744E+02  0.41032856464E+02  0.00000000000E+00 0.  1.
</event>
<event>
 8    1  0.3719512E-009  0.8455615E+02  0.7561462E-02  0.1316597E+00
          1   -1    0    0  501    0  0.00000000000E+00  0.00000000000E+00  0.24922459419E+03  0.24922459419E+03  0.00000000000E+00 0. -1.
         -1   -1    0    0    0  501 -0.00000000000E+00 -0.00000000000E+00 -0.53514233786E+02  0.53514233786E+02  0.00000000000E+00 0.  1.
         25    2    1    2    0    0  0.39607615163E+02  0.63896844326E+00  0.11466102930E+03  0.17425298443E+03  0.12509108474E+03 0.  0.
         23    2    1    2    0    0 -0.39607615163E+02 -0.63896844326E+00  0.81049331095E+02  0.12848584355E+03  0.91490144066E+02 0.  0.
          5    1    3    3  502    0  0.28706054814E+01 -0.24300422442E+02  0.12584768354E+03  0.12827261110E+03  0.41800000000E+01 0. -1.
         -5    1    3    3    0  502  0.36737009682E+02  0.24939390885E+02 -0.11186654234E+02  0.45980373324E+02  0.41800000000E+01 0. -1.
        -11    1    4    4    0    0 -0.69035817361E+02  0.66998865767E+01  0.57136278308E+02  0.89863156286E+02  0.00000000000E+00 0.  1.
         11    1    4    4    0    0  0.29428202198E+02 -0.73388550200E+01  0.23913052787E+02  0.38622687260E+02  0.00000000000E+00 0. -1.
</event>
<event>
 8    1  0.3719512E-009  0.1601607E+03  0.7561462E-02  0.1188515E+00
         -2   -1    0    0    0  501 -0.00000000000E+00  0.00000000000E+00  0.29059511065E+03  0.29059511065E+03  0.00000000000E+00 0.  1.
          2   -1    0    0  501    0  0.00000000000E+00 -0.00000000000E+00 -0.10011178869E+03  0.10011178869E+03  0.00000000000E+00 0. -1.
         25    2    1    2    0    0  0.12326035460E+03  0.34206624989E+02  0.13702013153E+03  0.22535314980E+03  0.12508524082E+03 0.  0.
         23    2    1    2    0    0 -0.12326035460E+03 -0.34206624989E+02  0.53463190437E+02  0.16535374954E+03  0.90112937728E+02 0.  0.
          5    1    3    3  502    0  0.97523988795E+00  0.51504590467E+02  0.20792597842E+02  0.55708872337E+02  0.41800000000E+01 0. -1.
         -5    1    3    3    0  502  0.12228511471E+03 -0.17297965478E+02  0.11622753369E+03  0.16964427746E+03  0.41800000000E+01 0. -1.
        -11    1    4    4    0    0 -0.97349106981E+02 -0.55027248768E+02  0.65975492966E+02  0.12983686845E+03  0.00000000000E+00 0.  1.
         11    1    4    4    0    0 -0.25911247616E+02  0.20820623779E+02 -0.12512302529E+02  0.35516881087E+02  0.00000000000E+00 0. -1.
</event>
<event>
 8    1  0.3719512E-009  0.9128726E+02  0.7561462E-02  0.1299764E+00
         -2   -1    0    0    0  501 -0.00000000000E+00  0.00000000000E+00  0.11279117266E+03  0.11279117266E+03  0.00000000000E+00 0.  1.
          2   -1    0    0  501    0  0.00000000000E+00 -0.00000000000E+00 -0.17943010524E+03  0.17943010524E+03  0.00000000000E+00 0. -1.
         25    2    1    2    0    0  0.29744660153E+02  0.12997659914E+02 -0.12471539514E+03  0.17960768989E+03  0.12510518978E+03 0.  0.
         23    2    1    2    0    0 -0.29744660153E+02 -0.12997659914E+02  0.58076462563E+02  0.11261358802E+03  0.90858465379E+02 0.  0.
          5    1    3    3  502    0  0.34874293146E+02  0.60785366840E+02 -0.36651919278E+02  0.79195408523E+02  0.41800000000E+01 0. -1.
         -5    1    3    3    0  502 -0.51296329937E+01 -0.47787706926E+02 -0.88063475863E+02  0.10041228137E+03  0.41800000000E+01 0. -1.
        -11    1    4    4    0    0 -0.46270406997E+02 -0.96092154781E+01 -0.48118150333E+01  0.47502012059E+02  0.00000000000E+00 0. -1.
         11    1    4    4    0    0  0.16525746844E+02 -0.33884444359E+01  0.62888277596E+02  0.65111575956E+02  0.00000000000E+00 0.  1.
</event>
<event>
 8    1  0.3719512E-009  0.1163252E+03  0.7561462E-02  0.1249286E+00
          2   -1    0    0  501    0  0.00000000000E+00  0.00000000000E+00  0.80829346790E+03  0.80829346790E+03  0.00000000000E+00 0. -1.
         -2   -1    0    0    0  501 -0.00000000000E+00 -0.00000000000E+00 -0.19794819299E+02  0.19794819299E+02  0.00000000000E+00 0.  1.
         25    2    1    2    0    0  0.57482161409E+02  0.12282104852E+02  0.49532822274E+03  0.51424964783E+03  0.12509037961E+03 0.  0.
         23    2    1    2    0    0 -0.57482161409E+02 -0.12282104852E+02  0.29317042586E+03  0.31383863937E+03  0.95345393077E+02 0.  0.
          5    1    3    3  502    0  0.27663636953E+02  0.61928498781E+02  0.15849745452E+03  0.17245095320E+03  0.41800000000E+01 0. -1.
         -5    1    3    3    0  502  0.29818524456E+02 -0.49646393929E+02  0.33683076822E+03  0.34179869463E+03  0.41800000000E+01 0. -1.
        -11    1    4    4    0    0 -0.38802022481E+02  0.37192320973E+02  0.19569344270E+03  0.20294035873E+03  0.00000000000E+00 0. -1.
         11    1    4    4    0    0 -0.18680138928E+02 -0.49474425825E+02  0.97476983163E+02  0.11089828063E+03  0.00000000000E+00 0.  1.
</event>
<event>
 8    1  0.3719512E-009  0.1935951E+03  0.7561462E-02  0.1155258E+00
         -2   -1    0    0    0  501 -0.00000000000E+00  0.00000000000E+00  0.18082095056E+03  0.18082095056E+03  0.00000000000E+00 0.  1.
          2   -1    0    0  501    0  0.00000000000E+00 -0.00000000000E+00 -0.26110721341E+03  0.26110721341E+03  0.00000000000E+00 0. -1.
         25    2    1    2    0    0  0.80062648282E+02  0.16474126782E+03  0.35367529822E+00  0.22180682514E+03  0.12509368337E+03 0.  0.
         23    2    1    2    0    0 -0.80062648282E+02 -0.16474126782E+03 -0.80639938154E+02  0.22012133883E+03  0.91656375718E+02 0.  0.
          5    1    3    3  502    0  0.11189407258E+02  0.22507306438E+02 -0.49812349556E+02  0.55951087980E+02  0.41800000000E+01 0. -1.
         -5    1    3    3    0  502  0.68873241024E+02  0.14223396138E+03  0.50166024854E+02  0.16585573716E+03  0.41800000000E+01 0. -1.
        -11    1    4    4    0    0 -0.94728154950E+02 -0.10205219767E+03 -0.66024345168E+02  0.15410155270E+03  0.00000000000E+00 0. -1.
         11    1    4    4    0    0  0.14665506668E+02 -0.62689070155E+02 -0.14615592986E+02  0.66019786134E+02  0.00000000000E+00 0.  1.
</event>
<event>
 8    1  0.3719512E-009  0.1087083E+03  0.7561462E-02  0.1262981E+00
         -4   -1    0    0    0  501 -0.00000000000E+00  0.00000000000E+00  0.34102670095E+03  0.34102670095E+03  0.00000000000E+00 0.  1.
          4   -1    0    0  501    0  0.00000000000E+00 -0.00000000000E+00 -0.40723876707E+02  0.40723876707E+02  0.00000000000E+00 0. -1.
         25    2    1    2    0    0 -0.10993042623E+02  0.46710487920E+02  0.15692986683E+03  0.20634717777E+03  0.12509779376E+03 0.  0.
         23    2    1    2    0    0  0.10993042623E+02 -0.46710487920E+02  0.14337295741E+03  0.17540339988E+03  0.88925986673E+02 0.  0.
          5    1    3    3  502    0 -0.58731583721E+02  0.20678727894E+02  0.32215577324E+02  0.70230510008E+02  0.41800000000E+01 0. -1.
         -5    1    3    3    0  502  0.47738541098E+02  0.26031760026E+02  0.12471428951E+03  0.13611666777E+03  0.41800000000E+01 0. -1.
        -11    1    4    4    0    0 -0.16516290301E+02 -0.65246286281E+02  0.86996806674E+02  0.10999231832E+03  0.00000000000E+00 0.  1.
         11    1    4    4    0    0  0.27509332924E+02  0.18535798361E+02  0.56376150738E+02  0.65411081560E+02  0.00000000000E+00 0. -1.
</event>
<event>
 8    1  0.3719512E-009  0.1024902E+03  0.7561462E-02  0.1275145E+00
          1   -1    0    0  501    0  0.00000000000E+00  0.00000000000E+00  0.20775451378E+03  0.20775451378E+03  0.00000000000E+00 0. -1.
         -1   -1    0    0    0  501 -0.00000000000E+00 -0.00000000000E+00 -0.61998366415E+02  0.61998366415E+02  0.00000000000E+00 0.  1.
         25    2    1    2    0    0 -0.20927422137E+02  0.85213833416E+01  0.10896586485E+03  0.16742652950E+03  0.12509001601E+03 0.  0.
         23    2    1    2    0    0  0.20927422137E+02 -0.85213833416E+01  0.36790282518E+02  0.10232635070E+03  0.92771688502E+02 0.  0.
          5    1    3    3  502    0 -0.42540386354E+02 -0.40817171270E+02  0.18277555707E+02  0.61864912383E+02  0.41800000000E+01 0.  1.
         -5    1    3    3    0  502  0.21612964216E+02  0.49338554611E+02  0.90688309138E+02  0.10556161711E+03  0.41800000000E+01 0.  1.
        -11    1    4    4    0    0  0.54662488558E+02  0.62587845364E+01  0.80424119758E+01  0.55604320243E+02  0.00000000000E+00 0.  1.
         11    1    4    4    0    0 -0.33735066421E+02 -0.14780167878E+02  0.28747870542E+02  0.46722030453E+02  0.00000000000E+00 0. -1.
</event>
<event>
 8    1  0.3719512E-009  0.1091853E+03  0.7561462E-02  0.1262086E+00
         -2   -1    0    0    0  501 -0.00000000000E+00  0.00000000000E+00  0.18087574136E+03  0.18087574136E+03  0.00000000000E+00 0.  1.
          2   -1    0    0  501    0  0.00000000000E+00 -0.00000000000E+00 -0.71556224895E+02  0.71556224895E+02  0.00000000000E+00 0. -1.
         25    2    1    2    0    0 -0.26999393246E+02 -0.20759018373E+02  0.67185865652E+02  0.14602308481E+03  0.12509555017E+03 0.  0.
         23    2    1    2    0    0  0.26999393246E+02  0.20759018373E+02  0.42133650811E+02  0.10640888145E+03  0.91584395181E+02 0.  0.
          5    1    3    3  502    0 -0.37638679036E+02  0.44105983725E+02  0.10394443156E+02  0.59055269100E+02  0.41800000000E+01 0.  1.
         -5    1    3    3    0  502  0.10639285790E+02 -0.64865002099E+02  0.56791422496E+02  0.86967815705E+02  0.41800000000E+01 0.  1.
        -11    1    4    4    0    0 -0.29832039222E+02  0.22733844178E+02  0.35191742389E+01  0.37671777534E+02  0.00000000000E+00 0.  1.
         11    1    4    4    0    0  0.56831432468E+02 -0.19748258049E+01  0.38614476572E+02  0.68737103912E+02  0.00000000000E+00 0. -1.
</event>
<event>
 8    1  0.3719512E-009  0.1732202E+03  0.7561462E-02  0.1174531E+00
          1   -1    0    0  501    0  0.00000000000E+00  0.00000000000E+00  0.35085731953E+03  0.35085731953E+03  0.00000000000E+00 0.  1.
         -1   -1    0    0    0  501 -0.00000000000E+00 -0.00000000000E+00 -0.11998409772E+03  0.11998409772E+03  0.00000000000E+00 0. -1.
         25    2    1    2    0    0  0.14178801207E+03  0.62391789911E+02  0.36614742361E+02  0.20243730249E+03  0.12507456283E+03 0.  0.
         23    2    1    2    0    0 -0.14178801207E+03 -0.62391789911E+02  0.19425847945E+03  0.26840411476E+03  0.10152751433E+03 0.  0.
          5    1    3    3  502    0  0.69655578906E+02 -0.11460099956E+01 -0.39104908288E+02  0.79999245396E+02  0.41800000000E+01 0.  1.
         -5    1    3    3    0  502  0.72132433164E+02  0.63537799907E+02  0.75719650649E+02  0.12243805710E+03  0.41800000000E+01 0.  1.
        -11    1    4    4    0    0 -0.76264675067E+02  0.16347900498E+02  0.11467347717E+03  0.13868511413E+03  0.00000000000E+00 0.  1.
         11    1    4    4    0    0 -0.65523337004E+02 -0.78739690409E+02  0.79585002281E+02  0.12971900064E+03  0.00000000000E+00 0. -1.
</event>
<event>
 8    1  0.3719512E-009  0.1110162E+03  0.7561462E-02  0.1258700E+00
          2   -1    0    0  501    0  0.00000000000E+00  0.00000000000E+00  0.69831726249E+03  0.69831726249E+03  0.00000000000E+00 0. -1.
         -2   -1    0    0    0  501 -0.00000000000E+00 -0.00000000000E+00 -0.20324030951E+02  0.20324030951E+02  0.00000000000E+00 0.  1.
         25    2    1    2    0    0  0.31864033274E+02 -0.19079396408E+02  0.48407358257E+03  0.50135240545E+03  0.12509061165E+03 0.  0.
         23    2    1    2    0    0 -0.31864033274E+02  0.19079396408E+02  0.19391964897E+03  0.21728888800E+03  0.90720949102E+02 0.  0.
          5    1    3    3  502    0  0.64486847860E+02  0.25520120032E+02  0.19481952803E+03  0.20683798243E+03  0.41800000000E+01 0.  1.
         -5    1    3    3    0  502 -0.32622814586E+02 -0.44599516440E+02  0.28925405454E+03  0.29451442302E+03  0.41800000000E+01 0.  1.
        -11    1    4    4    0    0 -0.63073325900E+02  0.62044136928E+01  0.13991410853E+03  0.15359914373E+03  0.00000000000E+00 0. -1.
         11    1    4    4    0    0  0.31209292626E+02  0.12874982715E+02  0.54005540439E+02  0.63689744263E+02  0.00000000000E+00 0.  1.
</event>
<event>
 8    1  0.3719512E-009  0.1209892E+03  0.7561462E-02  0.1241474E+00
          2   -1    0    0  501    0  0.00000000000E+00  0.00000000000E+00  0.25495893917E+03  0.25495893917E+03  0.00000000000E+00 0. -1.
         -2   -1    0    0    0  501 -0.00000000000E+00 -0.00000000000E+00 -0.12402498260E+03  0.12402498260E+03  0.00000000000E+00 0.  1.
         25    2    1    2    0    0 -0.52197361219E+02  0.79465827052E+02 -0.36538758756E+02  0.16131176577E+03  0.12508805977E+03 0.  0.
         23    2    1    2    0    0  0.52197361219E+02 -0.79465827052E+02  0.16747271532E+03  0.21767215600E+03  0.10146267755E+03 0.  0.
          5    1    3    3  502    0  0.33595816536E+02  0.15252184278E+02  0.17696840092E+02  0.41133423918E+02  0.41800000000E+01 0. -1.
         -5    1    3    3    0  502 -0.85793177756E+02  0.64213642773E+02 -0.54235598848E+02  0.12017834185E+03  0.41800000000E+01 0. -1.
        -11    1    4    4    0    0  0.47001402144E+02 -0.53903981645E+02  0.29679181222E+02  0.77431420229E+02  0.00000000000E+00 0.  1.
         11    1    4    4    0    0  0.51959590753E+01 -0.25561845406E+02  0.13779353410E+03  0.14024073577E+03  0.00000000000E+00 0. -1.
</event>
<event>
 8    1  0.3719512E-009  0.2088260E+03  0.7561462E-02  0.1142499E+00
          1   -1    0    0  501    0  0.00000000000E+00  0.00000000000E+00  0.73208995448E+03  0.73208995448E+03  0.00000000000E+00 0. -1.
         -1   -1    0    0    0  501 -0.00000000000E+00 -0.00000000000E+00 -0.62803457788E+02  0.62803457788E+02  0.00000000000E+00 0.  1.
         25    2    1    2    0    0 -0.89065673153E+02  0.15418607700E+03  0.43720311992E+03  0.48836461024E+03  0.12508950391E+03 0.  0.
         23    2    1    2    0    0  0.89065673153E+02 -0.15418607700E+03  0.23208337677E+03  0.30652880203E+03  0.91603341788E+02 0.  0.
          5    1    3    3  502    0  0.17607074728E+02 -0.10815579482E+02  0.41880304632E+02  0.46887292053E+02  0.41800000000E+01 0.  1.
         -5    1    3    3    0  502 -0.10667274788E+03  0.16500165648E+03  0.39532281529E+03  0.44147731819E+03  0.41800000000E+01 0.  1.
        -11    1    4    4    0    0  0.42198384699E+01 -0.98425908355E+02  0.12111421397E+03  0.15612212943E+03  0.00000000000E+00 0. -1.
         11    1    4    4    0    0  0.84845834683E+02 -0.55760168646E+02  0.11096916280E+03  0.15040667260E+03  0.00000000000E+00 0.  1.
</event>
<event>
 8    1  0.3719512E-009  0.1374352E+03  0.7561462E-02  0.1216822E+00
         -1   -1    0    0    0  501 -0.00000000000E+00  0.00000000000E+00  0.21236548156E+02  0.21236548156E+02  0.00000000000E+00 0.  1.
          1   -1    0    0  501    0  0.00000000000E+00 -0.00000000000E+00 -0.14563360250E+04  0.14563360250E+04  0.00000000000E+00 0. -1.
         25    2    1    2    0    0 -0.10050992402E+03  0.66771690444E+02 -0.10306314459E+04  0.10451837915E+04  0.12508907663E+03 0.  0.
         23    2    1    2    0    0  0.10050992402E+03 -0.66771690444E+02 -0.40446803090E+03  0.43238878169E+03  0.93834785899E+02 0.  0.
          5    1    3    3  502    0 -0.21586170939E+02  0.24567730302E+02 -0.74722178244E+03  0.74794879551E+03  0.41800000000E+01 0.  1.
         -5    1    3    3    0  502 -0.78923753078E+02  0.42203960142E+02 -0.28340966350E+03  0.29723499595E+03  0.41800000000E+01 0.  1.
        -11    1    4    4    0    0  0.89149772221E+02 -0.47780683957E+01 -0.25496795037E+03  0.27014656678E+03  0.00000000000E+00 0.  1.
         11    1    4    4    0    0  0.11360151797E+02 -0.61993622048E+02 -0.14950008052E+03  0.16224221491E+03  0.00000000000E+00 0. -1.
</event>
<event>
 8    1  0.3719512E-009  0.1901324E+03  0.7561462E-02  0.1158342E+00
          2   -1    0    0  501    0  0.00000000000E+00  0.00000000000E+00  0.53424738812E+03  0.53424738812E+03  0.00000000000E+00 0. -1.
         -2   -1    0    0    0  501 -0.00000000000E+00 -0.00000000000E+00 -0.78723692958E+02  0.78723692958E+02  0.00000000000E+00 0.  1.
         25    2    1    2    0    0  0.17282562085E+03  0.12087795390E+02  0.20760906720E+03  0.29793194599E+03  0.12508840729E+03 0.  0.
         23    2    1    2    0    0 -0.17282562085E+03 -0.12087795390E+02  0.24791462797E+03  0.31503913509E+03  0.88165661436E+02 0.  0.
          5    1    3    3  502    0  0.75879216584E+02 -0.49980202998E+02  0.13141935122E+03  0.15982551260E+03  0.41800000000E+01 0. -1.
         -5    1    3    3    0  502  0.96946404269E+02  0.62067998388E+02  0.76189715975E+02  0.13810643339E+03  0.41800000000E+01 0. -1.
        -11    1    4    4    0    0 -0.11422005824E+03 -0.16229038519E+02  0.22329626583E+03  0.25133807059E+03  0.00000000000E+00 0.  1.
         11    1    4    4    0    0 -0.58605562612E+02  0.41412431297E+01  0.24618362140E+02  0.63701064498E+02  0.00000000000E+00 0. -1.
</event>
<event>
 8    1  0.3719512E-009  0.1988023E+03  0.7561462E-02  0.1150753E+00
         -2   -1    0    0    0  501 -0.00000000000E+00  0.00000000000E+00  0.43043343513E+02  0.43043343513E+02  0.00000000000E+00 0.  1.
          2   -1    0    0  501    0  0.00000000000E+00 -0.00000000000E+00 -0.14314811958E+04  0.14314811958E+04  0.00000000000E+00 0. -1.
         25    2    1    2    0    0 -0.60287104753E+02 -0.17669483494E+03 -0.35311223211E+03  0.41855900117E+03  0.12509112399E+03 0.  0.
         23    2    1    2    0    0  0.60287104753E+02  0.17669483494E+03 -0.10353256202E+04  0.10559655381E+04  0.91150854396E+02 0.  0.
          5    1    3    3  502    0 -0.62391050410E+02 -0.17591180674E+03 -0.23399443812E+03  0.29934674942E+03  0.41800000000E+01 0. -1.
         -5    1    3    3    0  502  0.21039456570E+01 -0.78302819917E+00 -0.11911779399E+03  0.11921225174E+03  0.41800000000E+01 0. -1.
        -11    1    4    4    0    0  0.76523544365E+02  0.90784437832E+02 -0.53050899305E+03  0.54363357025E+03  0.00000000000E+00 0. -1.
         11    1    4    4    0    0 -0.16236439613E+02  0.85910397106E+02 -0.50481662710E+03  0.51233196787E+03  0.00000000000E+00 0.  1.
</event>
<event>
 8    1  0.3719512E-009  0.1605579E+03  0.7561462E-02  0.1188068E+00
         -2   -1    0    0    0  501 -0.00000000000E+00  0.00000000000E+00  0.72594812865E+02  0.72594812865E+02  0.00000000000E+00 0.  1.
          2   -1    0    0  501    0  0.00000000000E+00 -0.00000000000E+00 -0.60313248764E+03  0.60313248764E+03  0.00000000000E+00 0. -1.
         25    2    1    2    0    0 -0.99361987215E+02 -0.74282511103E+02 -0.69434155675E+02  0.18936437104E+03  0.12508823721E+03 0.  0.
         23    2    1    2    0    0  0.99361987215E+02  0.74282511103E+02 -0.46110351910E+03  0.48636292946E+03  0.92421576847E+02 0.  0.
          5    1    3    3  502    0 -0.80648518355E+02 -0.10550366982E+03 -0.74582238438E+02  0.15236531938E+03  0.41800000000E+01 0. -1.
         -5    1    3    3    0  502 -0.18713468859E+02  0.31221158715E+02  0.51480827628E+01  0.36999051669E+02  0.41800000000E+01 0. -1.
        -11    1    4    4    0    0  0.82918281442E+02  0.79791722484E+01 -0.20432738144E+03  0.22065535886E+03  0.00000000000E+00 0.  1.
         11    1    4    4    0    0  0.16443705773E+02  0.66303338855E+02 -0.25677613765E+03  0.26570757059E+03  0.00000000000E+00 0. -1.
</event>
<event>
 8    1  0.3719512E-009  0.1056637E+03  0.7561462E-02  0.1268817E+00
         -1   -1    0    0    0  501 -0.00000000000E+00  0.00000000000E+00  0.33445809421E+03  0.33445809421E+03  0.00000000000E+00 0.  1.
          1   -1    0    0  501    0  0.00000000000E+00 -0.00000000000E+00 -0.45969660321E+02  0.45969660321E+02  0.00000000000E+00 0. -1.
         25    2    1    2    0    0  0.57998206614E+02  0.20133198732E+02  0.17745049627E+03  0.22562380797E+03  0.12509311105E+03 0.  0.
         23    2    1    2    0    0 -0.57998206614E+02 -0.20133198732E+02  0.11103793761E+03  0.15480394656E+03  0.88688785196E+02 0.  0.
          5    1    3    3  502    0 -0.28987115804E+02 -0.26874175065E+02  0.60933497482E+02  0.72751891270E+02  0.41800000000E+01 0. -1.
         -5    1    3    3    0  502  0.86985322418E+02  0.47007373797E+02  0.11651699879E+03  0.15287191670E+03  0.41800000000E+01 0. -1.
        -11    1    4    4    0    0 -0.49247316817E+02  0.15104532750E+01  0.12005908891E+03  0.12977582407E+03  0.00000000000E+00 0.  1.
         11    1    4    4    0    0 -0.87508897970E+01 -0.21643652007E+02 -0.90211513020E+01  0.25028122487E+02  0.00000000000E+00 0. -1.
</event>
<event>
 8    1  0.3719512E-009  0.1568841E+03  0.7561462E-02  0.1192260E+00
         -2   -1    0    0    0  501 -0.00000000000E+00  0.00000000000E+00  0.33490051503E+02  0.33490051503E+02  0.00000000000E+00 0.  1.
          2   -1    0    0  501    0  0.00000000000E+00 -0.00000000000E+00 -0.94101295997E+03  0.94101295997E+03  0.00000000000E+00 0. -1.
         25    2    1    2    0    0  0.13259909037E+03  0.34630116061E+02 -0.40249195655E+03  0.44320258813E+03  0.12508795041E+03 0.  0.
         23    2    1    2    0    0 -0.13259909037E+03 -0.34630116061E+02 -0.50503095192E+03  0.53130042334E+03  0.91880975934E+02 0.  0.
          5    1    3    3  502    0  0.87262664188E+02 -0.73650554403E+01 -0.93943240422E+02  0.12849833238E+03  0.41800000000E+01 0.  1.
         -5    1    3    3    0  502  0.45336426184E+02  0.41995171502E+02 -0.30854871613E+03  0.31470425576E+03  0.41800000000E+01 0.  1.
        -11    1    4    4    0    0 -0.66231816422E+02  0.28919046910E+02 -0.24923043024E+03  0.25949715247E+03  0.00000000000E+00 0. -1.
         11    1    4    4    0    0 -0.66367273950E+02 -0.63549162971E+02 -0.25580052168E+03  0.27180327088E+03  0.00000000000E+00 0.  1.
</event>
<event>
 8    1  0.3719512E-009  0.1787649E+03  0.7561462E-02  0.1169004E+00
          1   -1    0    0  501    0  0.00000000000E+00  0.00000000000E+00  0.13253744610E+03  0.13253744610E+03  0.00000000000E+00 0. -1.
         -1   -1    0    0    0  501 -0.00000000000E+00 -0.00000000000E+00 -0.30489908089E+03  0.30489908089E+03  0.00000000000E+00 0.  1.
         25    2    1    2    0    0 -0.86211237873E+02 -0.13901278456E+03 -0.13837710758E+03  0.24809789265E+03  0.12508960240E+03 0.  0.
         23    2    1    2    0    0  0.86211237873E+02  0.13901278456E+03 -0.33984527211E+02  0.18933863434E+03  0.89091181150E+02 0.  0.
          5    1    3    3  502    0 -0.59799106121E+02 -0.18947698280E+02 -0.10201144074E+03  0.11982802179E+03  0.41800000000E+01 0.  1.
         -5    1    3    3    0  502 -0.26412131752E+02 -0.12006508628E+03 -0.36365666837E+02  0.12826987086E+03  0.41800000000E+01 0.  1.
        -11    1    4    4    0    0  0.73134522673E+02  0.69391346100E+02 -0.55785686773E+02  0.11522091897E+03  0.00000000000E+00 0.  1.
         11    1    4    4    0    0  0.13076715200E+02  0.69621438460E+02  0.21801159562E+02  0.74117715372E+02  0.00000000000E+00 0. -1.
</event>
<event>
 8    1  0.3719512E-009  0.1015939E+03  0.7561462E-02  0.1276979E+00
          2   -1    0    0  501    0  0.00000000000E+00  0.00000000000E+00  0.10229661618E+03  0.10229661618E+03  0.00000000000E+00 0. -1.
         -2   -1    0    0    0  501 -0.00000000000E+00 -0.00000000000E+00 -0.18809827135E+03  0.18809827135E+03  0.00000000000E+00 0.  1.
         25    2    1    2    0    0  0.63032774870E+02 -0.54007149929E+02 -0.43733369608E+02  0.15636710372E+03  0.12509260793E+03 0.  0.
         23    2    1    2    0    0 -0.63032774870E+02  0.54007149929E+02 -0.42068285562E+02  0.13402778380E+03  0.96456224420E+02 0.  0.
          5    1    3    3  502    0  0.32701153722E+02 -0.26317675496E+02  0.43045673197E+02  0.60269294664E+02  0.41800000000E+01 0.  1.
         -5    1    3    3    0  502  0.30331621148E+02 -0.27689474433E+02 -0.86779042805E+02  0.96097809059E+02  0.41800000000E+01 0.  1.
        -11    1    4    4    0    0 -0.73361835038E+01  0.62894808494E+02 -0.44789724215E+02  0.77560917473E+02  0.00000000000E+00 0.  1.
         11    1    4    4    0    0 -0.55696591367E+02 -0.88876585656E+01  0.27214386528E+01  0.56466866329E+02  0.00000000000E+00 0. -1.
</event>
<event>
 8    1  0.3719512E-009  0.1186072E+03  0.7561462E-02  0.1245413E+00
          2   -1    0    0  501    0  0.00000000000E+00  0.00000000000E+00  0.12064867809E+04  0.12064867809E+04  0.00000000000E+00 0. -1.
         -2   -1    0    0    0  501 -0.00000000000E+00 -0.00000000000E+00 -0.17610332862E+02  0.17610332862E+02  0.00000000000E+00 0.  1.
         25    2    1    2    0    0 -0.91276186207E+02  0.63975718328E+01  0.79120433970E+03  0.80624079078E+03  0.12509050511E+03 0.  0.
         23    2    1    2    0    0  0.91276186207E+02 -0.63975718328E+01  0.39767210830E+03  0.41785632295E+03  0.89936254137E+02 0.  0.
          5    1    3    3  502    0 -0.11342044939E+03  0.40386850928E+01  0.75525821554E+03  0.76374927421E+03  0.41800000000E+01 0.  1.
         -5    1    3    3    0  502  0.22144263180E+02  0.23588867400E+01  0.35946124155E+02  0.42491516568E+02  0.41800000000E+01 0.  1.
        -11    1    4    4    0    0  0.39711304809E+02  0.18402381095E+02  0.54270225501E+02  0.69720102808E+02  0.00000000000E+00 0.  1.
         11    1    4    4    0    0  0.51564881398E+02 -0.24799952927E+02  0.34340188280E+03  0.34813622014E+03  0.00000000000E+00 0. -1.
</event>
<event>
 8    1  0.3719512E-009  0.2181993E+03  0.7561462E-02  0.1135233E+00
         -1   -1    0    0    0  501 -0.00000000000E+00  0.00000000000E+00  0.93279225750E+02  0.93279225750E+02  0.00000000000E+00 0.  1.
          1   -1    0    0  501    0  0.00000000000E+00 -0.00000000000E+00 -0.56342247889E+03  0.56342247889E+03  0.00000000000E+00 0. -1.
         25    2    1    2    0    0  0.15800244511E+03  0.12477332901E+03 -0.23270980700E+03  0.33216410797E+03  0.12508390808E+03 0.  0.
         23    2    1    2    0    0 -0.15800244511E+03 -0.12477332901E+03 -0.23743344614E+03  0.32453759667E+03  0.91743413989E+02 0.  0.
          5    1    3    3  502    0  0.13830297082E+03  0.14866814288E+03 -0.18261620674E+03  0.27312282917E+03  0.41800000000E+01 0.  1.
         -5    1    3    3    0  502  0.19699474287E+02 -0.23894813868E+02 -0.50093600254E+02  0.59041278809E+02  0.41800000000E+01 0.  1.
        -11    1    4    4    0    0 -0.12051067777E+03 -0.85506206914E+02 -0.10460556542E+03  0.18104269992E+03  0.00000000000E+00 0.  1.
         11    1    4    4    0    0 -0.37491767346E+02 -0.39267122096E+02 -0.13282788072E+03  0.14349489675E+03  0.00000000000E+00 0. -1.
</event>
<event>
 8    1  0.3719512E-009  0.1119377E+03  0.7561462E-02  0.1257023E+00
         -2   -1    0    0    0  501 -0.00000000000E+00  0.00000000000E+00  0.12766888283E+03  0.12766888283E+03  0.00000000000E+00 0.  1.
          2   -1    0    0  501    0  0.00000000000E+00 -0.00000000000E+00 -0.18994202261E+03  0.18994202261E+03  0.00000000000E+00 0. -1.
         25    2    1    2    0    0 -0.38467783444E+02 -0.43019327457E+02  0.60531234918E+02  0.15046993205E+03  0.12508691839E+03 0.  0.
         23    2    1    2    0    0  0.38467783444E+02  0.43019327457E+02 -0.12280437470E+03  0.16714097338E+03  0.97594864829E+02 0.  0.
          5    1    3    3  502    0 -0.75791544941E+02 -0.46304195532E+02  0.68124032936E+02  0.11201246838E+03  0.41800000000E+01 0. -1.
         -5    1    3    3    0  502  0.37323761497E+02  0.32848680746E+01 -0.75927980178E+01  0.38457463675E+02  0.41800000000E+01 0. -1.
        -11    1    4    4    0    0  0.52310753552E+02  0.57151653030E+02 -0.51229755529E+02  0.92882798369E+02  0.00000000000E+00 0.  1.
         11    1    4    4    0    0 -0.13842970108E+02 -0.14132325573E+02 -0.71574619168E+02  0.74258175015E+02  0.00000000000E+00 0. -1.
</event>
<event>
 8    1  0.3719512E-009  0.1173850E+03  0.7561462E-02  0.1247474E+00
         -2   -1    0    0    0  501 -0.00000000000E+00  0.00000000000E+00  0.11089386009E+02  0.11089386009E+02  0.00000000000E+00 0.  1.
          2   -1    0    0  501    0  0.00000000000E+00 -0.00000000000E+00 -0.14979689691E+04  0.14979689691E+04  0.00000000000E+00 0. -1.
         25    2    1    2    0    0 -0.69529002094E+02 -0.81719145382E+01 -0.84349845537E+03  0.85559216407E+03  0.12508894705E+03 0.  0.
         23    2    1    2    0    0  0.69529002094E+02  0.81719145382E+01 -0.64338112775E+03  0.65346619107E+03  0.90430774706E+02 0.  0.
          5    1    3    3  502    0 -0.88662234943E+02  0.15289837184E+02 -0.77933232551E+03  0.78451967280E+03  0.41800000000E+01 0. -1.
         -5    1    3    3    0  502  0.19133232849E+02 -0.23461751722E+02 -0.64166129867E+02  0.71072491269E+02  0.41800000000E+01 0. -1.
        -11    1    4    4    0    0  0.91387539267E+02  0.19285856150E+01 -0.53076178363E+03  0.53857541044E+03  0.00000000000E+00 0.  1.
         11    1    4    4    0    0 -0.21858537173E+02  0.62433289232E+01 -0.11261934412E+03  0.11489078063E+03  0.00000000000E+00 0. -1.
</event>
<event>
 8    1  0.3719512E-009  0.7858121E+02  0.7561462E-02  0.1333127E+00
          2   -1    0    0  501    0  0.00000000000E+00  0.00000000000E+00  0.29383453684E+03  0.29383453684E+03  0.00000000000E+00 0. -1.
         -2   -1    0    0    0  501 -0.00000000000E+00 -0.00000000000E+00 -0.39317884038E+02  0.39317884038E+02  0.00000000000E+00 0.  1.
         25    2    1    2    0    0 -0.62440086278E+01 -0.13813820813E+01  0.14016584176E+03  0.18797779184E+03  0.12509312998E+03 0.  0.
         23    2    1    2    0    0  0.62440086278E+01  0.13813820813E+01  0.11435081104E+03  0.14517462904E+03  0.89211372990E+02 0.  0.
          5    1    3    3  502    0 -0.46792048534E+02 -0.59471988909E+01  0.60602760508E+01  0.47739546777E+02  0.41800000000E+01 0. -1.
         -5    1    3    3    0  502  0.40548039906E+02  0.45658168096E+01  0.13410556571E+03  0.14023824506E+03  0.41800000000E+01 0. -1.
        -11    1    4    4    0    0 -0.20048104312E+02  0.25959789833E+02  0.10196672638E+03  0.10711232638E+03  0.00000000000E+00 0. -1.
         11    1    4    4    0    0  0.26292112940E+02 -0.24578407752E+02  0.12384084658E+02  0.38062302654E+02  0.00000000000E+00 0.  1.
</event>
<event>
 8    1  0.3719512E-009  0.1391422E+03  0.7561462E-02  0.1214488E+00
          1   -1    0    0  501    0  0.00000000000E+00  0.00000000000E+00  0.69441163503E+03  0.69441163503E+03  0.00000000000E+00 0. -1.
         -1   -1    0    0    0  501 -0.00000000000E+00 -0.00000000000E+00 -0.40273918709E+02  0.40273918709E+02  0.00000000000E+00 0.  1.
         25    2    1    2    0    0 -0.12238592054E+02  0.10978801664E+03  0.48434745292E+03  0.51229147596E+03  0.12508760711E+03 0.  0.
         23    2    1    2    0    0  0.12238592054E+02 -0.10978801664E+03  0.16979026340E+03  0.22239407778E+03  0.91799785149E+02 0.  0.
          5    1    3    3  502    0  0.40562561179E+02  0.10418981965E+03  0.36087063422E+03  0.37781731953E+03  0.41800000000E+01 0.  1.
         -5    1    3    3    0  502 -0.52801153233E+02  0.55981969917E+01  0.12347681869E+03  0.13447415643E+03  0.41800000000E+01 0.  1.
        -11    1    4    4    0    0 -0.11935349669E+01 -0.84460656962E+02  0.47749322579E+02  0.97031051251E+02  0.00000000000E+00 0.  1.
         11    1    4    4    0    0  0.13432127021E+02 -0.25327359681E+02  0.12204094082E+03  0.12536302653E+03  0.00000000000E+00 0. -1.
</event>
<event>
 8    1  0.3719512E-009  0.6790813E+02  0.7561462E-02  0.1367355E+00
         -2   -1    0    0    0  501 -0.00000000000E+00  0.00000000000E+00  0.13234026211E+03  0.13234026211E+03  0.00000000000E+00 0.  1.
          2   -1    0    0  501    0  0.00000000000E+00 -0.00000000000E+00 -0.10123323774E+03  0.10123323774E+03  0.00000000000E+00 0. -1.
         25    2    1    2    0    0 -0.21644600349E+02  0.30378999437E+02  0.18548450992E+00  0.13053786078E+03  0.12509486945E+03 0.  0.
         23    2    1    2    0    0  0.21644600349E+02 -0.30378999437E+02  0.30921539862E+02  0.10303563907E+03  0.90933101560E+02 0.  0.
          5    1    3    3  502    0 -0.15453547080E+02  0.53245171580E+02  0.50282695772E+02  0.74964540338E+02  0.41800000000E+01 0. -1.
         -5    1    3    3    0  502 -0.61910532693E+01 -0.22866172143E+02 -0.50097211262E+02  0.55573320445E+02  0.41800000000E+01 0. -1.
        -11    1    4    4    0    0  0.16493152210E+02  0.73680629725E+01 -0.27731452752E+02  0.33096010236E+02  0.00000000000E+00 0. -1.
         11    1    4    4    0    0  0.51514481392E+01 -0.37747062410E+02  0.58652992613E+02  0.69939628831E+02  0.00000000000E+00 0.  1.
</event>
<event>
 8    1  0.3719512E-009  0.1313408E+03  0.7561462E-02  0.1225480E+00
         -2   -1    0    0    0  501 -0.00000000000E+00  0.00000000000E+00  0.47435819026E+02  0.47435819026E+02  0.00000000000E+00 0.  1.
          2   -1    0    0  501    0  0.00000000000E+00 -0.00000000000E+00 -0.64366970265E+03  0.64366970265E+03  0.00000000000E+00 0. -1.
         25    2    1    2    0    0  0.99425793351E+02  0.57011877254E+02 -0.16903199363E+03  0.23949015964E+03  0.12509148317E+03 0.  0.
         23    2    1    2    0    0 -0.99425793351E+02 -0.57011877254E+02 -0.42720188999E+03  0.45161536204E+03  0.91209308088E+02 0.  0.
          5    1    3    3  502    0  0.82279838035E+02  0.30584762113E+01 -0.27352835030E+02  0.86861821348E+02  0.41800000000E+01 0. -1.
         -5    1    3    3    0  502  0.17145955316E+02  0.53953401043E+02 -0.14167915860E+03  0.15262833829E+03  0.41800000000E+01 0. -1.
        -11    1    4    4    0    0 -0.40871164232E+02 -0.49878361860E+02 -0.34175285712E+03  0.34778343606E+03  0.00000000000E+00 0. -1.
         11    1    4    4    0    0 -0.58554629119E+02 -0.71335153937E+01 -0.85449032875E+02  0.10383192598E+03  0.00000000000E+00 0.  1.
</event>
<event>
 8    1  0.3719512E-009  0.2087234E+03  0.7561462E-02  0.1142581E+00
          1   -1    0    0  501    0  0.00000000000E+00  0.00000000000E+00  0.93254847481E+03  0.93254847481E+03  0.00000000000E+00 0. -1.
         -1   -1    0    0    0  501 -0.00000000000E+00 -0.00000000000E+00 -0.63652208848E+02  0.63652208848E+02  0.00000000000E+00 0.  1.
         25    2    1    2    0    0  0.17219733694E+02 -0.20542242330E+03  0.30441087616E+03  0.38833991368E+03  0.12508803222E+03 0.  0.
         23    2    1    2    0    0 -0.17219733694E+02  0.20542242330E+03  0.56448538980E+03  0.60786076998E+03  0.91411537359E+02 0.  0.
          5    1    3    3  502    0 -0.11926196007E+02 -0.12311173116E+03  0.79643063375E+02  0.14717072550E+03  0.41800000000E+01 0.  1.
         -5    1    3    3    0  502  0.29145929701E+02 -0.82310692138E+02  0.22476781279E+03  0.24116918817E+03  0.41800000000E+01 0.  1.
        -11    1    4    4    0    0 -0.44286937666E+00  0.39219958061E+02  0.23708020809E+03  0.24030278049E+03  0.00000000000E+00 0. -1.
         11    1    4    4    0    0 -0.16776864318E+02  0.16620246524E+03  0.32740518171E+03  0.36755798949E+03  0.00000000000E+00 0.  1.
</event>
<event>
 8    1  0.3719512E-009  0.1199555E+03  0.7561462E-02  0.1243170E+00
         -1   -1    0    0    0  501 -0.00000000000E+00  0.00000000000E+00  0.54089448415E+02  0.54089448415E+02  0.00000000000E+00 0.  1.
          1   -1    0    0  501    0  0.00000000000E+00 -0.00000000000E+00 -0.27116904710E+03  0.27116904710E+03  0.00000000000E+00 0. -1.
         25    2    1    2    0    0  0.10930964222E+02 -0.48474963777E+02 -0.10447255366E+03  0.17038541822E+03  0.12508944072E+03 0.  0.
         23    2    1    2    0    0 -0.10930964222E+02  0.48474963777E+02 -0.11260704503E+03  0.15487307730E+03  0.94000081867E+02 0.  0.
          5    1    3    3  502    0 -0.51100614048E+02  0.64024394852E+01 -0.40499837665E+02  0.65650386430E+02  0.41800000000E+01 0.  1.
         -5    1    3    3    0  502  0.62031578270E+02 -0.54877403262E+02 -0.63972715996E+02  0.10473503179E+03  0.41800000000E+01 0.  1.
        -11    1    4    4    0    0 -0.51318448594E+02  0.16835664716E+02 -0.47066443516E+02  0.71639883289E+02  0.00000000000E+00 0.  1.
         11    1    4    4    0    0  0.40387484372E+02  0.31639299062E+02 -0.65540601512E+02  0.83233194012E+02  0.00000000000E+00 0. -1.
</event>
<event>
 8    1  0.3719512E-009  0.9174943E+02  0.7561462E-02  0.1298670E+00
         -3   -1    0    0    0  501 -0.00000000000E+00  0.00000000000E+00  0.26081096521E+02  0.26081096521E+02  0.00000000000E+00 0.  1.
          3   -1    0    0  501    0  0.00000000000E+00 -0.00000000000E+00 -0.52473336223E+03  0.52473336223E+03  0.00000000000E+00 0. -1.
         25    2    1    2    0    0  0.17068229056E+02 -0.18679602593E+02 -0.35895351952E+03  0.38096703318E+03  0.12509196296E+03 0.  0.
         23    2    1    2    0    0 -0.17068229056E+02  0.18679602593E+02 -0.13969874619E+03  0.16984742558E+03  0.93231734354E+02 0.  0.
          5    1    3    3  502    0 -0.52087653197E+02  0.69384371093E+01 -0.17396266546E+03  0.18177388949E+03  0.41800000000E+01 0.  1.
         -5    1    3    3    0  502  0.69155882253E+02 -0.25618039702E+02 -0.18499085406E+03  0.19919314369E+03  0.41800000000E+01 0.  1.
        -11    1    4    4    0    0  0.16407136424E+02  0.16659211413E+02 -0.13376133271E+03  0.13578960777E+03  0.00000000000E+00 0. -1.
         11    1    4    4    0    0 -0.33475365480E+02  0.20203911800E+01 -0.59374134808E+01  0.34057817802E+02  0.00000000000E+00 0.  1.
</event>
<event>
 8    1  0.3719512E-009  0.6302146E+02  0.7561462E-02  0.1385572E+00
          1   -1    0    0  501    0  0.00000000000E+00  0.00000000000E+00  0.78136039749E+03  0.78136039749E+03  0.00000000000E+00 0. -1.
         -1   -1    0    0    0  501 -0.00000000000E+00 -0.00000000000E+00 -0.16833614580E+02  0.16833614580E+02  0.00000000000E+00 0.  1.
         25    2    1    2    0    0 -0.10769137928E+02 -0.89429056836E+01  0.53563800671E+03  0.55023134179E+03  0.12510197984E+03 0.  0.
         23    2    1    2    0    0  0.10769137928E+02  0.89429056836E+01  0.22888877620E+03  0.24796267028E+03  0.94336970954E+02 0.  0.
          5    1    3    3  502    0 -0.75469050234E+01  0.14144147120E+02  0.27224062538E+01  0.16789775728E+02  0.41800000000E+01 0.  1.
         -5    1    3    3    0  502 -0.32222329047E+01 -0.23087052804E+02  0.53291560045E+03  0.53344156606E+03  0.41800000000E+01 0.  1.
        -11    1    4    4    0    0 -0.34808530786E+02  0.18207569775E+02  0.52648775636E+02  0.65688986813E+02  0.00000000000E+00 0.  1.
         11    1    4    4    0    0  0.45577668714E+02 -0.92646640914E+01  0.17624000056E+03  0.18227368347E+03  0.00000000000E+00 0. -1.
</event>
<event>
 8    1  0.3719512E-009  0.9462918E+02  0.7561462E-02  0.1292013E+00
         -1   -1    0    0    0  501 -0.00000000000E+00  0.00000000000E+00  0.11140106473E+03  0.11140106473E+03  0.00000000000E+00 0.  1.
          1   -1    0    0  501    0  0.00000000000E+00 -0.00000000000E+00 -0.12596561311E+03  0.12596561311E+03  0.00000000000E+00 0. -1.
         25    2    1    2    0    0  0.18839046948E+02 -0.40978318700E+02  0.64640694216E+01  0.13313136751E+03  0.12509214415E+03 0.  0.
         23    2    1    2    0    0 -0.18839046948E+02  0.40978318700E+02 -0.21028617797E+02  0.10423531033E+03  0.91589654765E+02 0.  0.
          5    1    3    3  502    0 -0.36060719310E+02  0.26226926909E+02  0.11060517164E+02  0.46130625534E+02  0.41800000000E+01 0. -1.
         -5    1    3    3    0  502  0.54899766258E+02 -0.67205245609E+02 -0.45964477425E+01  0.87000741976E+02  0.41800000000E+01 0. -1.
        -11    1    4    4    0    0 -0.29047559370E+02  0.23544104193E+02  0.30905353571E+02  0.48510065214E+02  0.00000000000E+00 0.  1.
         11    1    4    4    0    0  0.10208512422E+02  0.17434214507E+02 -0.51933971368E+02  0.55725245118E+02  0.00000000000E+00 0. -1.
</event>
<event>
 8    1  0.3719512E-009  0.7110821E+02  0.7561462E-02  0.1356365E+00
         -2   -1    0    0    0  501 -0.00000000000E+00  0.00000000000E+00  0.67030701780E+02  0.67030701780E+02  0.00000000000E+00 0. -1.
          2   -1    0    0  501    0  0.00000000000E+00 -0.00000000000E+00 -0.20161421591E+03  0.20161421591E+03  0.00000000000E+00 0.  1.
         25    2    1    2    0    0  0.75581327860E+01  0.66103041277E+01 -0.11853076419E+03  0.17261947781E+03  0.12508845097E+03 0.  0.
         23    2    1    2    0    0 -0.75581327860E+01 -0.66103041277E+01 -0.16052749939E+02  0.96025439884E+02  0.94140176505E+02 0.  0.
          5    1    3    3  502    0  0.38547077224E+02  0.41266382190E+02 -0.14281472347E+02  0.58397125905E+02  0.41800000000E+01 0.  1.
         -5    1    3    3    0  502 -0.30988944438E+02 -0.34656078062E+02 -0.10424929185E+03  0.11422235190E+03  0.41800000000E+01 0.  1.
        -11    1    4    4    0    0  0.36423013843E+01  0.14535900576E+02 -0.51288232655E+02  0.53432589061E+02  0.00000000000E+00 0.  1.
         11    1    4    4    0    0 -0.11200434170E+02 -0.21146204704E+02  0.35235482716E+02  0.42592850823E+02  0.00000000000E+00 0. -1.
</event>
<event>
 8    1  0.3719512E-009  0.9394136E+02  0.7561462E-02  0.1293578E+00
          1   -1    0    0  501    0  0.00000000000E+00  0.00000000000E+00  0.10433583065E+03  0.10433583065E+03  0.00000000000E+00 0. -1.
         -1   -1    0    0    0  501 -0.00000000000E+00 -0.00000000000E+00 -0.13794848470E+03  0.13794848470E+03  0.00000000000E+00 0.  1.
         25    2    1    2    0    0 -0.33831974337E+02 -0.10582264964E+02 -0.57320851426E+02  0.14208737090E+03  0.12508618686E+03 0.  0.
         23    2    1    2    0    0  0.33831974337E+02  0.10582264964E+02  0.23708197374E+02  0.10019694444E+03  0.90668419162E+02 0.  0.
          5    1    3    3  502    0 -0.45726717606E+02 -0.38808783566E+02  0.16255935153E+02  0.62279870044E+02  0.41800000000E+01 0. -1.
         -5    1    3    3    0  502  0.11894743270E+02  0.28226518602E+02 -0.73576786580E+02  0.79807500858E+02  0.41800000000E+01 0. -1.
        -11    1    4    4    0    0  0.63565177648E+02  0.18265866366E+02  0.20888624236E+02  0.69357828008E+02  0.00000000000E+00 0.  1.
         11    1    4    4    0    0 -0.29733203312E+02 -0.76836014022E+01  0.28195731376E+01  0.30839116433E+02  0.00000000000E+00 0. -1.
</event>
<event>
 8    1  0.3719512E-009  0.1548251E+03  0.7561462E-02  0.1194666E+00
         -2   -1    0    0    0  501 -0.00000000000E+00  0.00000000000E+00  0.37720594061E+03  0.37720594061E+03  0.00000000000E+00 0.  1.
          2   -1    0    0  501    0  0.00000000000E+00 -0.00000000000E+00 -0.86575323701E+02  0.86575323701E+02  0.00000000000E+00 0. -1.
         25    2    1    2    0    0  0.13711610091E+03  0.53703837741E+01  0.20887183469E+03  0.27947221334E+03  0.12509040153E+03 0.  0.
         23    2    1    2    0    0 -0.13711610091E+03 -0.53703837741E+01  0.81758782218E+02  0.18430905097E+03  0.91954671708E+02 0.  0.
          5    1    3    3  502    0  0.14973930132E+03 -0.65882988112E+01  0.12954066365E+03  0.19815024598E+03  0.41800000000E+01 0.  1.
         -5    1    3    3    0  502 -0.12623200415E+02  0.11958682585E+02  0.79331171042E+02  0.81321967369E+02  0.41800000000E+01 0.  1.
        -11    1    4    4    0    0 -0.70386783288E+01  0.84693289278E+01  0.47951029066E+02  0.49199326353E+02  0.00000000000E+00 0.  1.
         11    1    4    4    0    0 -0.13007742258E+03 -0.13839712702E+02  0.33807753152E+02  0.13510972461E+03  0.00000000000E+00 0. -1.
</event>
<event>
 8    1  0.3719512E-009  0.1271915E+03  0.7561462E-02  0.1231683E+00
          2   -1    0    0  501    0  0.00000000000E+00  0.00000000000E+00  0.10921616821E+04  0.10921616821E+04  0.00000000000E+00 0. -1.
         -2   -1    0    0    0  501 -0.00000000000E+00 -0.00000000000E+00 -0.17232095773E+02  0.17232095773E+02  0.00000000000E+00 0.  1.
         25    2    1    2    0    0  0.81192832284E+02  0.19005423162E+02  0.54328135315E+03  0.56369693342E+03  0.12508445925E+03 0.  0.
         23    2    1    2    0    0 -0.81192832284E+02 -0.19005423162E+02  0.53164823314E+03  0.54569684441E+03  0.90452861078E+02 0.  0.
          5    1    3    3  502    0 -0.26343621947E+02  0.24521153161E+02  0.21908546897E+03  0.22206122688E+03  0.41800000000E+01 0. -1.
         -5    1    3    3    0  502  0.10753645423E+03 -0.55157299986E+01  0.32419588418E+03  0.34163570654E+03  0.41800000000E+01 0. -1.
        -11    1    4    4    0    0  0.11727592629E+02  0.73077127265E+01  0.16259239704E+02  0.21337806118E+02  0.00000000000E+00 0.  1.
         11    1    4    4    0    0 -0.92920424913E+02 -0.26313135889E+02  0.51538899344E+03  0.52435903830E+03  0.00000000000E+00 0. -1.
</event>
<event>
 8    1  0.3719512E-009  0.1444433E+03  0.7561462E-02  0.1207472E+00
         -2   -1    0    0    0  501 -0.00000000000E+00  0.00000000000E+00  0.10791562609E+03  0.10791562609E+03  0.00000000000E+00 0. -1.
          2   -1    0    0  501    0  0.00000000000E+00 -0.00000000000E+00 -0.23945319978E+03  0.23945319978E+03  0.00000000000E+00 0.  1.
         25    2    1    2    0    0  0.40364983523E+02 -0.94897412288E+02 -0.13219377418E+03  0.20918026045E+03  0.12508531760E+03 0.  0.
         23    2    1    2    0    0 -0.40364983523E+02  0.94897412288E+02  0.65620049198E+00  0.13818856542E+03  0.91982597592E+02 0.  0.
          5    1    3    3  502    0  0.61920706388E+02 -0.11505401707E+03 -0.11825339148E+03  0.17627517613E+03  0.41800000000E+01 0. -1.
         -5    1    3    3    0  502 -0.21555722865E+02  0.20156604782E+02 -0.13940382696E+02  0.32905084323E+02  0.41800000000E+01 0. -1.
        -11    1    4    4    0    0  0.19359082381E+02  0.50061613779E+02 -0.25017000729E+02  0.59218152371E+02  0.00000000000E+00 0.  1.
         11    1    4    4    0    0 -0.59724065904E+02  0.44835798509E+02  0.25673201221E+02  0.78970413048E+02  0.00000000000E+00 0. -1.
</event>
<event>
 8    1  0.3719512E-009  0.1972014E+03  0.7561462E-02  0.1152122E+00
         -1   -1    0    0    0  501 -0.00000000000E+00  0.00000000000E+00  0.85164351829E+02  0.85164351829E+02  0.00000000000E+00 0.  1.
          1   -1    0    0  501    0  0.00000000000E+00 -0.00000000000E+00 -0.54839835145E+03  0.54839835145E+03  0.00000000000E+00 0. -1.
         25    2    1    2    0    0  0.13363492547E+03 -0.10598508913E+03 -0.12929900877E+03  0.24791316777E+03  0.12510624550E+03 0.  0.
         23    2    1    2    0    0 -0.13363492547E+03  0.10598508913E+03 -0.33393499085E+03  0.38564953550E+03  0.90121327647E+02 0.  0.
          5    1    3    3  502    0  0.15774626488E+03 -0.92436659506E+02 -0.10512630763E+03  0.21094414677E+03  0.41800000000E+01 0.  1.
         -5    1    3    3    0  502 -0.24111339405E+02 -0.13548429624E+02 -0.24172701146E+02  0.36969021002E+02  0.41800000000E+01 0.  1.
        -11    1    4    4    0    0 -0.86039993185E+02  0.24973208281E+02 -0.22268146261E+03  0.24002828031E+03  0.00000000000E+00 0. -1.
         11    1    4    4    0    0 -0.47594932286E+02  0.81011880849E+02 -0.11125352824E+03  0.14562125519E+03  0.00000000000E+00 0.  1.
</event>
<event>
 8    1  0.3719512E-009  0.9996351E+02  0.7561462E-02  0.1280373E+00
         -1   -1    0    0    0  501 -0.00000000000E+00  0.00000000000E+00  0.13415402145E+02  0.13415402145E+02  0.00000000000E+00 0. -1.
          1   -1    0    0  501    0  0.00000000000E+00 -0.00000000000E+00 -0.12738671412E+04  0.12738671412E+04  0.00000000000E+00 0.  1.
         25    2    1    2    0    0 -0.35960803827E+02 -0.27762185396E+02 -0.97052248386E+03  0.97960468111E+03  0.12509005249E+03 0.  0.
         23    2    1    2    0    0  0.35960803827E+02  0.27762185396E+02 -0.28992925523E+03  0.30767786226E+03  0.92427136390E+02 0.  0.
          5    1    3    3  502    0 -0.10761282592E+02  0.46879312487E+02 -0.23809585312E+03  0.24294152139E+03  0.41800000000E+01 0. -1.
         -5    1    3    3    0  502 -0.25199521235E+02 -0.74641497883E+02 -0.73242663074E+03  0.73666315972E+03  0.41800000000E+01 0. -1.
        -11    1    4    4    0    0 -0.10508011912E+02 -0.87376025400E+01 -0.20767571940E+01  0.13823058017E+02  0.00000000000E+00 0. -1.
         11    1    4    4    0    0  0.46468815738E+02  0.36499787936E+02 -0.28785249803E+03  0.29385480425E+03  0.00000000000E+00 0.  1.
</event>
<event>
 8    1  0.3719512E-009  0.1127859E+03  0.7561462E-02  0.1255496E+00
          1   -1    0    0  501    0  0.00000000000E+00  0.00000000000E+00  0.24852611597E+03  0.24852611597E+03  0.00000000000E+00 0. -1.
         -1   -1    0    0    0  501 -0.00000000000E+00 -0.00000000000E+00 -0.66555581910E+02  0.66555581910E+02  0.00000000000E+00 0.  1.
         25    2    1    2    0    0 -0.62969265024E+02  0.15904814706E+01  0.13462274450E+03  0.19426496430E+03  0.12509170655E+03 0.  0.
         23    2    1    2    0    0  0.62969265024E+02 -0.15904814706E+01  0.47347789567E+02  0.12081673359E+03  0.91581722897E+02 0.  0.
          5    1    3    3  502    0 -0.92379370602E+02  0.16740025747E+02  0.13027969908E+03  0.16063763248E+03  0.41800000000E+01 0. -1.
         -5    1    3    3    0  502  0.29410105578E+02 -0.15149544276E+02  0.43430454153E+01  0.33627331820E+02  0.41800000000E+01 0. -1.
        -11    1    4    4    0    0 -0.16562565401E+02 -0.81273234900E+01 -0.11433048128E+02  0.21704528312E+02  0.00000000000E+00 0. -1.
         11    1    4    4    0    0  0.79531830424E+02  0.65368420194E+01  0.58780837695E+02  0.99112205275E+02  0.00000000000E+00 0.  1.
</event>
<event>
 8    1  0.3719512E-009  0.1680125E+03  0.7561462E-02  0.1179936E+00
          1   -1    0    0  501    0  0.00000000000E+00  0.00000000000E+00  0.71591915111E+03  0.71591915111E+03  0.00000000000E+00 0. -1.
         -1   -1    0    0    0  501 -0.00000000000E+00 -0.00000000000E+00 -0.48994600050E+02  0.48994600050E+02  0.00000000000E+00 0.  1.
         25    2    1    2    0    0 -0.14610327973E+03  0.20808230681E+01  0.26252857069E+03  0.32545045430E+03  0.12508496951E+03 0.  0.
         23    2    1    2    0    0  0.14610327973E+03 -0.20808230681E+01  0.40439598037E+03  0.43946329687E+03  0.90782058688E+02 0.  0.
          5    1    3    3  502    0 -0.13980296232E+03 -0.19455570714E+02  0.13319399693E+03  0.19411723448E+03  0.41800000000E+01 0.  1.
         -5    1    3    3    0  502 -0.63003174184E+01  0.21536393782E+02  0.12933457377E+03  0.13133321982E+03  0.41800000000E+01 0.  1.
        -11    1    4    4    0    0  0.49260496771E+02 -0.44386211124E+02  0.15161369361E+03  0.16547943791E+03  0.00000000000E+00 0.  1.
         11    1    4    4    0    0  0.96842782963E+02  0.42305388056E+02  0.25278228676E+03  0.27398385895E+03  0.00000000000E+00 0. -1.
</event>
<event>
 8    1  0.3719512E-009  0.1690100E+03  0.7561462E-02  0.1178884E+00
         -2   -1    0    0    0  501 -0.00000000000E+00  0.00000000000E+00  0.33513705478E+03  0.33513705478E+03  0.00000000000E+00 0.  1.
          2   -1    0    0  501    0  0.00000000000E+00 -0.00000000000E+00 -0.99677188895E+02  0.99677188895E+02  0.00000000000E+00 0. -1.
         25    2    1    2    0    0  0.98053314311E+02 -0.98775078027E+02  0.18102845145E+03  0.26036470992E+03  0.12509002138E+03 0.  0.
         23    2    1    2    0    0 -0.98053314311E+02  0.98775078027E+02  0.54431414435E+02  0.17444953376E+03  0.89993846809E+02 0.  0.
          5    1    3    3  502    0 -0.25669756198E+02 -0.56838237687E+01  0.72780878875E+01  0.27598644880E+02  0.41800000000E+01 0. -1.
         -5    1    3    3    0  502  0.12372307051E+03 -0.93091254259E+02  0.17375036356E+03  0.23276606504E+03  0.41800000000E+01 0. -1.
        -11    1    4    4    0    0 -0.88176082180E+02  0.39852768290E+02  0.60935521996E+02  0.11435209858E+03  0.00000000000E+00 0.  1.
         11    1    4    4    0    0 -0.98772321309E+01  0.58922309738E+02 -0.65041075608E+01  0.60097435174E+02  0.00000000000E+00 0. -1.
</event>
<event>
 8    1  0.3719512E-009  0.8704640E+02  0.7561462E-02  0.1310166E+00
         -3   -1    0    0    0  501 -0.00000000000E+00  0.00000000000E+00  0.37304047615E+02  0.37304047615E+02  0.00000000000E+00 0.  1.
          3   -1    0    0  501    0  0.00000000000E+00 -0.00000000000E+00 -0.35793042698E+03  0.35793042698E+03  0.00000000000E+00 0. -1.
         25    2    1    2    0    0  0.18080422494E+02  0.23625767824E+02 -0.13585999790E+03  0.18705992552E+03  0.12509355748E+03 0.  0.
         23    2    1    2    0    0 -0.18080422494E+02 -0.23625767824E+02 -0.18476638146E+03  0.20817454907E+03  0.91175372661E+02 0.  0.
          5    1    3    3  502    0  0.71691526698E+01  0.51658386652E+02 -0.48151063425E+01  0.52541824394E+02  0.41800000000E+01 0. -1.
         -5    1    3    3    0  502  0.10911269824E+02 -0.28032618829E+02 -0.13104489156E+03  0.13451810113E+03  0.41800000000E+01 0. -1.
        -11    1    4    4    0    0 -0.14169399003E+02 -0.56523458417E+02 -0.14588748729E+03  0.15709497817E+03  0.00000000000E+00 0.  1.
         11    1    4    4    0    0 -0.39110234912E+01  0.32897690594E+02 -0.38878894174E+02  0.51079570900E+02  0.00000000000E+00 0. -1.
</event>
<event>
 8    1  0.3719512E-009  0.1174728E+03  0.7561462E-02  0.1247325E+00
         -1   -1    0    0    0  501 -0.00000000000E+00  0.00000000000E+00  0.10415418646E+03  0.10415418646E+03  0.00000000000E+00 0.  1.
          1   -1    0    0  501    0  0.00000000000E+00 -0.00000000000E+00 -0.15988052845E+03  0.15988052845E+03  0.00000000000E+00 0. -1.
         25    2    1    2    0    0  0.69141645804E+02  0.63069756744E+01 -0.34773605268E+02  0.14723137828E+03  0.12509008754E+03 0.  0.
         23    2    1    2    0    0 -0.69141645804E+02 -0.63069756744E+01 -0.20952736722E+02  0.11680333662E+03  0.91562312890E+02 0.  0.
          5    1    3    3  502    0 -0.13753424244E+02 -0.43047737676E+02 -0.19784363666E+02  0.49509169284E+02  0.41800000000E+01 0.  1.
         -5    1    3    3    0  502  0.82895070048E+02  0.49354713351E+02 -0.14989241602E+02  0.97722209001E+02  0.41800000000E+01 0.  1.
        -11    1    4    4    0    0 -0.74556307491E+02  0.10541957050E+02  0.14957337178E+02  0.76769119968E+02  0.00000000000E+00 0.  1.
         11    1    4    4    0    0  0.54146616868E+01 -0.16848932724E+02 -0.35910073900E+02  0.40034216649E+02  0.00000000000E+00 0. -1.
</event>
<event>
 8    1  0.3719512E-009  0.1801031E+03  0.7561462E-02  0.1167703E+00
          2   -1    0    0  501    0  0.00000000000E+00  0.00000000000E+00  0.28396950403E+03  0.28396950403E+03  0.00000000000E+00 0.  1.
         -2   -1    0    0    0  501 -0.00000000000E+00 -0.00000000000E+00 -0.13338460909E+03  0.13338460909E+03  0.00000000000E+00 0. -1.
         25    2    1    2    0    0 -0.91672026916E+02 -0.12626578505E+03  0.45109124637E+02  0.20501010463E+03  0.12508997114E+03 0.  0.
         23    2    1    2    0    0  0.91672026916E+02  0.12626578505E+03  0.10547577030E+03  0.21234400849E+03  0.98071559721E+02 0.  0.
          5    1    3    3  502    0  0.12000936426E+02  0.85888610231E+01 -0.17895122144E+02  0.23569022154E+02  0.41800000000E+01 0. -1.
         -5    1    3    3    0  502 -0.10367296334E+03 -0.13485464608E+03  0.63004246781E+02  0.18144108247E+03  0.41800000000E+01 0. -1.
        -11    1    4    4    0    0  0.10547824307E+03  0.11933554858E+03  0.11287921726E+03  0.19521360251E+03  0.00000000000E+00 0.  1.
         11    1    4    4    0    0 -0.13806216156E+02  0.69302364758E+01 -0.74034469567E+01  0.17130405979E+02  0.00000000000E+00 0. -1.
</event>
<event>
 8    1  0.3719512E-009  0.8687082E+02  0.7561462E-02  0.1310611E+00
          1   -1    0    0  501    0  0.00000000000E+00  0.00000000000E+00  0.45295107896E+03  0.45295107896E+03  0.00000000000E+00 0. -1.
         -1   -1    0    0    0  501 -0.00000000000E+00 -0.00000000000E+00 -0.30841001222E+02  0.30841001222E+02  0.00000000000E+00 0.  1.
         25    2    1    2    0    0 -0.37458132754E+02  0.62001767353E+01  0.29758635515E+03  0.32503378590E+03  0.12509104405E+03 0.  0.
         23    2    1    2    0    0  0.37458132754E+02 -0.62001767353E+01  0.12452372259E+03  0.15875829429E+03  0.90865200249E+02 0.  0.
          5    1    3    3  502    0 -0.37305712102E+02 -0.24144624405E+02  0.25854926852E+02  0.51581282318E+02  0.41800000000E+01 0.  1.
         -5    1    3    3    0  502 -0.15242065206E+00  0.30344801140E+02  0.27173142830E+03  0.27345250358E+03  0.41800000000E+01 0.  1.
        -11    1    4    4    0    0 -0.44429483464E+01  0.37599995022E+02  0.47357754128E+02  0.60632139099E+02  0.00000000000E+00 0.  1.
         11    1    4    4    0    0  0.41901081100E+02 -0.43800171758E+02  0.77165968464E+02  0.98126155190E+02  0.00000000000E+00 0. -1.
</event>
<event>
 8    1  0.3719512E-009  0.1109629E+03  0.7561462E-02  0.1258797E+00
         -2   -1    0    0    0  501 -0.00000000000E+00  0.00000000000E+00  0.99394133157E+01  0.99394133157E+01  0.00000000000E+00 0.  1.
          2   -1    0    0  501    0  0.00000000000E+00 -0.00000000000E+00 -0.18670292326E+04  0.18670292326E+04  0.00000000000E+00 0. -1.
         25    2    1    2    0    0  0.69891762150E+02 -0.76859738065E+01 -0.13113773961E+04  0.13192053612E+04  0.12509267456E+03 0.  0.
         23    2    1    2    0    0 -0.69891762150E+02  0.76859738065E+01 -0.54571242313E+03  0.55776328472E+03  0.91399674087E+02 0.  0.
          5    1    3    3  502    0  0.16794682837E+00 -0.32760804902E+02 -0.93488944985E+03  0.93547263689E+03  0.41800000000E+01 0. -1.
         -5    1    3    3    0  502  0.69723815321E+02  0.25074831095E+02 -0.37648794628E+03  0.38373272427E+03  0.41800000000E+01 0. -1.
        -11    1    4    4    0    0  0.94069119635E+01 -0.26658101737E+02 -0.16117644101E+03  0.16363676090E+03  0.00000000000E+00 0.  1.
         11    1    4    4    0    0 -0.79298674113E+02  0.34344075543E+02 -0.38453598211E+03  0.39412652382E+03  0.00000000000E+00 0. -1.
</event>
<event>
 8    1  0.3719512E-009  0.1096866E+03  0.7561462E-02  0.1261151E+00
         -2   -1    0    0    0  501 -0.00000000000E+00  0.00000000000E+00  0.98108865426E+02  0.98108865426E+02  0.00000000000E+00 0.  1.
          2   -1    0    0  501    0  0.00000000000E+00 -0.00000000000E+00 -0.15348821476E+03  0.15348821476E+03  0.00000000000E+00 0. -1.
         25    2    1    2    0    0  0.52668348587E+02  0.78109833298E+01 -0.68956432048E+01  0.13612745162E+03  0.12509263282E+03 0.  0.
         23    2    1    2    0    0 -0.52668348587E+02 -0.78109833298E+01 -0.48483706130E+02  0.11546962857E+03  0.90264051304E+02 0.  0.
          5    1    3    3  502    0 -0.31543346961E+02  0.27649364572E+02 -0.23007620429E+02  0.48023880482E+02  0.41800000000E+01 0. -1.
         -5    1    3    3    0  502  0.84211695548E+02 -0.19838381242E+02  0.16111977224E+02  0.88103571139E+02  0.41800000000E+01 0. -1.
        -11    1    4    4    0    0  0.18604485530E+02 -0.50393071393E+01  0.11351273825E+02  0.22369016871E+02  0.00000000000E+00 0.  1.
         11    1    4    4    0    0 -0.71272834117E+02 -0.27716761905E+01 -0.59834979956E+02  0.93100611697E+02  0.00000000000E+00 0. -1.
</event>
<event>
 8    1  0.3719512E-009  0.9562794E+02  0.7561462E-02  0.1289768E+00
          1   -1    0    0  501    0  0.00000000000E+00  0.00000000000E+00  0.14528268579E+03  0.14528268579E+03  0.00000000000E+00 0. -1.
         -1   -1    0    0    0  501 -0.00000000000E+00 -0.00000000000E+00 -0.11806351323E+03  0.11806351323E+03  0.00000000000E+00 0.  1.
         25    2    1    2    0    0 -0.65930274814E+02  0.28696898102E+02  0.29619506808E+02  0.14729188502E+03  0.12508905273E+03 0.  0.
         23    2    1    2    0    0  0.65930274814E+02 -0.28696898102E+02 -0.24003342498E+01  0.11605431400E+03  0.91063324643E+02 0.  0.
          5    1    3    3  502    0  0.90424076882E+01 -0.16477992937E+02 -0.33951085259E+02  0.39031243617E+02  0.41800000000E+01 0.  1.
         -5    1    3    3    0  502 -0.74972682503E+02  0.45174891040E+02  0.63570592067E+02  0.10826064141E+03  0.41800000000E+01 0.  1.
        -11    1    4    4    0    0  0.50575782028E+02 -0.40669578784E+02 -0.38196556514E+02  0.75305386897E+02  0.00000000000E+00 0.  1.
         11    1    4    4    0    0  0.15354492787E+02  0.11972680681E+02  0.35796222264E+02  0.40748927100E+02  0.00000000000E+00 0. -1.
</event>
<event>
 8    1  0.3719512E-009  0.8119315E+02  0.7561462E-02  0.1325699E+00
          1   -1    0    0  501    0  0.00000000000E+00  0.00000000000E+00  0.81584281208E+02  0.81584281208E+02  0.00000000000E+00 0. -1.
         -1   -1    0    0    0  501 -0.00000000000E+00 -0.00000000000E+00 -0.15250892718E+03  0.15250892718E+03  0.00000000000E+00 0.  1.
         25    2    1    2    0    0  0.15043214097E+02 -0.35739225094E+01 -0.19319115800E+02  0.12751313262E+03  0.12508916637E+03 0.  0.
         23    2    1    2    0    0 -0.15043214097E+02  0.35739225094E+01 -0.51605530172E+02  0.10658007577E+03  0.91962549956E+02 0.  0.
          5    1    3    3  502    0 -0.91376241685E+01  0.38893877968E+02 -0.54101111233E+02  0.67384215923E+02  0.41800000000E+01 0.  1.
         -5    1    3    3    0  502  0.24180838266E+02 -0.42467800477E+02  0.34781995433E+02  0.60128916695E+02  0.41800000000E+01 0.  1.
        -11    1    4    4    0    0 -0.11679753609E+02  0.37396529263E+02 -0.59917312740E+02  0.71589115173E+02  0.00000000000E+00 0. -1.
         11    1    4    4    0    0 -0.33634604883E+01 -0.33822606754E+02  0.83117825676E+01  0.34990960598E+02  0.00000000000E+00 0.  1.
</event>
<event>
 8    1  0.3719512E-009  0.1113741E+03  0.7561462E-02  0.1258046E+00
          1   -1    0    0  501    0  0.00000000000E+00  0.00000000000E+00  0.22127563287E+03  0.22127563287E+03  0.00000000000E+00 0. -1.
         -1   -1    0    0    0  501 -0.00000000000E+00 -0.00000000000E+00 -0.77610477490E+02  0.77610477490E+02  0.00000000000E+00 0.  1.
         25    2    1    2    0    0  0.34096848301E+02 -0.58544424080E+02  0.47325358400E+02  0.14991256471E+03  0.12507614823E+03 0.  0.
         23    2    1    2    0    0 -0.34096848301E+02  0.58544424080E+02  0.96339796984E+02  0.14897354565E+03  0.91223440880E+02 0.  0.
          5    1    3    3  502    0 -0.21367255164E+02 -0.72010493545E+02  0.53556144061E+02  0.92346108421E+02  0.41800000000E+01 0.  1.
         -5    1    3    3    0  502  0.55464103465E+02  0.13466069466E+02 -0.62307856608E+01  0.57566456292E+02  0.41800000000E+01 0.  1.
        -11    1    4    4    0    0  0.81834626303E+01  0.45227683588E+02  0.35013109028E+01  0.46095244890E+02  0.00000000000E+00 0.  1.
         11    1    4    4    0    0 -0.42280310931E+02  0.13316740492E+02  0.92838486082E+02  0.10287830076E+03  0.00000000000E+00 0. -1.
</event>
<event>
 8    1  0.3719512E-009  0.1047135E+03  0.7561462E-02  0.1270685E+00
          1   -1    0    0  501    0  0.00000000000E+00  0.00000000000E+00  0.17556876116E+04  0.17556876116E+04  0.00000000000E+00 0. -1.
         -1   -1    0    0    0  501 -0.00000000000E+00 -0.00000000000E+00 -0.11849068447E+02  0.11849068447E+02  0.00000000000E+00 0.  1.
         25    2    1    2    0    0 -0.35545667212E+02 -0.78734607417E+02  0.11887025143E+04  0.11983837145E+04  0.12508887584E+03 0.  0.
         23    2    1    2    0    0  0.35545667212E+02  0.78734607417E+02  0.55513602882E+03  0.56915296550E+03  0.91084876764E+02 0.  0.
          5    1    3    3  502    0 -0.21070561406E+02 -0.37826768767E+02  0.10852462373E+04  0.10861177196E+04  0.41800000000E+01 0. -1.
         -5    1    3    3    0  502 -0.14475105805E+02 -0.40907838650E+02  0.10345627705E+03  0.11226599490E+03  0.41800000000E+01 0. -1.
        -11    1    4    4    0    0 -0.77638754290E+00 -0.18509610254E+02  0.46944778501E+02  0.50468016386E+02  0.00000000000E+00 0.  1.
         11    1    4    4    0    0  0.36322054755E+02  0.97244217671E+02  0.50819125032E+03  0.51868494911E+03  0.00000000000E+00 0. -1.
</event>
<event>
 8    1  0.3719512E-009  0.1746009E+03  0.7561462E-02  0.1173133E+00
         -2   -1    0    0    0  501 -0.00000000000E+00  0.00000000000E+00  0.26379788429E+03  0.26379788429E+03  0.00000000000E+00 0.  1.
          2   -1    0    0  501    0  0.00000000000E+00 -0.00000000000E+00 -0.13449324210E+03  0.13449324210E+03  0.00000000000E+00 0. -1.
         25    2    1    2    0    0 -0.14208240390E+03 -0.55106141786E+02  0.70569362642E+02  0.20940838926E+03  0.12509093568E+03 0.  0.
         23    2    1    2    0    0  0.14208240390E+03  0.55106141786E+02  0.58735279548E+02  0.18888273713E+03  0.94882869706E+02 0.  0.
          5    1    3    3  502    0 -0.13934250897E+03 -0.80266104309E+02  0.82878200781E+02  0.18095648889E+03  0.41800000000E+01 0.  1.
         -5    1    3    3    0  502 -0.27398949284E+01  0.25159962522E+02 -0.12308838139E+02  0.28451900370E+02  0.41800000000E+01 0.  1.
        -11    1    4    4    0    0  0.35518589916E+02 -0.11124729713E+02 -0.18482834490E+02  0.41556527906E+02  0.00000000000E+00 0. -1.
         11    1    4    4    0    0  0.10656381398E+03  0.66230871499E+02  0.77218114038E+02  0.14732620923E+03  0.00000000000E+00 0.  1.
</event>
<event>
 8    1  0.3719512E-009  0.9184843E+02  0.7561462E-02  0.1298436E+00
         -1   -1    0    0    0  501 -0.00000000000E+00  0.00000000000E+00  0.40110572603E+03  0.40110572603E+03  0.00000000000E+00 0.  1.
          1   -1    0    0  501    0  0.00000000000E+00 -0.00000000000E+00 -0.38269552964E+02  0.38269552964E+02  0.00000000000E+00 0. -1.
         25    2    1    2    0    0 -0.48345572481E+02  0.20737411593E+02  0.15554626683E+03  0.20642114247E+03  0.12509081627E+03 0.  0.
         23    2    1    2    0    0  0.48345572481E+02 -0.20737411593E+02  0.20728990624E+03  0.23295413653E+03  0.92364440550E+02 0.  0.
          5    1    3    3  502    0 -0.74167530372E+02  0.10550759150E+02  0.35260214300E+02  0.82902932353E+02  0.41800000000E+01 0. -1.
         -5    1    3    3    0  502  0.25821957891E+02  0.10186652443E+02  0.12028605252E+03  0.12351821011E+03  0.41800000000E+01 0. -1.
        -11    1    4    4    0    0  0.34183427607E+02  0.18507813802E+02  0.17745351053E+03  0.18166120746E+03  0.00000000000E+00 0.  1.
         11    1    4    4    0    0  0.14162144874E+02 -0.39245225395E+02  0.29836395707E+02  0.51292929070E+02  0.00000000000E+00 0. -1.
</event>
<event>
 8    1  0.3719512E-009  0.2817100E+03  0.7561462E-02  0.1094759E+00
          2   -1    0    0  501    0  0.00000000000E+00  0.00000000000E+00  0.65026673151E+03  0.65026673151E+03  0.00000000000E+00 0. -1.
         -2   -1    0    0    0  501 -0.00000000000E+00 -0.00000000000E+00 -0.14798721682E+03  0.14798721682E+03  0.00000000000E+00 0.  1.
         25    2    1    2    0    0 -0.17342004602E+03  0.21954844946E+03  0.15697861528E+03  0.34433292077E+03  0.12508733210E+03 0.  0.
         23    2    1    2    0    0  0.17342004602E+03 -0.21954844946E+03  0.34530089941E+03  0.45392102755E+03  0.92388062553E+02 0.  0.
          5    1    3    3  502    0 -0.52068228694E+02  0.10137319088E+03  0.10181761518E+01  0.11404443586E+03  0.41800000000E+01 0. -1.
         -5    1    3    3    0  502 -0.12135181733E+03  0.11817525858E+03  0.15596043913E+03  0.23028848491E+03  0.41800000000E+01 0. -1.
        -11    1    4    4    0    0  0.23298835813E+02 -0.24465347169E+02  0.10347501997E+03  0.10885067166E+03  0.00000000000E+00 0.  1.
         11    1    4    4    0    0  0.15012121021E+03 -0.19508310229E+03  0.24182587944E+03  0.34507035589E+03  0.00000000000E+00 0. -1.
</event>
<event>
 8    1  0.3719512E-009  0.1151728E+03  0.7561462E-02  0.1251280E+00
          2   -1    0    0  501    0  0.00000000000E+00  0.00000000000E+00  0.89438998985E+02  0.89438998985E+02  0.00000000000E+00 0.  1.
         -2   -1    0    0    0  501 -0.00000000000E+00 -0.00000000000E+00 -0.17444949973E+03  0.17444949973E+03  0.00000000000E+00 0. -1.
         25    2    1    2    0    0  0.53106608804E+02 -0.44653626062E+02 -0.56771299077E+02  0.15389889454E+03  0.12509049173E+03 0.  0.
         23    2    1    2    0    0 -0.53106608804E+02  0.44653626062E+02 -0.28239201667E+02  0.10998960417E+03  0.80535720625E+02 0.  0.
          5    1    3    3  502    0  0.90141227832E+02 -0.17209972689E+02 -0.18200267153E+02  0.93650126745E+02  0.41800000000E+01 0. -1.
         -5    1    3    3    0  502 -0.37034619028E+02 -0.27443653373E+02 -0.38571031924E+02  0.60248767794E+02  0.41800000000E+01 0. -1.
        -11    1    4    4    0    0 -0.30118067483E+02 -0.10935751004E+02  0.15519197462E+02  0.35602445545E+02  0.00000000000E+00 0.  1.
         11    1    4    4    0    0 -0.22988541321E+02  0.55589377066E+02 -0.43758399129E+02  0.74387158629E+02  0.00000000000E+00 0. -1.
</event>
<event>
 8    1  0.3719512E-009  0.1262818E+03  0.7561462E-02  0.1233080E+00
         -2   -1    0    0    0  501 -0.00000000000E+00  0.00000000000E+00  0.58026823160E+02  0.58026823160E+02  0.00000000000E+00 0.  1.
          2   -1    0    0  501    0  0.00000000000E+00 -0.00000000000E+00 -0.41240930062E+03  0.41240930062E+03  0.00000000000E+00 0. -1.
         25    2    1    2    0    0 -0.35626830850E+02  0.99300838956E+02 -0.14061712131E+03  0.21575501996E+03  0.12508847325E+03 0.  0.
         23    2    1    2    0    0  0.35626830850E+02 -0.99300838956E+02 -0.21376535615E+03  0.25468110382E+03  0.89648811800E+02 0.  0.
          5    1    3    3  502    0 -0.23259361931E+02 -0.14496892690E+02  0.73033165236E+01  0.28669995593E+02  0.41800000000E+01 0.  1.
         -5    1    3    3    0  502 -0.12367468919E+02  0.11379773165E+03 -0.14792043783E+03  0.18708502437E+03  0.41800000000E+01 0.  1.
        -11    1    4    4    0    0  0.37821099960E+02 -0.59950106910E+02 -0.20118992135E+03  0.21331159222E+03  0.00000000000E+00 0. -1.
         11    1    4    4    0    0 -0.21942691098E+01 -0.39350732045E+02 -0.12575434797E+02  0.41369511597E+02  0.00000000000E+00 0.  1.
</event>
<event>
 8    1  0.3719512E-009  0.1373631E+03  0.7561462E-02  0.1216922E+00
         -1   -1    0    0    0  501 -0.00000000000E+00  0.00000000000E+00  0.21236177563E+02  0.21236177563E+02  0.00000000000E+00 0.  1.
          1   -1    0    0  501    0  0.00000000000E+00 -0.00000000000E+00 -0.13290043300E+04  0.13290043300E+04  0.00000000000E+00 0. -1.
         25    2    1    2    0    0  0.13875518887E+02 -0.11988027412E+03 -0.87077539661E+03  0.88795352440E+03  0.12509140659E+03 0.  0.
         23    2    1    2    0    0 -0.13875518887E+02  0.11988027412E+03 -0.43699275583E+03  0.46228698317E+03  0.90458697827E+02 0.  0.
          5    1    3    3  502    0  0.21354677021E+02 -0.87770083094E+01 -0.50584623454E+03  0.50639011000E+03  0.41800000000E+01 0.  1.
         -5    1    3    3    0  502 -0.74791581341E+01 -0.11110326581E+03 -0.36492916207E+03  0.38156341440E+03  0.41800000000E+01 0.  1.
        -11    1    4    4    0    0 -0.31635654608E+02  0.17969684531E+02 -0.50835501891E+02  0.62513778139E+02  0.00000000000E+00 0.  1.
         11    1    4    4    0    0  0.17760135721E+02  0.10191058959E+03 -0.38615725394E+03  0.39977320503E+03  0.00000000000E+00 0. -1.
</event>
<event>
 8    1  0.3719512E-009  0.1163139E+03  0.7561462E-02  0.1249305E+00
         -2   -1    0    0    0  501 -0.00000000000E+00  0.00000000000E+00  0.60243441030E+02  0.60243441030E+02  0.00000000000E+00 0.  1.
          2   -1    0    0  501    0  0.00000000000E+00 -0.00000000000E+00 -0.28056088556E+03  0.28056088556E+03  0.00000000000E+00 0. -1.
         25    2    1    2    0    0  0.52913344841E+02 -0.46646477425E+01 -0.58804884587E+02  0.14807723069E+03  0.12508905146E+03 0.  0.
         23    2    1    2    0    0 -0.52913344841E+02  0.46646477425E+01 -0.16151255994E+03  0.19272709590E+03  0.90751559083E+02 0.  0.
          5    1    3    3  502    0  0.27346786518E+02 -0.64740020319E+02 -0.28036587968E+02  0.75780206048E+02  0.41800000000E+01 0. -1.
         -5    1    3    3    0  502  0.25566558323E+02  0.60075372576E+02 -0.30768296619E+02  0.72297024638E+02  0.41800000000E+01 0. -1.
        -11    1    4    4    0    0 -0.13804894690E+01 -0.32964054737E+02 -0.94955688852E+02  0.10052421351E+03  0.00000000000E+00 0. -1.
         11    1    4    4    0    0 -0.51532855372E+02  0.37628702480E+02 -0.66556871090E+02  0.92202882397E+02  0.00000000000E+00 0.  1.
</event>
<event>
 8    1  0.3719512E-009  0.1489462E+03  0.7561462E-02  0.1201774E+00
          1   -1    0    0  501    0  0.00000000000E+00  0.00000000000E+00  0.30170332906E+03  0.30170332906E+03  0.00000000000E+00 0. -1.
         -1   -1    0    0    0  501 -0.00000000000E+00 -0.00000000000E+00 -0.10617623125E+03  0.10617623125E+03  0.00000000000E+00 0.  1.
         25    2    1    2    0    0  0.12078316279E+03 -0.23634793156E+02  0.26074437796E+02  0.17741259840E+03  0.12509267725E+03 0.  0.
         23    2    1    2    0    0 -0.12078316279E+03  0.23634793156E+02  0.16945266001E+03  0.23046696191E+03  0.96195845462E+02 0.  0.
          5    1    3    3  502    0 -0.19114994805E+02  0.10901181080E+02  0.24568568811E+02  0.33246138855E+02  0.41800000000E+01 0. -1.
         -5    1    3    3    0  502  0.13989815760E+03 -0.34535974236E+02  0.15058689847E+01  0.14416645955E+03  0.41800000000E+01 0. -1.
        -11    1    4    4    0    0 -0.76608554425E+02 -0.79655475619E+01  0.33358674842E+02  0.83935223513E+02  0.00000000000E+00 0.  1.
         11    1    4    4    0    0 -0.44174608370E+02  0.31600340718E+02  0.13609398517E+03  0.14653173839E+03  0.00000000000E+00 0. -1.
</event>
<event>
 8    1  0.3719512E-009  0.8982232E+02  0.7561462E-02  0.1303283E+00
         -2   -1    0    0    0  501 -0.00000000000E+00  0.00000000000E+00  0.12071087383E+03  0.12071087383E+03  0.00000000000E+00 0.  1.
          2   -1    0    0  501    0  0.00000000000E+00 -0.00000000000E+00 -0.11211801253E+03  0.11211801253E+03  0.00000000000E+00 0. -1.
         25    2    1    2    0    0 -0.14951130352E+02  0.41150779102E+02 -0.37225248496E+01  0.13258052621E+03  0.12508723284E+03 0.  0.
         23    2    1    2    0    0  0.14951130352E+02 -0.41150779102E+02  0.12315386146E+02  0.10024836016E+03  0.89337237804E+02 0.  0.
          5    1    3    3  502    0  0.35324869696E+02  0.63401528377E+02 -0.19426613232E+02  0.75249358278E+02  0.41800000000E+01 0. -1.
         -5    1    3    3    0  502 -0.50276000048E+02 -0.22250749275E+02  0.15704088383E+02  0.57331167928E+02  0.41800000000E+01 0. -1.
        -11    1    4    4    0    0  0.22811498336E+02 -0.24984398087E+02 -0.35576177963E+02  0.49094287270E+02  0.00000000000E+00 0. -1.
         11    1    4    4    0    0 -0.78603679843E+01 -0.16166381016E+02  0.47891564109E+02  0.51154072886E+02  0.00000000000E+00 0.  1.
</event>
<event>
 8    1  0.3719512E-009  0.9354895E+02  0.7561462E-02  0.1294478E+00
          1   -1    0    0  501    0  0.00000000000E+00  0.00000000000E+00  0.59559048560E+02  0.59559048560E+02  0.00000000000E+00 0. -1.
         -1   -1    0    0    0  501 -0.00000000000E+00 -0.00000000000E+00 -0.26595704465E+03  0.26595704465E+03  0.00000000000E+00 0.  1.
         25    2    1    2    0    0  0.17438273051E+02  0.29122427068E+02 -0.18614753656E+03  0.22681835274E+03  0.12507378081E+03 0.  0.
         23    2    1    2    0    0 -0.17438273051E+02 -0.29122427068E+02 -0.20250459532E+02  0.98697740477E+02  0.90437568182E+02 0.  0.
          5    1    3    3  502    0  0.55873000606E+02  0.52974308007E+02 -0.78775885846E+02  0.11023240039E+03  0.41800000000E+01 0.  1.
         -5    1    3    3    0  502 -0.38434727555E+02 -0.23851880939E+02 -0.10737165071E+03  0.11658595234E+03  0.41800000000E+01 0.  1.
        -11    1    4    4    0    0  0.15877801009E+02  0.52223308612E+01 -0.42692086999E+02  0.45847481903E+02  0.00000000000E+00 0.  1.
         11    1    4    4    0    0 -0.33316074060E+02 -0.34344757929E+02  0.22441627467E+02  0.52850258574E+02  0.00000000000E+00 0. -1.
</event>
<event>
 8    1  0.3719512E-009  0.1025812E+03  0.7561462E-02  0.1274960E+00
         -1   -1    0    0    0  501 -0.00000000000E+00  0.00000000000E+00  0.11446450281E+03  0.11446450281E+03  0.00000000000E+00 0.  1.
          1   -1    0    0  501    0  0.00000000000E+00 -0.00000000000E+00 -0.24089759341E+03  0.24089759341E+03  0.00000000000E+00 0. -1.
         25    2    1    2    0    0  0.44609282704E+02  0.48258771919E+02  0.46203641634E+02  0.14866663132E+03  0.12509234028E+03 0.  0.
         23    2    1    2    0    0 -0.44609282704E+02 -0.48258771919E+02 -0.17263673224E+03  0.20669546490E+03  0.92739833529E+02 0.  0.
          5    1    3    3  502    0  0.17172785536E+02  0.70292377068E+02  0.74035001112E+02  0.10360780196E+03  0.41800000000E+01 0. -1.
         -5    1    3    3    0  502  0.27436497168E+02 -0.22033605149E+02 -0.27831359478E+02  0.45058829358E+02  0.41800000000E+01 0. -1.
        -11    1    4    4    0    0  0.98369771461E+01 -0.41183557171E+02 -0.13133309391E+03  0.13798997448E+03  0.00000000000E+00 0. -1.
         11    1    4    4    0    0 -0.54446259850E+02 -0.70752147477E+01 -0.41303638331E+02  0.68705490426E+02  0.00000000000E+00 0.  1.
</event>
<event>
 8    1  0.3719512E-009  0.1133976E+03  0.7561462E-02  0.1254404E+00
         -2   -1    0    0    0  501 -0.00000000000E+00  0.00000000000E+00  0.20843399843E+02  0.20843399843E+02  0.00000000000E+00 0.  1.
          2   -1    0    0  501    0  0.00000000000E+00 -0.00000000000E+00 -0.10672025017E+04  0.10672025017E+04  0.00000000000E+00 0. -1.
         25    2    1    2    0    0  0.62685205044E+02 -0.24263049030E+02 -0.85110432087E+03  0.86286833821E+03  0.12508026859E+03 0.  0.
         23    2    1    2    0    0 -0.62685205044E+02  0.24263049030E+02 -0.19525478102E+03  0.22517756338E+03  0.89790729234E+02 0.  0.
          5    1    3    3  502    0  0.16493245189E+02 -0.70514273975E+02 -0.34501949851E+03  0.35256235863E+03  0.41800000000E+01 0.  1.
         -5    1    3    3    0  502  0.46191959854E+02  0.46251224945E+02 -0.50608482237E+03  0.51030597958E+03  0.41800000000E+01 0.  1.
        -11    1    4    4    0    0  0.20618800777E+01  0.23919703154E+02 -0.54311297219E+01  0.24615050650E+02  0.00000000000E+00 0.  1.
         11    1    4    4    0    0 -0.64747085122E+02  0.34334587571E+00 -0.18982365130E+03  0.20056251273E+03  0.00000000000E+00 0. -1.
</event>
<event>
 8    1  0.3719512E-009  0.1402150E+03  0.7561462E-02  0.1213040E+00
          4   -1    0    0  501    0  0.00000000000E+00  0.00000000000E+00  0.29830834266E+03  0.29830834266E+03  0.00000000000E+00 0. -1.
         -4   -1    0    0    0  501 -0.00000000000E+00 -0.00000000000E+00 -0.79403192293E+02  0.79403192293E+02  0.00000000000E+00 0.  1.
         25    2    1    2    0    0 -0.81021501250E+02 -0.40452266768E+02  0.19271912944E+03  0.24696013539E+03  0.12509107109E+03 0.  0.
         23    2    1    2    0    0  0.81021501250E+02  0.40452266768E+02  0.26186020921E+02  0.13075139956E+03  0.90605470280E+02 0.  0.
          5    1    3    3  502    0  0.29874592020E+02 -0.27103520301E+02  0.70540275922E+02  0.81366424206E+02  0.41800000000E+01 0.  1.
         -5    1    3    3    0  502 -0.11089609327E+03 -0.13348746467E+02  0.12217885352E+03  0.16559371118E+03  0.41800000000E+01 0.  1.
        -11    1    4    4    0    0  0.74669102923E+01 -0.27175695338E+02  0.56145173114E+01  0.28736665969E+02  0.00000000000E+00 0.  1.
         11    1    4    4    0    0  0.73554590958E+02  0.67627962106E+02  0.20571503609E+02  0.10201473359E+03  0.00000000000E+00 0. -1.
</event>
<event>
 8    1  0.3719512E-009  0.9479038E+02  0.7561462E-02  0.1291649E+00
         -2   -1    0    0    0  501 -0.00000000000E+00  0.00000000000E+00  0.12470771281E+03  0.12470771281E+03  0.00000000000E+00 0.  1.
          2   -1    0    0  501    0  0.00000000000E+00 -0.00000000000E+00 -0.16763410579E+03  0.16763410579E+03  0.00000000000E+00 0. -1.
         25    2    1    2    0    0  0.59510793092E+02 -0.66066345991E+02  0.80687930387E+01  0.15368399964E+03  0.12508944702E+03 0.  0.
         23    2    1    2    0    0 -0.59510793092E+02  0.66066345991E+02 -0.50995186016E+02  0.13865781897E+03  0.93376577349E+02 0.  0.
          5    1    3    3  502    0  0.87462009895E+01 -0.99918853815E+01  0.60158414501E+02  0.61748206779E+02  0.41800000000E+01 0.  1.
         -5    1    3    3    0  502  0.50764592103E+02 -0.56074460610E+02 -0.52089621462E+02  0.91935792856E+02  0.41800000000E+01 0.  1.
        -11    1    4    4    0    0 -0.61808270943E+02  0.39748430131E+02  0.80954205647E+01  0.73930615370E+02  0.00000000000E+00 0.  1.
         11    1    4    4    0    0  0.22974778509E+01  0.26317915861E+02 -0.59090606580E+02  0.64727203599E+02  0.00000000000E+00 0. -1.
</event>
<event>
 8    1  0.3719512E-009  0.1285698E+03  0.7561462E-02  0.1229594E+00
         -2   -1    0    0    0  501 -0.00000000000E+00  0.00000000000E+00  0.40631177957E+03  0.40631177957E+03  0.00000000000E+00 0. -1.
          2   -1    0    0  501    0  0.00000000000E+00 -0.00000000000E+00 -0.59345627807E+02  0.59345627807E+02  0.00000000000E+00 0.  1.
         25    2    1    2    0    0 -0.74703968756E+02  0.82166939788E+02  0.18399311899E+03  0.24866421687E+03  0.12509330908E+03 0.  0.
         23    2    1    2    0    0  0.74703968756E+02 -0.82166939788E+02  0.16297303278E+03  0.21699319051E+03  0.90519314911E+02 0.  0.
          5    1    3    3  502    0 -0.16990505908E+02 -0.18572495967E+02 -0.57721788352E+01  0.26161141908E+02  0.41800000000E+01 0.  1.
         -5    1    3    3    0  502 -0.57713462848E+02  0.10073943575E+03  0.18976529782E+03  0.22250307496E+03  0.41800000000E+01 0.  1.
        -11    1    4    4    0    0  0.36650275522E+02 -0.17967653422E+02  0.35561632060E+01  0.40972253563E+02  0.00000000000E+00 0.  1.
         11    1    4    4    0    0  0.38053693233E+02 -0.64199286367E+02  0.15941686957E+03  0.17602093694E+03  0.00000000000E+00 0. -1.
</event>
<event>
 8    1  0.3719512E-009  0.1092565E+03  0.7561462E-02  0.1261953E+00
          2   -1    0    0  501    0  0.00000000000E+00  0.00000000000E+00  0.12477274301E+04  0.12477274301E+04  0.00000000000E+00 0. -1.
         -2   -1    0    0    0  501 -0.00000000000E+00 -0.00000000000E+00 -0.14977218077E+02  0.14977218077E+02  0.00000000000E+00 0.  1.
         25    2    1    2    0    0  0.26356766162E+02  0.51355393894E+02  0.91665029499E+03  0.92694503032E+03  0.12508904958E+03 0.  0.
         23    2    1    2    0    0 -0.26356766162E+02 -0.51355393894E+02  0.31609991700E+03  0.33575961783E+03  0.97382276772E+02 0.  0.
          5    1    3    3  502    0 -0.11358461137E+02 -0.20698857331E+02  0.40853130958E+02  0.47369906515E+02  0.41800000000E+01 0.  1.
         -5    1    3    3    0  502  0.37715227299E+02  0.72054251224E+02  0.87579716403E+03  0.87957512381E+03  0.41800000000E+01 0.  1.
        -11    1    4    4    0    0  0.29462454715E+02 -0.49068009069E+02  0.15272542111E+03  0.16309739423E+03  0.00000000000E+00 0.  1.
         11    1    4    4    0    0 -0.55819220877E+02 -0.22873848250E+01  0.16337449590E+03  0.17266222360E+03  0.00000000000E+00 0. -1.
</event>
<event>
 8    1  0.3719512E-009  0.1444673E+03  0.7561462E-02  0.1207441E+00
          1   -1    0    0  501    0  0.00000000000E+00  0.00000000000E+00  0.82552104235E+03  0.82552104235E+03  0.00000000000E+00 0. -1.
         -1   -1    0    0    0  501 -0.00000000000E+00 -0.00000000000E+00 -0.65198592291E+02  0.65198592291E+02  0.00000000000E+00 0.  1.
         25    2    1    2    0    0 -0.11915740508E+03 -0.67728216048E+02  0.10192954242E+03  0.21171719748E+03  0.12509572997E+03 0.  0.
         23    2    1    2    0    0  0.11915740508E+03  0.67728216048E+02  0.65839290763E+03  0.67900243715E+03  0.93688261839E+02 0.  0.
          5    1    3    3  502    0 -0.47343589129E+02 -0.18708117897E+02  0.11296018323E+03  0.12397130515E+03  0.41800000000E+01 0. -1.
         -5    1    3    3    0  502 -0.71813815952E+02 -0.49020098151E+02 -0.11030640802E+02  0.87745892331E+02  0.41800000000E+01 0.  1.
        -11    1    4    4    0    0  0.30280352281E+02  0.52541418170E+02  0.13631049740E+03  0.14919132702E+03  0.00000000000E+00 0.  1.
         11    1    4    4    0    0  0.88877052800E+02  0.15186797878E+02  0.52208241023E+03  0.52981111013E+03  0.00000000000E+00 0. -1.
</event>
<event>
 8    1  0.3719512E-009  0.7419435E+02  0.7561462E-02  0.1346384E+00
          1   -1    0    0  501    0  0.00000000000E+00  0.00000000000E+00  0.28082401859E+03  0.28082401859E+03  0.00000000000E+00 0. -1.
         -1   -1    0    0    0  501 -0.00000000000E+00 -0.00000000000E+00 -0.58546492068E+02  0.58546492068E+02  0.00000000000E+00 0.  1.
         25    2    1    2    0    0  0.62665359111E+01  0.49449716453E+00  0.21439459962E+03  0.24829832771E+03  0.12508997241E+03 0.  0.
         23    2    1    2    0    0 -0.62665359111E+01 -0.49449716453E+00  0.78829268961E+01  0.91072182944E+02  0.90512363631E+02 0.  0.
          5    1    3    3  502    0  0.47537835713E+02  0.38591800020E+02  0.68834704673E+02  0.92221807727E+02  0.41800000000E+01 0. -1.
         -5    1    3    3    0  502 -0.41271299802E+02 -0.38097302855E+02  0.14555989495E+03  0.15607651998E+03  0.41800000000E+01 0. -1.
        -11    1    4    4    0    0 -0.12218156198E+02  0.11830186610E+02 -0.38832357251E+02  0.42393261560E+02  0.00000000000E+00 0.  1.
         11    1    4    4    0    0  0.59516202867E+01 -0.12324683774E+02  0.46715284147E+02  0.48678921384E+02  0.00000000000E+00 0. -1.
</event>
<event>
 8    1  0.3719512E-009  0.8881226E+02  0.7561462E-02  0.1305754E+00
         -2   -1    0    0    0  501 -0.00000000000E+00  0.00000000000E+00  0.41104492277E+02  0.41104492277E+02  0.00000000000E+00 0.  1.
          2   -1    0    0  501    0  0.00000000000E+00 -0.00000000000E+00 -0.45998688160E+03  0.45998688160E+03  0.00000000000E+00 0. -1.
         25    2    1    2    0    0  0.33915847916E+02 -0.24076824370E+02 -0.96475661890E+02  0.16335594065E+03  0.12509049444E+03 0.  0.
         23    2    1    2    0    0 -0.33915847916E+02  0.24076824370E+02 -0.32240672743E+03  0.33773543322E+03  0.91592285419E+02 0.  0.
          5    1    3    3  502    0  0.50177962750E+02 -0.43322996321E+02 -0.11430760892E+03  0.13220594469E+03  0.41800000000E+01 0.  1.
         -5    1    3    3    0  502 -0.16262114834E+02  0.19246171951E+02  0.17831947025E+02  0.31149995961E+02  0.41800000000E+01 0.  1.
        -11    1    4    4    0    0 -0.52462251967E+02  0.35986158204E+02 -0.29856034374E+03  0.30526311654E+03  0.00000000000E+00 0.  1.
         11    1    4    4    0    0  0.18546404051E+02 -0.11909333834E+02 -0.23846383685E+02  0.32472316678E+02  0.00000000000E+00 0. -1.
</event>
<event>
 8    1  0.3719512E-009  0.1263741E+03  0.7561462E-02  0.1232937E+00
         -2   -1    0    0    0  501 -0.00000000000E+00  0.00000000000E+00  0.21573727224E+03  0.21573727224E+03  0.00000000000E+00 0.  1.
          2   -1    0    0  501    0  0.00000000000E+00 -0.00000000000E+00 -0.14067068353E+03  0.14067068353E+03  0.00000000000E+00 0. -1.
         25    2    1    2    0    0  0.75453702795E+02 -0.85634305490E+02  0.11404097385E+03  0.20415473070E+03  0.12508922738E+03 0.  0.
         23    2    1    2    0    0 -0.75453702795E+02  0.85634305490E+02 -0.38974385151E+02  0.15225322507E+03  0.92927640147E+02 0.  0.
          5    1    3    3  502    0  0.39286725928E+02 -0.59205857307E+02  0.13644629554E+03  0.15389556309E+03  0.41800000000E+01 0. -1.
         -5    1    3    3    0  502  0.36166976867E+02 -0.26428448183E+02 -0.22405321682E+02  0.50259167609E+02  0.41800000000E+01 0. -1.
        -11    1    4    4    0    0  0.13894775065E+02  0.25000037357E+02  0.14152215071E+02  0.31911625364E+02  0.00000000000E+00 0.  1.
         11    1    4    4    0    0 -0.89348477861E+02  0.60634268133E+02 -0.53126600222E+02  0.12034159970E+03  0.00000000000E+00 0. -1.
</event>
<event>
 8    1  0.3719512E-009  0.1029389E+03  0.7561462E-02  0.1274234E+00
          2   -1    0    0  501    0  0.00000000000E+00  0.00000000000E+00  0.24743483906E+03  0.24743483906E+03  0.00000000000E+00 0. -1.
         -2   -1    0    0    0  501 -0.00000000000E+00 -0.00000000000E+00 -0.59068104220E+02  0.59068104220E+02  0.00000000000E+00 0.  1.
         25    2    1    2    0    0  0.41092743892E+02 -0.35714410043E+02  0.11093701890E+03  0.17583534860E+03  0.12508762916E+03 0.  0.
         23    2    1    2    0    0 -0.41092743892E+02  0.35714410043E+02  0.77429715939E+02  0.13066759468E+03  0.90080667761E+02 0.  0.
          5    1    3    3  502    0  0.15949931036E+02  0.36861121065E+02  0.85940719958E+02  0.94954843442E+02  0.41800000000E+01 0. -1.
         -5    1    3    3    0  502  0.25142812855E+02 -0.72575531107E+02  0.24996298945E+02  0.80880505159E+02  0.41800000000E+01 0. -1.
        -11    1    4    4    0    0  0.17806111799E+02 -0.30497709507E+01  0.53081677576E+02  0.56071590084E+02  0.00000000000E+00 0. -1.
         11    1    4    4    0    0 -0.58898855691E+02  0.38764180993E+02  0.24348038363E+02  0.74596004598E+02  0.00000000000E+00 0.  1.
</event>
<event>
 8    1  0.3719512E-009  0.1223645E+03  0.7561462E-02  0.1239247E+00
          1   -1    0    0  501    0  0.00000000000E+00  0.00000000000E+00  0.40547444732E+02  0.40547444732E+02  0.00000000000E+00 0. -1.
         -1   -1    0    0    0  501 -0.00000000000E+00 -0.00000000000E+00 -0.46024310448E+03  0.46024310448E+03  0.00000000000E+00 0.  1.
         25    2    1    2    0    0  0.64586810677E+02  0.50084264297E+02 -0.25235569497E+03  0.29327532339E+03  0.12508848421E+03 0.  0.
         23    2    1    2    0    0 -0.64586810677E+02 -0.50084264297E+02 -0.16733996478E+03  0.20751522582E+03  0.91542424551E+02 0.  0.
          5    1    3    3  502    0  0.21986258552E+02  0.72641442909E+02 -0.65761140467E+02  0.10050957561E+03  0.41800000000E+01 0.  1.
         -5    1    3    3    0  502  0.42600552124E+02 -0.22557178612E+02 -0.18659455451E+03  0.19276574779E+03  0.41800000000E+01 0.  1.
        -11    1    4    4    0    0 -0.75956599809E+02 -0.75793038742E+01 -0.12492688270E+03  0.14640210696E+03  0.00000000000E+00 0.  1.
         11    1    4    4    0    0  0.11369789133E+02 -0.42504960423E+02 -0.42413082079E+02  0.61113118861E+02  0.00000000000E+00 0. -1.
</event>
<event>
 8    1  0.3719512E-009  0.1293457E+03  0.7561462E-02  0.1228430E+00
         -2   -1    0    0    0  501 -0.00000000000E+00  0.00000000000E+00  0.34486249600E+02  0.34486249600E+02  0.00000000000E+00 0.  1.
          2   -1    0    0  501    0  0.00000000000E+00 -0.00000000000E+00 -0.51705063770E+03  0.51705063770E+03  0.00000000000E+00 0. -1.
         25    2    1    2    0    0  0.73306396140E+02  0.10298872304E+02 -0.31087676814E+03  0.34318093768E+03  0.12509554962E+03 0.  0.
         23    2    1    2    0    0 -0.73306396140E+02 -0.10298872304E+02 -0.17168761996E+03  0.20835594961E+03  0.91954708453E+02 0.  0.
          5    1    3    3  502    0 -0.25148440156E+02  0.35407664151E+02 -0.89918141912E+02  0.99944441405E+02  0.41800000000E+01 0. -1.
         -5    1    3    3    0  502  0.98454836295E+02 -0.25108791847E+02 -0.22095862623E+03  0.24323649628E+03  0.41800000000E+01 0. -1.
        -11    1    4    4    0    0 -0.47861438308E+02  0.36438633401E+02 -0.61697109841E+02  0.86168582695E+02  0.00000000000E+00 0.  1.
         11    1    4    4    0    0 -0.25444957832E+02 -0.46737505705E+02 -0.10999051012E+03  0.12218736692E+03  0.00000000000E+00 0. -1.
</event>
<event>
 8    1  0.3719512E-009  0.1209643E+03  0.7561462E-02  0.1241515E+00
          2   -1    0    0  501    0  0.00000000000E+00  0.00000000000E+00  0.10352108393E+04  0.10352108393E+04  0.00000000000E+00 0.  1.
         -2   -1    0    0    0  501 -0.00000000000E+00 -0.00000000000E+00 -0.15881460018E+02  0.15881460018E+02  0.00000000000E+00 0. -1.
         25    2    1    2    0    0  0.44610428841E+02 -0.50819039325E+02  0.58449193584E+03  0.60154077578E+03  0.12509123367E+03 0.  0.
         23    2    1    2    0    0 -0.44610428841E+02  0.50819039325E+02  0.43483744347E+03  0.44955152357E+03  0.91871132469E+02 0.  0.
          5    1    3    3  502    0 -0.46956114402E+00  0.34290435529E+02  0.28075467268E+03  0.28287225578E+03  0.41800000000E+01 0. -1.
         -5    1    3    3    0  502  0.45079989985E+02 -0.85109474854E+02  0.30373726316E+03  0.31866852000E+03  0.41800000000E+01 0. -1.
        -11    1    4    4    0    0  0.26963470142E+02  0.16405083482E+02  0.17588956781E+03  0.17869889633E+03  0.00000000000E+00 0.  1.
         11    1    4    4    0    0 -0.71573898983E+02  0.34413955843E+02  0.25894787567E+03  0.27085262724E+03  0.00000000000E+00 0. -1.
</event>
<event>
 8    1  0.3719512E-009  0.1556510E+03  0.7561462E-02  0.1193696E+00
          2   -1    0    0  501    0  0.00000000000E+00  0.00000000000E+00  0.68115389315E+03  0.68115389315E+03  0.00000000000E+00 0. -1.
         -2   -1    0    0    0  501 -0.00000000000E+00 -0.00000000000E+00 -0.37771329787E+02  0.37771329787E+02  0.00000000000E+00 0.  1.
         25    2    1    2    0    0  0.27885782805E+02  0.10743088707E+03  0.42952869218E+03  0.46093459539E+03  0.12508713540E+03 0.  0.
         23    2    1    2    0    0 -0.27885782805E+02 -0.10743088707E+03  0.21385387119E+03  0.25799062755E+03  0.92231628536E+02 0.  0.
          5    1    3    3  502    0  0.77700001841E+02  0.62867750212E+02  0.26890276816E+03  0.28690732898E+03  0.41800000000E+01 0. -1.
         -5    1    3    3    0  502 -0.49814219036E+02  0.44563136858E+02  0.16062592402E+03  0.17402726641E+03  0.41800000000E+01 0. -1.
        -11    1    4    4    0    0  0.31615003772E+02 -0.61432036074E+02  0.10414292504E+03  0.12497660723E+03  0.00000000000E+00 0.  1.
         11    1    4    4    0    0 -0.59500786577E+02 -0.45998850996E+02  0.10971094615E+03  0.13301402032E+03  0.00000000000E+00 0. -1.
</event>
<event>
 8    1  0.3719512E-009  0.1520490E+03  0.7561462E-02  0.1197978E+00
          2   -1    0    0  501    0  0.00000000000E+00  0.00000000000E+00  0.39110181718E+03  0.39110181718E+03  0.00000000000E+00 0. -1.
         -2   -1    0    0    0  501 -0.00000000000E+00 -0.00000000000E+00 -0.63792617352E+02  0.63792617352E+02  0.00000000000E+00 0.  1.
         25    2    1    2    0    0 -0.32893984758E+02 -0.11062489874E+03  0.21801733902E+03  0.27658271611E+03  0.12508619541E+03 0.  0.
         23    2    1    2    0    0  0.32893984758E+02  0.11062489874E+03  0.10929186081E+03  0.17831171843E+03  0.80811358325E+02 0.  0.
          5    1    3    3  502    0 -0.77850580768E+02 -0.43815975634E+02  0.12000716239E+03  0.14966544047E+03  0.41800000000E+01 0.  1.
         -5    1    3    3    0  502  0.44956596010E+02 -0.66808923108E+02  0.98010176630E+02  0.12691727564E+03  0.41800000000E+01 0.  1.
        -11    1    4    4    0    0  0.47704804788E+02  0.41166112099E+02  0.24254325759E+02  0.67517919868E+02  0.00000000000E+00 0.  1.
         11    1    4    4    0    0 -0.14810820030E+02  0.69458786642E+02  0.85037535050E+02  0.11079379856E+03  0.00000000000E+00 0. -1.
</event>
<event>
 8    1  0.3719512E-009  0.1387253E+03  0.7561462E-02  0.1215055E+00
         -1   -1    0    0    0  501 -0.00000000000E+00  0.00000000000E+00  0.20412390870E+03  0.20412390870E+03  0.00000000000E+00 0.  1.
          1   -1    0    0  501    0  0.00000000000E+00 -0.00000000000E+00 -0.11571994772E+03  0.11571994772E+03  0.00000000000E+00 0. -1.
         25    2    1    2    0    0  0.17857046816E+01 -0.88780421642E+02  0.11423587378E+03  0.19126576880E+03  0.12509039711E+03 0.  0.
         23    2    1    2    0    0 -0.17857046816E+01  0.88780421642E+02 -0.25831912802E+02  0.12857808762E+03  0.89330201442E+02 0.  0.
          5    1    3    3  502    0  0.61365183313E+02 -0.63724346971E+02  0.68809074241E+02  0.11215453276E+03  0.41800000000E+01 0.  1.
         -5    1    3    3    0  502 -0.59579478631E+02 -0.25056074671E+02  0.45426799540E+02  0.79111236044E+02  0.41800000000E+01 0.  1.
        -11    1    4    4    0    0 -0.30098313080E+02  0.90871191269E+02 -0.28974415574E+02  0.10001499193E+03  0.00000000000E+00 0.  1.
         11    1    4    4    0    0  0.28312608398E+02 -0.20907696265E+01  0.31425027714E+01  0.28563095694E+02  0.00000000000E+00 0. -1.
</event>
<event>
 8    1  0.3719512E-009  0.1006337E+03  0.7561462E-02  0.1278969E+00
         -1   -1    0    0    0  501 -0.00000000000E+00  0.00000000000E+00  0.17018178579E+02  0.17018178579E+02  0.00000000000E+00 0.  1.
          1   -1    0    0  501    0  0.00000000000E+00 -0.00000000000E+00 -0.82715290088E+03  0.82715290088E+03  0.00000000000E+00 0. -1.
         25    2    1    2    0    0 -0.43091792382E+02  0.25759632907E+02 -0.47071467843E+03  0.48963219173E+03  0.12508762298E+03 0.  0.
         23    2    1    2    0    0  0.43091792382E+02 -0.25759632907E+02 -0.33942004387E+03  0.35453888773E+03  0.89282671765E+02 0.  0.
          5    1    3    3  502    0  0.26496211100E+02  0.70661359802E+01 -0.33296901743E+03  0.33412246026E+03  0.41800000000E+01 0. -1.
         -5    1    3    3    0  502 -0.69588003482E+02  0.18693496926E+02 -0.13774566101E+03  0.15550973147E+03  0.41800000000E+01 0. -1.
        -11    1    4    4    0    0 -0.12131840203E+02 -0.42058698911E+02 -0.12166569788E+03  0.12930064865E+03  0.00000000000E+00 0. -1.
         11    1    4    4    0    0  0.55223632585E+02  0.16299066004E+02 -0.21775434598E+03  0.22523823908E+03  0.00000000000E+00 0.  1.
</event>
<event>
 8    1  0.3719512E-009  0.1271326E+03  0.7561462E-02  0.1231774E+00
         -2   -1    0    0    0  501 -0.00000000000E+00  0.00000000000E+00  0.21352897353E+03  0.21352897353E+03  0.00000000000E+00 0.  1.
          2   -1    0    0  501    0  0.00000000000E+00 -0.00000000000E+00 -0.10344309562E+03  0.10344309562E+03  0.00000000000E+00 0. -1.
         25    2    1    2    0    0  0.82181289414E+02  0.38615682595E+02  0.12047144094E+02  0.15504164994E+03  0.12509134368E+03 0.  0.
         23    2    1    2    0    0 -0.82181289414E+02 -0.38615682595E+02  0.98038733818E+02  0.16193041920E+03  0.91460002521E+02 0.  0.
          5    1    3    3  502    0 -0.38867947421E+00  0.66818573868E+02  0.69976601815E+00  0.66953976417E+02  0.41800000000E+01 0. -1.
         -5    1    3    3    0  502  0.82569968888E+02 -0.28202891273E+02  0.11347378076E+02  0.88087673528E+02  0.41800000000E+01 0. -1.
        -11    1    4    4    0    0 -0.66561711549E+02 -0.99295395342E+01  0.10846236317E+03  0.12764459027E+03  0.00000000000E+00 0.  1.
         11    1    4    4    0    0 -0.15619577865E+02 -0.28686143061E+02 -0.10423629357E+02  0.34285828929E+02  0.00000000000E+00 0. -1.
</event>
<event>
 8    1  0.3719512E-009  0.2709213E+03  0.7561462E-02  0.1100753E+00
         -1   -1    0    0    0  501 -0.00000000000E+00  0.00000000000E+00  0.30874011087E+03  0.30874011087E+03  0.00000000000E+00 0.  1.
          1   -1    0    0  501    0  0.00000000000E+00 -0.00000000000E+00 -0.28787413981E+03  0.28787413981E+03  0.00000000000E+00 0. -1.
         25    2    1    2    0    0 -0.21479617432E+03  0.13577982657E+03  0.11890497089E+03  0.30717215350E+03  0.12507110769E+03 0.  0.
         23    2    1    2    0    0  0.21479617432E+03 -0.13577982657E+03 -0.98038999826E+02  0.28944209718E+03  0.97936327917E+02 0.  0.
          5    1    3    3  502    0 -0.18051784244E+03  0.64824333991E+02  0.12343752376E+03  0.22812974463E+03  0.41800000000E+01 0. -1.
         -5    1    3    3    0  502 -0.34278331883E+02  0.70955492579E+02 -0.45325528748E+01  0.79042408867E+02  0.41800000000E+01 0. -1.
        -11    1    4    4    0    0  0.45049435488E+02 -0.81050696950E+02 -0.46837942544E+02  0.10388676516E+03  0.00000000000E+00 0.  1.
         11    1    4    4    0    0  0.16974673883E+03 -0.54729129621E+02 -0.51201057282E+02  0.18555533202E+03  0.00000000000E+00 0. -1.
</event>
<event>
 8    1  0.3719512E-009  0.1197272E+03  0.7561462E-02  0.1243548E+00
         -2   -1    0    0    0  501 -0.00000000000E+00  0.00000000000E+00  0.18301867893E+02  0.18301867893E+02  0.00000000000E+00 0.  1.
          2   -1    0    0  501    0  0.00000000000E+00 -0.00000000000E+00 -0.83042312984E+03  0.83042312984E+03  0.00000000000E+00 0. -1.
         25    2    1    2    0    0 -0.19565331191E+01 -0.61760719507E+02 -0.46108333443E+03  0.48172927209E+03  0.12508811218E+03 0.  0.
         23    2    1    2    0    0  0.19565331191E+01  0.61760719507E+02 -0.35103792751E+03  0.36699572563E+03  0.87407217006E+02 0.  0.
          5    1    3    3  502    0  0.46870732087E+02 -0.75193644586E+02 -0.29357893520E+03  0.30668715869E+03  0.41800000000E+01 0. -1.
         -5    1    3    3    0  502 -0.48827265206E+02  0.13432925079E+02 -0.16750439923E+03  0.17504211340E+03  0.41800000000E+01 0. -1.
        -11    1    4    4    0    0  0.40007098938E+02  0.25959516171E+02 -0.10286188860E+03  0.11338003604E+03  0.00000000000E+00 0. -1.
         11    1    4    4    0    0 -0.38050565819E+02  0.35801203336E+02 -0.24817603891E+03  0.25361568959E+03  0.00000000000E+00 0.  1.
</event>
<event>
 8    1  0.3719512E-009  0.1028748E+03  0.7561462E-02  0.1274364E+00
         -1   -1    0    0    0  501 -0.00000000000E+00  0.00000000000E+00  0.53411003268E+03  0.53411003268E+03  0.00000000000E+00 0.  1.
          1   -1    0    0  501    0  0.00000000000E+00 -0.00000000000E+00 -0.24470631008E+02  0.24470631008E+02  0.00000000000E+00 0. -1.
         25    2    1    2    0    0 -0.21786560975E+02  0.29379694978E+01  0.36370827738E+03  0.38524643788E+03  0.12509125055E+03 0.  0.
         23    2    1    2    0    0  0.21786560975E+02 -0.29379694978E+01  0.14593112429E+03  0.17333422581E+03  0.90915207168E+02 0.  0.
          5    1    3    3  502    0 -0.17384521477E+02 -0.59452627901E+02  0.21702377104E+03  0.22572909903E+03  0.41800000000E+01 0. -1.
         -5    1    3    3    0  502 -0.44020394979E+01  0.62390597398E+02  0.14668450633E+03  0.15951733885E+03  0.41800000000E+01 0. -1.
        -11    1    4    4    0    0  0.41456129751E+02 -0.27324293382E+02  0.42809316544E+02  0.65558106178E+02  0.00000000000E+00 0. -1.
         11    1    4    4    0    0 -0.19669568776E+02  0.24386323884E+02  0.10312180775E+03  0.10777611963E+03  0.00000000000E+00 0.  1.
</event>
<event>
 8    1  0.3719512E-009  0.9218714E+02  0.7561462E-02  0.1297640E+00
          1   -1    0    0  501    0  0.00000000000E+00  0.00000000000E+00  0.11595242975E+03  0.11595242975E+03  0.00000000000E+00 0. -1.
         -1   -1    0    0    0  501 -0.00000000000E+00 -0.00000000000E+00 -0.12325885276E+03  0.12325885276E+03  0.00000000000E+00 0.  1.
         25    2    1    2    0    0 -0.27483266527E+02  0.11367695454E+01 -0.45968273724E+02  0.13608178167E+03  0.12509415226E+03 0.  0.
         23    2    1    2    0    0  0.27483266527E+02 -0.11367695454E+01  0.38661850713E+02  0.10312950084E+03  0.91566003842E+02 0.  0.
          5    1    3    3  502    0 -0.67325628459E+02  0.12265273613E+02 -0.61099843643E+02  0.91835943275E+02  0.41800000000E+01 0. -1.
         -5    1    3    3    0  502  0.39842361932E+02 -0.11128504068E+02  0.15131569919E+02  0.44245838395E+02  0.41800000000E+01 0. -1.
        -11    1    4    4    0    0  0.25190490028E+01  0.32360529965E+02 -0.14472308574E+02  0.35538672217E+02  0.00000000000E+00 0.  1.
         11    1    4    4    0    0  0.24964217524E+02 -0.33497299511E+02  0.53134159288E+02  0.67590828625E+02  0.00000000000E+00 0. -1.
</event>
<event>
 8    1  0.3719512E-009  0.1415551E+03  0.7561462E-02  0.1211252E+00
          1   -1    0    0  501    0  0.00000000000E+00  0.00000000000E+00  0.83136048376E+02  0.83136048376E+02  0.00000000000E+00 0. -1.
         -1   -1    0    0    0  501 -0.00000000000E+00 -0.00000000000E+00 -0.30842068083E+03  0.30842068083E+03  0.00000000000E+00 0.  1.
         25    2    1    2    0    0 -0.90994888270E+02  0.69735750051E+02 -0.89884738437E+02  0.19202192730E+03  0.12509999933E+03 0.  0.
         23    2    1    2    0    0  0.90994888270E+02 -0.69735750051E+02 -0.13539989402E+03  0.19953480191E+03  0.91311890501E+02 0.  0.
          5    1    3    3  502    0 -0.59078296430E+02 -0.23998236883E+02 -0.99010898995E+01  0.64665790522E+02  0.41800000000E+01 0.  1.
         -5    1    3    3    0  502 -0.31916591839E+02  0.93733986934E+02 -0.79983648537E+02  0.12735613678E+03  0.41800000000E+01 0.  1.
        -11    1    4    4    0    0  0.90863113609E+02 -0.56783550764E+02 -0.14716357478E+03  0.18203734450E+03  0.00000000000E+00 0. -1.
         11    1    4    4    0    0  0.13177466050E+00 -0.12952199287E+02  0.11763680756E+02  0.17497457411E+02  0.00000000000E+00 0.  1.
</event>
<event>
 8    1  0.3719512E-009  0.1344763E+03  0.7561462E-02  0.1220961E+00
         -2   -1    0    0    0  501 -0.00000000000E+00  0.00000000000E+00  0.11038504907E+03  0.11038504907E+03  0.00000000000E+00 0.  1.
          2   -1    0    0  501    0  0.00000000000E+00 -0.00000000000E+00 -0.47707274382E+03  0.47707274382E+03  0.00000000000E+00 0. -1.
         25    2    1    2    0    0  0.39826946986E+02 -0.10366029212E+03 -0.40556488258E+03  0.43870421435E+03  0.12508745677E+03 0.  0.
         23    2    1    2    0    0 -0.39826946986E+02  0.10366029212E+03  0.38877187825E+02  0.14875357854E+03  0.91019500802E+02 0.  0.
          5    1    3    3  502    0 -0.55664485404E+01 -0.71118115078E+02 -0.35848118271E+03  0.36553385944E+03  0.41800000000E+01 0. -1.
         -5    1    3    3    0  502  0.45393395527E+02 -0.32542177044E+02 -0.47083699866E+02  0.73170354907E+02  0.41800000000E+01 0. -1.
        -11    1    4    4    0    0  0.69800434432E+01 -0.13567873163E+02 -0.34040865951E+01  0.15633169678E+02  0.00000000000E+00 0. -1.
         11    1    4    4    0    0 -0.46806990429E+02  0.11722816528E+03  0.42281274420E+02  0.13312040886E+03  0.00000000000E+00 0.  1.
</event>
<event>
 8    1  0.3719512E-009  0.1482752E+03  0.7561462E-02  0.1202609E+00
         -1   -1    0    0    0  501 -0.00000000000E+00  0.00000000000E+00  0.11777049434E+03  0.11777049434E+03  0.00000000000E+00 0.  1.
          1   -1    0    0  501    0  0.00000000000E+00 -0.00000000000E+00 -0.20418484510E+03  0.20418484510E+03  0.00000000000E+00 0. -1.
         25    2    1    2    0    0 -0.25660657110E+02 -0.10399354966E+03 -0.30008066028E+02  0.16739628021E+03  0.12509157809E+03 0.  0.
         23    2    1    2    0    0  0.25660657110E+02  0.10399354966E+03 -0.56406284730E+02  0.15455905922E+03  0.96092175210E+02 0.  0.
          5    1    3    3  502    0  0.27016860457E+02 -0.10508988224E+03 -0.44297290008E+01  0.10867791403E+03  0.41800000000E+01 0. -1.
         -5    1    3    3    0  502 -0.52677517567E+02  0.10963325837E+01 -0.25578337027E+02  0.58718366183E+02  0.41800000000E+01 0. -1.
        -11    1    4    4    0    0  0.46752028392E+02  0.24337729624E+02 -0.48762765633E+02  0.71804488399E+02  0.00000000000E+00 0.  1.
         11    1    4    4    0    0 -0.21091371282E+02  0.79655820037E+02 -0.76435190976E+01  0.82754570825E+02  0.00000000000E+00 0. -1.
</event>
<event>
 8    1  0.3719512E-009  0.1422358E+03  0.7561462E-02  0.1210352E+00
          2   -1    0    0  501    0  0.00000000000E+00  0.00000000000E+00  0.15961316012E+03  0.15961316012E+03  0.00000000000E+00 0. -1.
         -2   -1    0    0    0  501 -0.00000000000E+00 -0.00000000000E+00 -0.15192827012E+03  0.15192827012E+03  0.00000000000E+00 0.  1.
         25    2    1    2    0    0 -0.67136424240E+02  0.86264152659E+02  0.23984996301E+02  0.16784786873E+03  0.12509525768E+03 0.  0.
         23    2    1    2    0    0  0.67136424240E+02 -0.86264152659E+02 -0.16300106298E+02  0.14369356151E+03  0.91833232880E+02 0.  0.
          5    1    3    3  502    0  0.17043336765E+02  0.76316282208E+02 -0.42031754702E+01  0.78420592590E+02  0.41800000000E+01 0.  1.
         -5    1    3    3    0  502 -0.84179761005E+02  0.99478704512E+01  0.28188171771E+02  0.89427276137E+02  0.41800000000E+01 0.  1.
        -11    1    4    4    0    0 -0.89783824863E+01 -0.11652296936E+02 -0.32697891988E+02  0.35854421156E+02  0.00000000000E+00 0.  1.
         11    1    4    4    0    0  0.76114806726E+02 -0.74611855723E+02  0.16397785690E+02  0.10783914036E+03  0.00000000000E+00 0. -1.
</event>
<event>
 8    1  0.3719512E-009  0.9549213E+02  0.7561462E-02  0.1290072E+00
          2   -1    0    0  501    0  0.00000000000E+00  0.00000000000E+00  0.17516705117E+04  0.17516705117E+04  0.00000000000E+00 0. -1.
         -2   -1    0    0    0  501 -0.00000000000E+00 -0.00000000000E+00 -0.12965197784E+02  0.12965197784E+02  0.00000000000E+00 0.  1.
         25    2    1    2    0    0 -0.18681114334E+02  0.36616610746E+02  0.14814005214E+04  0.14872407899E+04  0.12509157494E+03 0.  0.
         23    2    1    2    0    0  0.18681114334E+02 -0.36616610746E+02  0.25730479256E+03  0.27739491963E+03  0.95144232336E+02 0.  0.
          5    1    3    3  502    0 -0.18803571061E+02 -0.29610939853E+02  0.10650056218E+04  0.10655913048E+04  0.41800000000E+01 0.  1.
         -5    1    3    3    0  502  0.12245672647E+00  0.66227550599E+02  0.41639489959E+03  0.42164948507E+03  0.41800000000E+01 0.  1.
        -11    1    4    4    0    0  0.12410332621E+01  0.25118221561E+02  0.21713186569E+02  0.33225407280E+02  0.00000000000E+00 0.  1.
         11    1    4    4    0    0  0.17440081072E+02 -0.61734832306E+02  0.23559160600E+03  0.24416951235E+03  0.00000000000E+00 0. -1.
</event>
<event>
 8    1  0.3719512E-009  0.9847041E+02  0.7561462E-02  0.1283546E+00
          1   -1    0    0  501    0  0.00000000000E+00  0.00000000000E+00  0.76374143078E+02  0.76374143078E+02  0.00000000000E+00 0. -1.
         -1   -1    0    0    0  501 -0.00000000000E+00 -0.00000000000E+00 -0.16907266862E+03  0.16907266862E+03  0.00000000000E+00 0.  1.
         25    2    1    2    0    0  0.33123249050E+02  0.85311400901E+01 -0.55471692423E+02  0.14104564414E+03  0.12508730987E+03 0.  0.
         23    2    1    2    0    0 -0.33123249050E+02 -0.85311400901E+01 -0.37226833117E+02  0.10440116756E+03  0.91344604134E+02 0.  0.
          5    1    3    3  502    0 -0.31426877278E+02 -0.27922674695E+02  0.84349683266E+01  0.43080685559E+02  0.41800000000E+01 0.  1.
         -5    1    3    3    0  502  0.64550126328E+02  0.36453814786E+02 -0.63906660749E+02  0.97964958580E+02  0.41800000000E+01 0.  1.
        -11    1    4    4    0    0 -0.99756259375E+01  0.32136947877E+02  0.12706168421E+02  0.35968642561E+02  0.00000000000E+00 0. -1.
         11    1    4    4    0    0 -0.23147623113E+02 -0.40668087968E+02 -0.49933001538E+02  0.68432524996E+02  0.00000000000E+00 0.  1.
</event>
<event>
 8    1  0.3719512E-009  0.9383007E+02  0.7561462E-02  0.1293833E+00
         -2   -1    0    0    0  501 -0.00000000000E+00  0.00000000000E+00  0.79928002276E+02  0.79928002276E+02  0.00000000000E+00 0.  1.
          2   -1    0    0  501    0  0.00000000000E+00 -0.00000000000E+00 -0.18020584553E+03  0.18020584553E+03  0.00000000000E+00 0. -1.
         25    2    1    2    0    0  0.19406713386E+02 -0.94301757994E+01 -0.55549172247E+01  0.12705965842E+03  0.12509097071E+03 0.  0.
         23    2    1    2    0    0 -0.19406713386E+02  0.94301757994E+01 -0.94722926033E+02  0.13307418939E+03  0.90943710196E+02 0.  0.
          5    1    3    3  502    0  0.58096547261E+02 -0.12596441077E+02  0.36334140374E+02  0.69796284200E+02  0.41800000000E+01 0. -1.
         -5    1    3    3    0  502 -0.38689833875E+02  0.31662652771E+01 -0.41889057599E+02  0.57263374225E+02  0.41800000000E+01 0. -1.
        -11    1    4    4    0    0 -0.49657101764E+02  0.24336120540E+02 -0.38047604997E+02  0.67124472174E+02  0.00000000000E+00 0.  1.
         11    1    4    4    0    0  0.30250388379E+02 -0.14905944741E+02 -0.56675321036E+02  0.65949717211E+02  0.00000000000E+00 0. -1.
</event>
<event>
 8    1  0.3719512E-009  0.1267291E+03  0.7561462E-02  0.1232391E+00
          1   -1    0    0  501    0  0.00000000000E+00  0.00000000000E+00  0.51298865712E+03  0.51298865712E+03  0.00000000000E+00 0. -1.
         -1   -1    0    0    0  501 -0.00000000000E+00 -0.00000000000E+00 -0.55257213625E+02  0.55257213625E+02  0.00000000000E+00 0.  1.
         25    2    1    2    0    0  0.66485651380E+02 -0.46663851822E+02  0.41227960780E+03  0.43842892268E+03  0.12509032069E+03 0.  0.
         23    2    1    2    0    0 -0.66485651380E+02  0.46663851822E+02  0.45451835694E+02  0.12981694806E+03  0.90491511923E+02 0.  0.
          5    1    3    3  502    0 -0.30409737267E+02 -0.61274788828E+01  0.35820096539E+02  0.47569421209E+02  0.41800000000E+01 0.  1.
         -5    1    3    3    0  502  0.96895388646E+02 -0.40536372939E+02  0.37645951126E+03  0.39085950147E+03  0.41800000000E+01 0.  1.
        -11    1    4    4    0    0  0.13365581621E+02  0.33557511667E+02  0.31035795372E+02  0.47623166166E+02  0.00000000000E+00 0. -1.
         11    1    4    4    0    0 -0.79851233000E+02  0.13106340155E+02  0.14416040323E+02  0.82193781897E+02  0.00000000000E+00 0.  1.
</event>
<event>
 8    1  0.3719512E-009  0.1234616E+03  0.7561462E-02  0.1237493E+00
          2   -1    0    0  501    0  0.00000000000E+00  0.00000000000E+00  0.18548875447E+04  0.18548875447E+04  0.00000000000E+00 0. -1.
         -2   -1    0    0    0  501 -0.00000000000E+00 -0.00000000000E+00 -0.97820599598E+01  0.97820599598E+01  0.00000000000E+00 0.  1.
         25    2    1    2    0    0 -0.41405999717E+02  0.50620280346E+02  0.13174867820E+04  0.13250267732E+04  0.12509060475E+03 0.  0.
         23    2    1    2    0    0  0.41405999717E+02 -0.50620280346E+02  0.52761870270E+03  0.53964283140E+03  0.92498759194E+02 0.  0.
          5    1    3    3  502    0  0.33135820534E+02  0.50073335328E+02  0.39948121604E+03  0.40399014330E+03  0.41800000000E+01 0.  1.
         -5    1    3    3    0  502 -0.74541820251E+02  0.54694501762E+00  0.91800556597E+03  0.92103662993E+03  0.41800000000E+01 0.  1.
        -11    1    4    4    0    0  0.70132386569E+02 -0.43321191705E+02  0.42023699906E+03  0.42824573866E+03  0.00000000000E+00 0.  1.
         11    1    4    4    0    0 -0.28726386852E+02 -0.72990886404E+01  0.10738170364E+03  0.11139709275E+03  0.00000000000E+00 0. -1.
</event>
<event>
 8    1  0.3719512E-009  0.9915897E+02  0.7561462E-02  0.1282075E+00
         -1   -1    0    0    0  501 -0.00000000000E+00  0.00000000000E+00  0.39620563987E+02  0.39620563987E+02  0.00000000000E+00 0.  1.
          1   -1    0    0  501    0  0.00000000000E+00 -0.00000000000E+00 -0.42502608193E+03  0.42502608193E+03  0.00000000000E+00 0. -1.
         25    2    1    2    0    0 -0.21455805266E+02  0.42771955250E+02 -0.31264059187E+03  0.34012029344E+03  0.12509149687E+03 0.  0.
         23    2    1    2    0    0  0.21455805266E+02 -0.42771955250E+02 -0.72764926075E+02  0.12452635248E+03  0.89007225883E+02 0.  0.
          5    1    3    3  502    0 -0.67021668739E+02  0.48606349714E+02 -0.15380713229E+03  0.17472431902E+03  0.41800000000E+01 0. -1.
         -5    1    3    3    0  502  0.45565863473E+02 -0.58343944643E+01 -0.15883345958E+03  0.16539597442E+03  0.41800000000E+01 0. -1.
        -11    1    4    4    0    0  0.37984761029E+02 -0.29462012850E+02  0.68079015445E+00  0.48076145299E+02  0.00000000000E+00 0.  1.
         11    1    4    4    0    0 -0.16528955763E+02 -0.13309942400E+02 -0.73445716230E+02  0.76450207180E+02  0.00000000000E+00 0. -1.
</event>
<event>
 8    1  0.3719512E-009  0.1073413E+03  0.7561462E-02  0.1265574E+00
          2   -1    0    0  501    0  0.00000000000E+00  0.00000000000E+00  0.33744615676E+03  0.33744615676E+03  0.00000000000E+00 0. -1.
         -2   -1    0    0    0  501 -0.00000000000E+00 -0.00000000000E+00 -0.36988641545E+02  0.36988641545E+02  0.00000000000E+00 0.  1.
         25    2    1    2    0    0 -0.27161599350E+02  0.18392114794E+02  0.15328137916E+03  0.20054526807E+03  0.12508877241E+03 0.  0.
         23    2    1    2    0    0  0.27161599350E+02 -0.18392114794E+02  0.14717613606E+03  0.17388953023E+03  0.86606762633E+02 0.  0.
          5    1    3    3  502    0 -0.54988353464E+02 -0.36738309113E+02  0.92587644378E+02  0.11385678137E+03  0.41800000000E+01 0. -1.
         -5    1    3    3    0  502  0.27826754114E+02  0.55130423907E+02  0.60693734779E+02  0.86688486699E+02  0.41800000000E+01 0. -1.
        -11    1    4    4    0    0  0.19910843179E+02 -0.50144344641E+02  0.59295346852E+02  0.80167544142E+02  0.00000000000E+00 0.  1.
         11    1    4    4    0    0  0.72507561712E+01  0.31752229847E+02  0.87880789204E+02  0.93721986088E+02  0.00000000000E+00 0. -1.
</event>
<event>
 8    1  0.3719512E-009  0.1421539E+03  0.7561462E-02  0.1210460E+00
          2   -1    0    0  501    0  0.00000000000E+00  0.00000000000E+00  0.16651277483E+04  0.16651277483E+04  0.00000000000E+00 0. -1.
         -2   -1    0    0    0  501 -0.00000000000E+00 -0.00000000000E+00 -0.16847136689E+02  0.16847136689E+02  0.00000000000E+00 0.  1.
         25    2    1    2    0    0  0.93139325512E+02  0.40260895527E+02  0.12758668190E+04  0.12859934642E+04  0.12508867531E+03 0.  0.
         23    2    1    2    0    0 -0.93139325512E+02 -0.40260895527E+02  0.37241379269E+03  0.39598142078E+03  0.88393319620E+02 0.  0.
          5    1    3    3  502    0  0.93195549279E+02  0.77047092230E+02  0.85787036370E+03  0.86636060514E+03  0.41800000000E+01 0.  1.
         -5    1    3    3    0  502 -0.56223766217E-01 -0.36786196702E+02  0.41799645526E+03  0.41963285910E+03  0.41800000000E+01 0.  1.
        -11    1    4    4    0    0 -0.52879242411E+00  0.17262862589E+02  0.17045007939E+02  0.24265579363E+02  0.00000000000E+00 0.  1.
         11    1    4    4    0    0 -0.92610533088E+02 -0.57523758116E+02  0.35536878475E+03  0.37171584141E+03  0.00000000000E+00 0. -1.
</event>
<event>
 8    1  0.3719512E-009  0.1159847E+03  0.7561462E-02  0.1249872E+00
         -1   -1    0    0    0  501 -0.00000000000E+00  0.00000000000E+00  0.39763951644E+02  0.39763951644E+02  0.00000000000E+00 0.  1.
          1   -1    0    0  501    0  0.00000000000E+00 -0.00000000000E+00 -0.37015826508E+03  0.37015826508E+03  0.00000000000E+00 0. -1.
         25    2    1    2    0    0 -0.54618753943E+02 -0.21770761796E+01 -0.17767618713E+03  0.22406394797E+03  0.12509147598E+03 0.  0.
         23    2    1    2    0    0  0.54618753943E+02  0.21770761796E+01 -0.15271812630E+03  0.18585826875E+03  0.90733246493E+02 0.  0.
          5    1    3    3  502    0 -0.61536070490E+02 -0.50521869581E+02 -0.71387658008E+02  0.10701783680E+03  0.41800000000E+01 0. -1.
         -5    1    3    3    0  502  0.69173165467E+01  0.48344793402E+02 -0.10628852912E+03  0.11704611117E+03  0.41800000000E+01 0. -1.
        -11    1    4    4    0    0  0.46188401558E+02  0.42054986457E+02 -0.71196475807E+02  0.94714985571E+02  0.00000000000E+00 0.  1.
         11    1    4    4    0    0  0.84303523852E+01 -0.39877910278E+02 -0.81521650496E+02  0.91143283182E+02  0.00000000000E+00 0. -1.
</event>
<event>
 8    1  0.3719512E-009  0.1263379E+03  0.7561462E-02  0.1232993E+00
         -1   -1    0    0    0  501 -0.00000000000E+00  0.00000000000E+00  0.28437844718E+02  0.28437844718E+02  0.00000000000E+00 0.  1.
          1   -1    0    0  501    0  0.00000000000E+00 -0.00000000000E+00 -0.72525119037E+03  0.72525119037E+03  0.00000000000E+00 0. -1.
         25    2    1    2    0    0 -0.95312859289E+01 -0.89716719311E+02 -0.32710204447E+03  0.36163962798E+03  0.12509011909E+03 0.  0.
         23    2    1    2    0    0  0.95312859289E+01  0.89716719311E+02 -0.36971130118E+03  0.39204940711E+03  0.94214416400E+02 0.  0.
          5    1    3    3  502    0 -0.60452524868E+02 -0.53991866454E+02 -0.24788019303E+03  0.26082885558E+03  0.41800000000E+01 0.  1.
         -5    1    3    3    0  502  0.50921238939E+02 -0.35724852857E+02 -0.79221851448E+02  0.10081077241E+03  0.41800000000E+01 0.  1.
        -11    1    4    4    0    0 -0.26228773526E+02  0.42486504691E+02 -0.28083401775E+03  0.28523814115E+03  0.00000000000E+00 0. -1.
         11    1    4    4    0    0  0.35760059455E+02  0.47230214620E+02 -0.88877283428E+02  0.10681126595E+03  0.00000000000E+00 0.  1.
</event>
<event>
 8    1  0.3719512E-009  0.1597211E+03  0.7561462E-02  0.1189012E+00
          2   -1    0    0  501    0  0.00000000000E+00  0.00000000000E+00  0.71846698147E+02  0.71846698147E+02  0.00000000000E+00 0.  1.
         -2   -1    0    0    0  501 -0.00000000000E+00 -0.00000000000E+00 -0.41542679326E+03  0.41542679326E+03  0.00000000000E+00 0. -1.
         25    2    1    2    0    0 -0.22654004831E+02  0.13198591004E+03 -0.17462665053E+03  0.25313032756E+03  0.12508801410E+03 0.  0.
         23    2    1    2    0    0  0.22654004831E+02 -0.13198591004E+03 -0.16895344458E+03  0.23414316384E+03  0.91346977809E+02 0.  0.
          5    1    3    3  502    0 -0.21236620109E+02 -0.80363243996E+01 -0.81993595563E+02  0.85182149872E+02  0.41800000000E+01 0.  1.
         -5    1    3    3    0  502 -0.14173847213E+01  0.14002223444E+03 -0.92633054970E+02  0.16794817769E+03  0.41800000000E+01 0.  1.
        -11    1    4    4    0    0  0.52194026622E+02 -0.67441108526E+02 -0.12268184791E+03  0.14941002423E+03  0.00000000000E+00 0. -1.
         11    1    4    4    0    0 -0.29540021791E+02 -0.64544801514E+02 -0.46271596667E+02  0.84733139609E+02  0.00000000000E+00 0.  1.
</event>
<event>
 8    1  0.3719512E-009  0.8128220E+02  0.7561462E-02  0.1325452E+00
          1   -1    0    0  501    0  0.00000000000E+00  0.00000000000E+00  0.35862072346E+02  0.35862072346E+02  0.00000000000E+00 0. -1.
         -1   -1    0    0    0  501 -0.00000000000E+00 -0.00000000000E+00 -0.35803792480E+03  0.35803792480E+03  0.00000000000E+00 0.  1.
         25    2    1    2    0    0  0.66422444091E+01 -0.23350922973E+02 -0.23447573593E+03  0.26686273339E+03  0.12508981861E+03 0.  0.
         23    2    1    2    0    0 -0.66422444091E+01  0.23350922973E+02 -0.87700116525E+02  0.12703726375E+03  0.88644068775E+02 0.  0.
          5    1    3    3  502    0 -0.23016143196E+02  0.36889622750E+02 -0.33862718572E+02  0.55269731529E+02  0.41800000000E+01 0.  1.
         -5    1    3    3    0  502  0.29658387605E+02 -0.60240545723E+02 -0.20061301736E+03  0.21159300186E+03  0.41800000000E+01 0.  1.
        -11    1    4    4    0    0  0.15825282252E+02  0.24436934910E+02  0.67997781091E+01  0.29897162549E+02  0.00000000000E+00 0. -1.
         11    1    4    4    0    0 -0.22467526661E+02 -0.10860119364E+01 -0.94499894634E+02  0.97140101204E+02  0.00000000000E+00 0.  1.
</event>
<event>
 8    1  0.3719512E-009  0.1113181E+03  0.7561462E-02  0.1258148E+00
          2   -1    0    0  501    0  0.00000000000E+00  0.00000000000E+00  0.37006260488E+02  0.37006260488E+02  0.00000000000E+00 0. -1.
         -2   -1    0    0    0  501 -0.00000000000E+00 -0.00000000000E+00 -0.77815164206E+03  0.77815164206E+03  0.00000000000E+00 0.  1.
         25    2    1    2    0    0  0.22165538610E+02  0.74576421521E+02 -0.66175884576E+03  0.67795671807E+03  0.12509031891E+03 0.  0.
         23    2    1    2    0    0 -0.22165538610E+02 -0.74576421521E+02 -0.79386535805E+02  0.13720118447E+03  0.80430026761E+02 0.  0.
          5    1    3    3  502    0  0.58866964675E+02  0.87455213724E+02 -0.41973477399E+03  0.43279150503E+03  0.41800000000E+01 0. -1.
         -5    1    3    3    0  502 -0.36701426065E+02 -0.12878792203E+02 -0.24202407178E+03  0.24516521304E+03  0.41800000000E+01 0. -1.
        -11    1    4    4    0    0 -0.15692797155E+02 -0.60774808206E+02 -0.95971277243E+02  0.11467487628E+03  0.00000000000E+00 0.  1.
         11    1    4    4    0    0 -0.64727414551E+01 -0.13801613315E+02  0.16584741438E+02  0.22526308189E+02  0.00000000000E+00 0. -1.
</event>
<event>
 8    1  0.3719512E-009  0.1210123E+03  0.7561462E-02  0.1241436E+00
          2   -1    0    0  501    0  0.00000000000E+00  0.00000000000E+00  0.62695736295E+02  0.62695736295E+02  0.00000000000E+00 0. -1.
         -2   -1    0    0    0  501 -0.00000000000E+00 -0.00000000000E+00 -0.32134659179E+03  0.32134659179E+03  0.00000000000E+00 0.  1.
         25    2    1    2    0    0  0.28011304771E+02  0.69499834536E+02 -0.71383668769E+02  0.16235801651E+03  0.12509850984E+03 0.  0.
         23    2    1    2    0    0 -0.28011304771E+02 -0.69499834536E+02 -0.18726718672E+03  0.22168431157E+03  0.91978663701E+02 0.  0.
          5    1    3    3  502    0 -0.89588722346E+01  0.96750435482E+02 -0.34116408509E+02  0.10306459085E+03  0.41800000000E+01 0. -1.
         -5    1    3    3    0  502  0.36970177005E+02 -0.27250600945E+02 -0.37267260260E+02  0.59293425664E+02  0.41800000000E+01 0. -1.
        -11    1    4    4    0    0  0.67675164472E+01 -0.62887625437E+02 -0.17175848581E+03  0.18303450538E+03  0.00000000000E+00 0.  1.
         11    1    4    4    0    0 -0.34778821218E+02 -0.66122090995E+01 -0.15508700918E+02  0.38649806192E+02  0.00000000000E+00 0. -1.
</event>
<event>
 8    1  0.3719512E-009  0.1381115E+03  0.7561462E-02  0.1215893E+00
         -2   -1    0    0    0  501 -0.00000000000E+00  0.00000000000E+00  0.30935635250E+03  0.30935635250E+03  0.00000000000E+00 0.  1.
          2   -1    0    0  501    0  0.00000000000E+00 -0.00000000000E+00 -0.69069037651E+02  0.69069037651E+02  0.00000000000E+00 0. -1.
         25    2    1    2    0    0  0.87430952367E+02  0.40237643230E+02  0.16319271866E+03  0.22702919964E+03  0.12508858742E+03 0.  0.
         23    2    1    2    0    0 -0.87430952367E+02 -0.40237643230E+02  0.77094596188E+02  0.15139619050E+03  0.87829325247E+02 0.  0.
          5    1    3    3  502    0  0.53618581440E+01 -0.34318367851E+02  0.83162722663E+02  0.90222008044E+02  0.41800000000E+01 0.  1.
         -5    1    3    3    0  502  0.82069094223E+02  0.74556011081E+02  0.80029995995E+02  0.13680719160E+03  0.41800000000E+01 0.  1.
        -11    1    4    4    0    0 -0.73591890099E+02  0.13473928941E+02  0.43107917051E+02  0.86345848551E+02  0.00000000000E+00 0.  1.
         11    1    4    4    0    0 -0.13839062268E+02 -0.53711572171E+02  0.33986679137E+02  0.65050341954E+02  0.00000000000E+00 0. -1.
</event>
<event>
 8    1  0.3719512E-009  0.1115175E+03  0.7561462E-02  0.1257785E+00
         -2   -1    0    0    0  501 -0.00000000000E+00  0.00000000000E+00  0.28945805987E+02  0.28945805987E+02  0.00000000000E+00 0.  1.
          2   -1    0    0  501    0  0.00000000000E+00 -0.00000000000E+00 -0.52157424955E+03  0.52157424955E+03  0.00000000000E+00 0. -1.
         25    2    1    2    0    0 -0.35877674271E+02 -0.34539147686E+02 -0.21082498416E+03  0.25015018742E+03  0.12509109515E+03 0.  0.
         23    2    1    2    0    0  0.35877674271E+02  0.34539147686E+02 -0.28180345940E+03  0.30036986812E+03  0.91261753801E+02 0.  0.
          5    1    3    3  502    0  0.37049779083E+02 -0.32355299483E+02 -0.37328466732E+02  0.61890535329E+02  0.41800000000E+01 0.  1.
         -5    1    3    3    0  502 -0.72927453355E+02 -0.21838482029E+01 -0.17349651743E+03  0.18825965209E+03  0.41800000000E+01 0.  1.
        -11    1    4    4    0    0 -0.14817615212E+02 -0.20800735070E+02 -0.42595815467E+02  0.49665237293E+02  0.00000000000E+00 0.  1.
         11    1    4    4    0    0  0.50695289483E+02  0.55339882756E+02 -0.23920764394E+03  0.25070463082E+03  0.00000000000E+00 0. -1.
</event>
<event>
 8    1  0.3719512E-009  0.1172346E+03  0.7561462E-02  0.1247730E+00
          2   -1    0    0  501    0  0.00000000000E+00  0.00000000000E+00  0.19016133996E+04  0.19016133996E+04  0.00000000000E+00 0. -1.
         -2   -1    0    0    0  501 -0.00000000000E+00 -0.00000000000E+00 -0.18805775909E+02  0.18805775909E+02  0.00000000000E+00 0.  1.
         25    2    1    2    0    0 -0.12312347786E+02 -0.10071059226E+03  0.15807782855E+04  0.15889620628E+04  0.12508489821E+03 0.  0.
         23    2    1    2    0    0  0.12312347786E+02  0.10071059226E+03  0.30202933822E+03  0.33145711275E+03  0.91366728884E+02 0.  0.
          5    1    3    3  502    0  0.12095125642E+02 -0.26890096819E+02  0.11967143861E+04  0.11970848607E+04  0.41800000000E+01 0. -1.
         -5    1    3    3    0  502 -0.24407473428E+02 -0.73820495443E+02  0.38406389937E+03  0.39187720208E+03  0.41800000000E+01 0. -1.
        -11    1    4    4    0    0  0.36389296067E+02  0.17836716091E+02  0.46157637240E+02  0.61423584922E+02  0.00000000000E+00 0.  1.
         11    1    4    4    0    0 -0.24076948280E+02  0.82873876171E+02  0.25587170098E+03  0.27003352783E+03  0.00000000000E+00 0. -1.
</event>
<event>
 8    1  0.3719512E-009  0.1032322E+03  0.7561462E-02  0.1273642E+00
          1   -1    0    0  501    0  0.00000000000E+00  0.00000000000E+00  0.85427632590E+02  0.85427632590E+02  0.00000000000E+00 0. -1.
         -1   -1    0    0    0  501 -0.00000000000E+00 -0.00000000000E+00 -0.19747370796E+03  0.19747370796E+03  0.00000000000E+00 0.  1.
         25    2    1    2    0    0 -0.30898569802E+02  0.13215145005E+02 -0.13101962828E+03  0.18423760549E+03  0.12509192864E+03 0.  0.
         23    2    1    2    0    0  0.30898569802E+02 -0.13215145005E+02  0.18973552911E+02  0.98663735054E+02  0.90802947261E+02 0.  0.
          5    1    3    3  502    0 -0.50523336727E+01 -0.45242106875E+02 -0.92385972820E+01  0.46639022179E+02  0.41800000000E+01 0. -1.
         -5    1    3    3    0  502 -0.25846236129E+02  0.58457251881E+02 -0.12178103100E+03  0.13759858331E+03  0.41800000000E+01 0. -1.
        -11    1    4    4    0    0  0.50216109346E+02  0.23321748553E+02  0.83773820363E+01  0.55997697481E+02  0.00000000000E+00 0.  1.
         11    1    4    4    0    0 -0.19317539544E+02 -0.36536893559E+02  0.10596170875E+02  0.42666037573E+02  0.00000000000E+00 0. -1.
</event>
<event>
 8    1  0.3719512E-009  0.1068527E+03  0.7561462E-02  0.1266512E+00
          1   -1    0    0  501    0  0.00000000000E+00  0.00000000000E+00  0.31498051900E+03  0.31498051900E+03  0.00000000000E+00 0. -1.
         -1   -1    0    0    0  501 -0.00000000000E+00 -0.00000000000E+00 -0.38734275322E+02  0.38734275322E+02  0.00000000000E+00 0.  1.
         25    2    1    2    0    0 -0.23069133417E+02  0.31021127155E+01  0.17069831567E+03  0.21290083859E+03  0.12508814525E+03 0.  0.
         23    2    1    2    0    0  0.23069133417E+02 -0.31021127155E+01  0.10554792800E+03  0.14081395572E+03  0.90257393053E+02 0.  0.
          5    1    3    3  502    0  0.46725341237E+02  0.25470280474E+02  0.80741593221E+02  0.96791890038E+02  0.41800000000E+01 0.  1.
         -5    1    3    3    0  502 -0.69794474655E+02 -0.22368167758E+02  0.89956722447E+02  0.11610894856E+03  0.41800000000E+01 0.  1.
        -11    1    4    4    0    0  0.54789210922E+02  0.17962424538E+01  0.40100559012E+02  0.67920092414E+02  0.00000000000E+00 0.  1.
         11    1    4    4    0    0 -0.31720077505E+02 -0.48983551694E+01  0.65447368993E+02  0.72893863311E+02  0.00000000000E+00 0. -1.
</event>
<event>
 8    1  0.3719512E-009  0.1314778E+03  0.7561462E-02  0.1225279E+00
         -1   -1    0    0    0  501 -0.00000000000E+00  0.00000000000E+00  0.82685384409E+02  0.82685384409E+02  0.00000000000E+00 0. -1.
          1   -1    0    0  501    0  0.00000000000E+00 -0.00000000000E+00 -0.62905458831E+03  0.62905458831E+03  0.00000000000E+00 0.  1.
         25    2    1    2    0    0 -0.26884152263E+02 -0.86434882084E+02 -0.56065556063E+03  0.58153131452E+03  0.12510102165E+03 0.  0.
         23    2    1    2    0    0  0.26884152263E+02  0.86434882084E+02  0.14286356720E+02  0.13020865821E+03  0.92501071346E+02 0.  0.
          5    1    3    3  502    0 -0.31747623219E+02  0.25866634282E+02 -0.17716136712E+03  0.18188077620E+03  0.41800000000E+01 0. -1.
         -5    1    3    3    0  502  0.48634709561E+01 -0.11230151637E+03 -0.38349419350E+03  0.39965053832E+03  0.41800000000E+01 0. -1.
        -11    1    4    4    0    0  0.44982294813E+02  0.76278400740E+02 -0.19389293393E+02  0.90651784121E+02  0.00000000000E+00 0.  1.
         11    1    4    4    0    0 -0.18098142549E+02  0.10156481344E+02  0.33675650113E+02  0.39556874087E+02  0.00000000000E+00 0. -1.
</event>
<event>
 8    1  0.3719512E-009  0.1031733E+03  0.7561462E-02  0.1273761E+00
         -1   -1    0    0    0  501 -0.00000000000E+00  0.00000000000E+00  0.24768672233E+02  0.24768672233E+02  0.00000000000E+00 0.  1.
          1   -1    0    0  501    0  0.00000000000E+00 -0.00000000000E+00 -0.49451400889E+03  0.49451400889E+03  0.00000000000E+00 0. -1.
         25    2    1    2    0    0  0.86626258372E+01  0.19852889238E+02 -0.23571019184E+03  0.26771994810E+03  0.12508196423E+03 0.  0.
         23    2    1    2    0    0 -0.86626258372E+01 -0.19852889238E+02 -0.23403514481E+03  0.25156273302E+03  0.89678209947E+02 0.  0.
          5    1    3    3  502    0  0.59258908700E+02  0.24785792337E+02 -0.73614272616E+02  0.97787971115E+02  0.41800000000E+01 0. -1.
         -5    1    3    3    0  502 -0.50596282863E+02 -0.49329030991E+01 -0.16209591923E+03  0.16993197699E+03  0.41800000000E+01 0. -1.
        -11    1    4    4    0    0  0.18917411461E+02  0.29142849104E+02 -0.11051877547E+03  0.11585151636E+03  0.00000000000E+00 0.  1.
         11    1    4    4    0    0 -0.27580037299E+02 -0.48995738342E+02 -0.12351636934E+03  0.13571121666E+03  0.00000000000E+00 0. -1.
</event>
<event>
 8    1  0.3719512E-009  0.2083969E+03  0.7561462E-02  0.1142842E+00
         -1   -1    0    0    0  501 -0.00000000000E+00  0.00000000000E+00  0.37759179245E+03  0.37759179245E+03  0.00000000000E+00 0.  1.
          1   -1    0    0  501    0  0.00000000000E+00 -0.00000000000E+00 -0.12902289416E+03  0.12902289416E+03  0.00000000000E+00 0. -1.
         25    2    1    2    0    0 -0.36068484023E+02 -0.18222552101E+03  0.71117413464E+02  0.23497451698E+03  0.12509300975E+03 0.  0.
         23    2    1    2    0    0  0.36068484023E+02  0.18222552101E+03  0.17745148482E+03  0.27164016962E+03  0.88273870649E+02 0.  0.
          5    1    3    3  502    0  0.40746150580E+02 -0.85111603284E+02  0.56901849267E+02  0.11027024372E+03  0.41800000000E+01 0. -1.
         -5    1    3    3    0  502 -0.76814634602E+02 -0.97113917723E+02  0.14215564197E+02  0.12470427326E+03  0.41800000000E+01 0. -1.
        -11    1    4    4    0    0 -0.18498352110E+02  0.84681241616E+02  0.11368704899E+03  0.14296099755E+03  0.00000000000E+00 0.  1.
         11    1    4    4    0    0  0.54566836133E+02  0.97544279391E+02  0.63764435831E+02  0.12867917207E+03  0.00000000000E+00 0. -1.
</event>
<event>
 8    1  0.3719512E-009  0.8743179E+02  0.7561462E-02  0.1309193E+00
          1   -1    0    0  501    0  0.00000000000E+00  0.00000000000E+00  0.53093432774E+03  0.53093432774E+03  0.00000000000E+00 0. -1.
         -1   -1    0    0    0  501 -0.00000000000E+00 -0.00000000000E+00 -0.25846308159E+02  0.25846308159E+02  0.00000000000E+00 0.  1.
         25    2    1    2    0    0  0.26180994872E+02  0.19556804040E+02  0.36251647798E+03  0.38488107903E+03  0.12508930854E+03 0.  0.
         23    2    1    2    0    0 -0.26180994872E+02 -0.19556804040E+02  0.14257154160E+03  0.17189955687E+03  0.90304485499E+02 0.  0.
          5    1    3    3  502    0  0.41327118910E+01 -0.27627081109E+02  0.12331976292E+02  0.30820203722E+02  0.41800000000E+01 0. -1.
         -5    1    3    3    0  502  0.22048282981E+02  0.47183885149E+02  0.35018450169E+03  0.35406087531E+03  0.41800000000E+01 0. -1.
        -11    1    4    4    0    0  0.29518638161E+02  0.10185323046E+02  0.63039513801E+02  0.70349634716E+02  0.00000000000E+00 0. -1.
         11    1    4    4    0    0 -0.55699633033E+02 -0.29742127086E+02  0.79532027796E+02  0.10154992215E+03  0.00000000000E+00 0.  1.
</event>
<event>
 8    1  0.3719512E-009  0.1149125E+03  0.7561462E-02  0.1251734E+00
         -2   -1    0    0    0  501 -0.00000000000E+00  0.00000000000E+00  0.22288006343E+02  0.22288006343E+02  0.00000000000E+00 0. -1.
          2   -1    0    0  501    0  0.00000000000E+00 -0.00000000000E+00 -0.81851145045E+03  0.81851145045E+03  0.00000000000E+00 0.  1.
         25    2    1    2    0    0 -0.18687984773E+02  0.76634823758E+02 -0.48937216677E+03  0.51122934170E+03  0.12509270650E+03 0.  0.
         23    2    1    2    0    0  0.18687984773E+02 -0.76634823758E+02 -0.30685127734E+03  0.32957011510E+03  0.90755811779E+02 0.  0.
          5    1    3    3  502    0  0.28942341173E+02  0.14536343676E+02 -0.27319163650E+02  0.42576677918E+02  0.41800000000E+01 0. -1.
         -5    1    3    3    0  502 -0.47630325946E+02  0.62098480082E+02 -0.46205300312E+03  0.46865266378E+03  0.41800000000E+01 0. -1.
        -11    1    4    4    0    0  0.54597632802E+02 -0.50616806835E+02 -0.16668526283E+03  0.18255667472E+03  0.00000000000E+00 0.  1.
         11    1    4    4    0    0 -0.35909648029E+02 -0.26018016923E+02 -0.14016601451E+03  0.14701344037E+03  0.00000000000E+00 0. -1.
</event>
<event>
 8    1  0.3719512E-009  0.9345175E+02  0.7561462E-02  0.1294702E+00
          1   -1    0    0  501    0  0.00000000000E+00  0.00000000000E+00  0.44592153073E+03  0.44592153073E+03  0.00000000000E+00 0. -1.
         -1   -1    0    0    0  501 -0.00000000000E+00 -0.00000000000E+00 -0.37446400960E+02  0.37446400960E+02  0.00000000000E+00 0.  1.
         25    2    1    2    0    0 -0.12215100097E+02 -0.45866001148E+02  0.32596851455E+03  0.35235800903E+03  0.12509114805E+03 0.  0.
         23    2    1    2    0    0  0.12215100097E+02  0.45866001148E+02  0.82506615218E+02  0.13100992265E+03  0.90018662216E+02 0.  0.
          5    1    3    3  502    0 -0.37526242356E+02  0.19759569489E+01  0.27599321612E+03  0.27857108790E+03  0.41800000000E+01 0. -1.
         -5    1    3    3    0  502  0.25311142259E+02 -0.47841958097E+02  0.49975298432E+02  0.73786921134E+02  0.41800000000E+01 0. -1.
        -11    1    4    4    0    0 -0.25251093674E+02 -0.10317328551E+02  0.47916296482E+02  0.55136525722E+02  0.00000000000E+00 0.  1.
         11    1    4    4    0    0  0.37466193770E+02  0.56183329699E+02  0.34590318736E+02  0.75873396932E+02  0.00000000000E+00 0. -1.
</event>
<event>
 8    1  0.3719512E-009  0.1419004E+03  0.7561462E-02  0.1210795E+00
          2   -1    0    0  501    0  0.00000000000E+00  0.00000000000E+00  0.39904018361E+02  0.39904018361E+02  0.00000000000E+00 0. -1.
         -2   -1    0    0    0  501 -0.00000000000E+00 -0.00000000000E+00 -0.59338209280E+03  0.59338209280E+03  0.00000000000E+00 0.  1.
         25    2    1    2    0    0 -0.90423354335E+02  0.36549746890E+02 -0.39476121035E+03  0.42543668240E+03  0.12509072916E+03 0.  0.
         23    2    1    2    0    0  0.90423354335E+02 -0.36549746890E+02 -0.15871686408E+03  0.20784942876E+03  0.92185004667E+02 0.  0.
          5    1    3    3  502    0 -0.93375659044E+02  0.74372221767E+02 -0.31840590403E+03  0.34007357026E+03  0.41800000000E+01 0.  1.
         -5    1    3    3    0  502  0.29523047091E+01 -0.37822474876E+02 -0.76355306330E+02  0.85363112136E+02  0.41800000000E+01 0.  1.
        -11    1    4    4    0    0 -0.15011374246E+02 -0.77236979215E+01 -0.23175539283E+01  0.17040185519E+02  0.00000000000E+00 0. -1.
         11    1    4    4    0    0  0.10543472858E+03 -0.28826048969E+02 -0.15639931015E+03  0.19080924324E+03  0.00000000000E+00 0.  1.
</event>
<event>
 8    1  0.3719512E-009  0.1366124E+03  0.7561462E-02  0.1217961E+00
          3   -1    0    0  501    0  0.00000000000E+00  0.00000000000E+00  0.21114541705E+03  0.21114541705E+03  0.00000000000E+00 0. -1.
         -3   -1    0    0    0  501 -0.00000000000E+00 -0.00000000000E+00 -0.13638933775E+03  0.13638933775E+03  0.00000000000E+00 0.  1.
         25    2    1    2    0    0 -0.10073022208E+03 -0.71526030087E+02  0.88859985757E+02  0.19699603696E+03  0.12509512737E+03 0.  0.
         23    2    1    2    0    0  0.10073022208E+03  0.71526030087E+02 -0.14103906457E+02  0.15053871784E+03  0.84855375631E+02 0.  0.
          5    1    3    3  502    0  0.31347057105E+01 -0.97003644732E+01  0.74374512703E+02  0.75186195479E+02  0.41800000000E+01 0.  1.
         -5    1    3    3    0  502 -0.10386492779E+03 -0.61825665614E+02  0.14485473055E+02  0.12180984148E+03  0.41800000000E+01 0.  1.
        -11    1    4    4    0    0  0.36363735705E+02 -0.96891695285E+01  0.18456747723E+02  0.41914828129E+02  0.00000000000E+00 0. -1.
         11    1    4    4    0    0  0.64366486370E+02  0.81215199616E+02 -0.32560654180E+02  0.10862388972E+03  0.00000000000E+00 0.  1.
</event>
<event>
 8    1  0.3719512E-009  0.1314999E+03  0.7561462E-02  0.1225247E+00
         -1   -1    0    0    0  501 -0.00000000000E+00  0.00000000000E+00  0.44156918304E+02  0.44156918304E+02  0.00000000000E+00 0.  1.
          1   -1    0    0  501    0  0.00000000000E+00 -0.00000000000E+00 -0.45208223548E+03  0.45208223548E+03  0.00000000000E+00 0. -1.
         25    2    1    2    0    0  0.28804191873E+02 -0.86932597561E+02 -0.24654213963E+03  0.29123891951E+03  0.12510045418E+03 0.  0.
         23    2    1    2    0    0 -0.28804191873E+02  0.86932597561E+02 -0.16138317754E+03  0.20500023427E+03  0.87141310918E+02 0.  0.
          5    1    3    3  502    0 -0.39566537772E+02 -0.40710208031E+02 -0.16741930746E+03  0.17683192262E+03  0.41800000000E+01 0. -1.
         -5    1    3    3    0  502  0.68370729645E+02 -0.46222389530E+02 -0.79122832172E+02  0.11440699689E+03  0.41800000000E+01 0. -1.
        -11    1    4    4    0    0  0.29386793930E+02  0.27028831944E+02 -0.74267780615E+02  0.84319894754E+02  0.00000000000E+00 0. -1.
         11    1    4    4    0    0 -0.58190985803E+02  0.59903765617E+02 -0.87115396929E+02  0.12068033952E+03  0.00000000000E+00 0.  1.
</event>
<event>
 8    1  0.3719512E-009  0.9190087E+02  0.7561462E-02  0.1298313E+00
          2   -1    0    0  501    0  0.00000000000E+00  0.00000000000E+00  0.52804425281E+02  0.52804425281E+02  0.00000000000E+00 0. -1.
         -2   -1    0    0    0  501 -0.00000000000E+00 -0.00000000000E+00 -0.24619836947E+03  0.24619836947E+03  0.00000000000E+00 0.  1.
         25    2    1    2    0    0  0.21523641575E+02 -0.24074093790E+02 -0.91563987750E+02  0.15834655875E+03  0.12508732821E+03 0.  0.
         23    2    1    2    0    0 -0.21523641575E+02  0.24074093790E+02 -0.10182995644E+03  0.14065623600E+03  0.91498675171E+02 0.  0.
          5    1    3    3  502    0 -0.12685724952E+02 -0.47239950604E+02 -0.10399494380E+03  0.11499983168E+03  0.41800000000E+01 0.  1.
         -5    1    3    3    0  502  0.34209366527E+02  0.23165856813E+02  0.12430956047E+02  0.43346727077E+02  0.41800000000E+01 0.  1.
        -11    1    4    4    0    0 -0.53926403439E+02  0.27619140286E+02 -0.83792166876E+02  0.10340213309E+03  0.00000000000E+00 0.  1.
         11    1    4    4    0    0  0.32402761864E+02 -0.35450464961E+01 -0.18037789566E+02  0.37254102908E+02  0.00000000000E+00 0. -1.
</event>
<event>
 8    1  0.3719512E-009  0.1051070E+03  0.7561462E-02  0.1269909E+00
          2   -1    0    0  501    0  0.00000000000E+00  0.00000000000E+00  0.32198393984E+03  0.32198393984E+03  0.00000000000E+00 0. -1.
         -2   -1    0    0    0  501 -0.00000000000E+00 -0.00000000000E+00 -0.75490004427E+02  0.75490004427E+02  0.00000000000E+00 0.  1.
         25    2    1    2    0    0 -0.26580364021E+02 -0.17686584966E+02  0.26872965918E+03  0.29813109817E+03  0.12508873225E+03 0.  0.
         23    2    1    2    0    0  0.26580364021E+02  0.17686584966E+02 -0.22235723769E+02  0.99342846090E+02  0.91407016243E+02 0.  0.
          5    1    3    3  502    0  0.34756426009E+02  0.32639727410E+02  0.77987605198E+02  0.91503551400E+02  0.41800000000E+01 0.  1.
         -5    1    3    3    0  502 -0.61336790030E+02 -0.50326312376E+02  0.19074205398E+03  0.20662754677E+03  0.41800000000E+01 0.  1.
        -11    1    4    4    0    0 -0.18958179481E+02  0.30215034401E+02  0.15496464792E+02  0.38890889603E+02  0.00000000000E+00 0. -1.
         11    1    4    4    0    0  0.45538543502E+02 -0.12528449435E+02 -0.37732188561E+02  0.60451956487E+02  0.00000000000E+00 0.  1.
</event>
<event>
 8    1  0.3719512E-009  0.2849724E+03  0.7561462E-02  0.1093004E+00
          2   -1    0    0  501    0  0.00000000000E+00  0.00000000000E+00  0.11923265813E+04  0.11923265813E+04  0.00000000000E+00 0. -1.
         -2   -1    0    0    0  501 -0.00000000000E+00 -0.00000000000E+00 -0.77270882460E+02  0.77270882460E+02  0.00000000000E+00 0.  1.
         25    2    1    2    0    0  0.25583268020E+03  0.96258061614E+02  0.41351114040E+03  0.51122996263E+03  0.12509451136E+03 0.  0.
         23    2    1    2    0    0 -0.25583268020E+03 -0.96258061614E+02  0.70154455844E+03  0.75836750113E+03  0.90777335334E+02 0.  0.
          5    1    3    3  502    0  0.12391420675E+03  0.44408332271E+01  0.10175279910E+03  0.16045421827E+03  0.41800000000E+01 0.  1.
         -5    1    3    3    0  502  0.13191847345E+03  0.91817228387E+02  0.31175834130E+03  0.35077574437E+03  0.41800000000E+01 0.  1.
        -11    1    4    4    0    0 -0.16120481227E+03 -0.10120978597E+03  0.51681927008E+03  0.55075636193E+03  0.00000000000E+00 0. -1.
         11    1    4    4    0    0 -0.94627867925E+02  0.49517243532E+01  0.18472528836E+03  0.20761113920E+03  0.00000000000E+00 0.  1.
</event>
<event>
 8    1  0.3719512E-009  0.8745454E+02  0.7561462E-02  0.1309136E+00
         -1   -1    0    0    0  501 -0.00000000000E+00  0.00000000000E+00  0.90647119506E+02  0.90647119506E+02  0.00000000000E+00 0.  1.
          1   -1    0    0  501    0  0.00000000000E+00 -0.00000000000E+00 -0.26148875882E+03  0.26148875882E+03  0.00000000000E+00 0. -1.
         25    2    1    2    0    0  0.51111133515E+02  0.26279407166E+01  0.18232953563E+02  0.13637047793E+03  0.12508082433E+03 0.  0.
         23    2    1    2    0    0 -0.51111133515E+02 -0.26279407166E+01 -0.18907459288E+03  0.21576540040E+03  0.90477910532E+02 0.  0.
          5    1    3    3  502    0  0.30801341742E+02  0.47227191460E+02 -0.32906717715E+02  0.65417541508E+02  0.41800000000E+01 0. -1.
         -5    1    3    3    0  502  0.20309791774E+02 -0.44599250743E+02  0.51139671278E+02  0.70952936424E+02  0.41800000000E+01 0. -1.
        -11    1    4    4    0    0  0.27563884443E+01  0.12847854332E+02  0.47714002065E+01  0.13979674465E+02  0.00000000000E+00 0.  1.
         11    1    4    4    0    0 -0.53867521960E+02 -0.15475795049E+02 -0.19384599309E+03  0.20178572593E+03  0.00000000000E+00 0. -1.
</event>
<event>
 8    1  0.3719512E-009  0.1011043E+03  0.7561462E-02  0.1277991E+00
          1   -1    0    0  501    0  0.00000000000E+00  0.00000000000E+00  0.23611838480E+03  0.23611838480E+03  0.00000000000E+00 0. -1.
         -1   -1    0    0    0  501 -0.00000000000E+00 -0.00000000000E+00 -0.66286050093E+02  0.66286050093E+02  0.00000000000E+00 0.  1.
         25    2    1    2    0    0 -0.51424057398E+02 -0.17654915977E+02  0.66862032392E+02  0.15190363001E+03  0.12509217280E+03 0.  0.
         23    2    1    2    0    0  0.51424057398E+02  0.17654915977E+02  0.10297030231E+03  0.15050080488E+03  0.95349249471E+02 0.  0.
          5    1    3    3  502    0  0.18234966529E+02  0.39859045881E+02  0.10230608919E+02  0.45203930158E+02  0.41800000000E+01 0. -1.
         -5    1    3    3    0  502 -0.69659023927E+02 -0.57513961859E+02  0.56631423473E+02  0.10669969985E+03  0.41800000000E+01 0. -1.
        -11    1    4    4    0    0  0.12399395519E+01  0.17518843128E+02 -0.14490349831E+02  0.22768784615E+02  0.00000000000E+00 0.  1.
         11    1    4    4    0    0  0.50184117846E+02  0.13607284941E+00  0.11746065214E+03  0.12773202027E+03  0.00000000000E+00 0. -1.
</event>
<event>
 8    1  0.3719512E-009  0.1775631E+03  0.7561462E-02  0.1170183E+00
         -1   -1    0    0    0  501 -0.00000000000E+00  0.00000000000E+00  0.34300317353E+02  0.34300317353E+02  0.00000000000E+00 0.  1.
          1   -1    0    0  501    0  0.00000000000E+00 -0.00000000000E+00 -0.12714297565E+04  0.12714297565E+04  0.00000000000E+00 0. -1.
         25    2    1    2    0    0  0.90476375053E+02 -0.13367190445E+03 -0.88215247861E+03  0.90548059135E+03  0.12509177959E+03 0.  0.
         23    2    1    2    0    0 -0.90476375053E+02  0.13367190445E+03 -0.35497696049E+03  0.40024948245E+03  0.90204507877E+02 0.  0.
          5    1    3    3  502    0  0.16243851581E+02 -0.91405040221E+02 -0.67500839975E+03  0.68137548843E+03  0.41800000000E+01 0. -1.
         -5    1    3    3    0  502  0.74232523472E+02 -0.42266864232E+02 -0.20714407886E+03  0.22410510293E+03  0.41800000000E+01 0. -1.
        -11    1    4    4    0    0  0.51530008479E+01  0.48006708331E+02 -0.50786224649E+02  0.70074518026E+02  0.00000000000E+00 0. -1.
         11    1    4    4    0    0 -0.95629375901E+02  0.85665196122E+02 -0.30419073584E+03  0.33017496443E+03  0.00000000000E+00 0.  1.
</event>
<event>
 8    1  0.3719512E-009  0.1756658E+03  0.7561462E-02  0.1172065E+00
          2   -1    0    0  501    0  0.00000000000E+00  0.00000000000E+00  0.10161760404E+03  0.10161760404E+03  0.00000000000E+00 0. -1.
         -2   -1    0    0    0  501 -0.00000000000E+00 -0.00000000000E+00 -0.31648269565E+03  0.31648269565E+03  0.00000000000E+00 0.  1.
         25    2    1    2    0    0  0.99981880238E+02  0.10033772655E+03 -0.13077297093E+03  0.22981544237E+03  0.12509808905E+03 0.  0.
         23    2    1    2    0    0 -0.99981880238E+02 -0.10033772655E+03 -0.84092120683E+02  0.18828485732E+03  0.91190279033E+02 0.  0.
          5    1    3    3  502    0  0.12314452516E+03  0.51390354918E+02 -0.81049386838E+02  0.15617944218E+03  0.41800000000E+01 0.  1.
         -5    1    3    3    0  502 -0.23162644918E+02  0.48947371628E+02 -0.49723584091E+02  0.73636000188E+02  0.41800000000E+01 0.  1.
        -11    1    4    4    0    0  0.81638510561E+01 -0.37629883246E+02 -0.16574871760E+01  0.38540937208E+02  0.00000000000E+00 0.  1.
         11    1    4    4    0    0 -0.10814573129E+03 -0.62707843300E+02 -0.82434633507E+02  0.14974392011E+03  0.00000000000E+00 0. -1.
</event>
<event>
 8    1  0.3719512E-009  0.1411732E+03  0.7561462E-02  0.1211759E+00
         -1   -1    0    0    0  501 -0.00000000000E+00  0.00000000000E+00  0.54436335018E+02  0.54436335018E+02  0.00000000000E+00 0.  1.
          1   -1    0    0  501    0  0.00000000000E+00 -0.00000000000E+00 -0.40220228278E+03  0.40220228278E+03  0.00000000000E+00 0. -1.
         25    2    1    2    0    0  0.58021807512E+01  0.97849630513E+02 -0.22538835454E+03  0.27578309351E+03  0.12509272085E+03 0.  0.
         23    2    1    2    0    0 -0.58021807512E+01 -0.97849630513E+02 -0.12237759322E+03  0.18085552429E+03  0.90134509763E+02 0.  0.
          5    1    3    3  502    0  0.25224942632E+02  0.12331270688E+03 -0.18917830851E+03  0.22726246109E+03  0.41800000000E+01 0. -1.
         -5    1    3    3    0  502 -0.19422761881E+02 -0.25463076365E+02 -0.36210046034E+02  0.48520632424E+02  0.41800000000E+01 0. -1.
        -11    1    4    4    0    0 -0.32536162695E+02 -0.90818564573E+02 -0.62616013937E+02  0.11501034195E+03  0.00000000000E+00 0.  1.
         11    1    4    4    0    0  0.26733981944E+02 -0.70310659399E+01 -0.59761579280E+02  0.65845182336E+02  0.00000000000E+00 0. -1.
</event>
<event>
 8    1  0.3719512E-009  0.1329471E+03  0.7561462E-02  0.1223147E+00
          2   -1    0    0  501    0  0.00000000000E+00  0.00000000000E+00  0.35998724510E+03  0.35998724510E+03  0.00000000000E+00 0. -1.
         -2   -1    0    0    0  501 -0.00000000000E+00 -0.00000000000E+00 -0.75695364460E+02  0.75695364460E+02  0.00000000000E+00 0.  1.
         25    2    1    2    0    0 -0.13601514353E+02  0.11038278654E+03  0.79717234032E+02  0.18539498533E+03  0.12508837846E+03 0.  0.
         23    2    1    2    0    0  0.13601514353E+02 -0.11038278654E+03  0.20457464661E+03  0.25028762423E+03  0.91780978702E+02 0.  0.
          5    1    3    3  502    0 -0.49700905310E+02  0.10706044758E+03  0.88826905686E+02  0.14778298616E+03  0.41800000000E+01 0. -1.
         -5    1    3    3    0  502  0.36099390956E+02  0.33223389621E+01 -0.91096716532E+01  0.37611999165E+02  0.41800000000E+01 0. -1.
        -11    1    4    4    0    0  0.21698233806E+01 -0.32968599613E+02  0.15309368908E+03  0.15661837162E+03  0.00000000000E+00 0.  1.
         11    1    4    4    0    0  0.11431690973E+02 -0.77414186932E+02  0.51480957532E+02  0.93669252614E+02  0.00000000000E+00 0. -1.
</event>
<event>
 8    1  0.3719512E-009  0.1240524E+03  0.7561462E-02  0.1236558E+00
         -3   -1    0    0    0  501 -0.00000000000E+00  0.00000000000E+00  0.14799370180E+03  0.14799370180E+03  0.00000000000E+00 0.  1.
          3   -1    0    0  501    0  0.00000000000E+00 -0.00000000000E+00 -0.17932646503E+03  0.17932646503E+03  0.00000000000E+00 0. -1.
         25    2    1    2    0    0  0.44431005097E+02 -0.98876229901E+02 -0.61818364311E+02  0.17669419429E+03  0.12509478437E+03 0.  0.
         23    2    1    2    0    0 -0.44431005097E+02  0.98876229901E+02  0.30485601083E+02  0.15062597254E+03  0.10004093500E+03 0.  0.
          5    1    3    3  502    0  0.46881173649E+02 -0.97960819825E+02  0.58573437396E+01  0.10883909012E+03  0.41800000000E+01 0.  1.
         -5    1    3    3    0  502 -0.24501685520E+01 -0.91541007586E+00 -0.67675708051E+02  0.67855104168E+02  0.41800000000E+01 0.  1.
        -11    1    4    4    0    0  0.17941034465E+02  0.56002525609E+02  0.44382000863E+02  0.73674456855E+02  0.00000000000E+00 0.  1.
         11    1    4    4    0    0 -0.62372039563E+02  0.42873704291E+02 -0.13896399780E+02  0.76951515681E+02  0.00000000000E+00 0. -1.
</event>
<event>
 8    1  0.3719512E-009  0.1111970E+03  0.7561462E-02  0.1258369E+00
         -2   -1    0    0    0  501 -0.00000000000E+00  0.00000000000E+00  0.12910627717E+03  0.12910627717E+03  0.00000000000E+00 0.  1.
          2   -1    0    0  501    0  0.00000000000E+00 -0.00000000000E+00 -0.10986807880E+03  0.10986807880E+03  0.00000000000E+00 0. -1.
         25    2    1    2    0    0  0.45732637530E+02  0.20758291655E+01  0.29590087896E+02  0.13644969220E+03  0.12508861658E+03 0.  0.
         23    2    1    2    0    0 -0.45732637530E+02 -0.20758291655E+01 -0.10351889532E+02  0.10252466377E+03  0.91150215917E+02 0.  0.
          5    1    3    3  502    0 -0.33200958483E+02  0.31912494649E+02  0.23163191022E+02  0.51717664074E+02  0.41800000000E+01 0.  1.
         -5    1    3    3    0  502  0.78933596013E+02 -0.29836665484E+02  0.64268968745E+01  0.84732028125E+02  0.41800000000E+01 0.  1.
        -11    1    4    4    0    0 -0.23369389377E+01 -0.36314228516E+02  0.17780946222E+02  0.40501191647E+02  0.00000000000E+00 0.  1.
         11    1    4    4    0    0 -0.43395698592E+02  0.34238399350E+02 -0.28132835754E+02  0.62023472121E+02  0.00000000000E+00 0. -1.
</event>
<event>
 8    1  0.3719512E-009  0.1101207E+03  0.7561462E-02  0.1260346E+00
          3   -1    0    0  501    0  0.00000000000E+00  0.00000000000E+00  0.41385599717E+03  0.41385599717E+03  0.00000000000E+00 0. -1.
         -3   -1    0    0    0  501 -0.00000000000E+00 -0.00000000000E+00 -0.55586133126E+02  0.55586133126E+02  0.00000000000E+00 0.  1.
         25    2    1    2    0    0 -0.68587045618E+02  0.79063795905E+02  0.20937311044E+03  0.26540712548E+03  0.12509426938E+03 0.  0.
         23    2    1    2    0    0  0.68587045618E+02 -0.79063795905E+02  0.14889675361E+03  0.20403500481E+03  0.92221327825E+02 0.  0.
          5    1    3    3  502    0 -0.52442747173E+02  0.30732535213E+02  0.12752844007E+02  0.62248195813E+02  0.41800000000E+01 0. -1.
         -5    1    3    3    0  502 -0.16144298445E+02  0.48331260692E+02  0.19662026643E+03  0.20315892967E+03  0.41800000000E+01 0. -1.
        -11    1    4    4    0    0  0.22738223906E+02 -0.90010714497E+01 -0.83862493053E+01  0.25852955171E+02  0.00000000000E+00 0.  1.
         11    1    4    4    0    0  0.45848821712E+02 -0.70062724455E+02  0.15728300291E+03  0.17818204964E+03  0.00000000000E+00 0. -1.
</event>
<event>
 8    1  0.3719512E-009  0.1866323E+03  0.7561462E-02  0.1161534E+00
          2   -1    0    0  501    0  0.00000000000E+00  0.00000000000E+00  0.25116115746E+03  0.25116115746E+03  0.00000000000E+00 0. -1.
         -2   -1    0    0    0  501 -0.00000000000E+00 -0.00000000000E+00 -0.14860695800E+03  0.14860695800E+03  0.00000000000E+00 0.  1.
         25    2    1    2    0    0 -0.10812409546E+03 -0.11557605356E+03  0.40682374449E+02  0.20579515536E+03  0.12509175114E+03 0.  0.
         23    2    1    2    0    0  0.10812409546E+03  0.11557605356E+03  0.61871825012E+02  0.19397296010E+03  0.93534711967E+02 0.  0.
          5    1    3    3  502    0 -0.78891256655E+02 -0.13508361266E+03  0.57360323804E+02  0.16667060909E+03  0.41800000000E+01 0.  1.
         -5    1    3    3    0  502 -0.29232838807E+02  0.19507559099E+02 -0.16677949355E+02  0.39124546277E+02  0.41800000000E+01 0.  1.
        -11    1    4    4    0    0  0.14837676601E+02  0.80285520751E+02  0.43658691564E+02  0.92585111320E+02  0.00000000000E+00 0.  1.
         11    1    4    4    0    0  0.93286418862E+02  0.35290532813E+02  0.18213133448E+02  0.10138784878E+03  0.00000000000E+00 0. -1.
</event>
<event>
 8    1  0.3719512E-009  0.1343845E+03  0.7561462E-02  0.1221091E+00
         -1   -1    0    0    0  501 -0.00000000000E+00  0.00000000000E+00  0.20521089539E+03  0.20521089539E+03  0.00000000000E+00 0.  1.
          1   -1    0    0  501    0  0.00000000000E+00 -0.00000000000E+00 -0.94433583426E+02  0.94433583426E+02  0.00000000000E+00 0. -1.
         25    2    1    2    0    0 -0.23192444218E+02  0.81122606825E+02  0.44495224642E+02  0.15730811682E+03  0.12508897551E+03 0.  0.
         23    2    1    2    0    0  0.23192444218E+02 -0.81122606825E+02  0.66282087327E+02  0.14233636200E+03  0.93528380933E+02 0.  0.
          5    1    3    3  502    0 -0.71332894481E+02  0.28872177408E+02  0.84454355315E+01  0.77529234774E+02  0.41800000000E+01 0. -1.
         -5    1    3    3    0  502  0.48140450263E+02  0.52250429417E+02  0.36049789111E+02  0.79778882047E+02  0.41800000000E+01 0. -1.
        -11    1    4    4    0    0  0.52655247720E+02 -0.72928389981E+02  0.29857904667E+02  0.94776683043E+02  0.00000000000E+00 0.  1.
         11    1    4    4    0    0 -0.29462803502E+02 -0.81942168442E+01  0.36424182660E+02  0.47559678956E+02  0.00000000000E+00 0. -1.
</event>
<event>
 8    1  0.3719512E-009  0.7725044E+02  0.7561462E-02  0.1337040E+00
          1   -1    0    0  501    0  0.00000000000E+00  0.00000000000E+00  0.17428130446E+03  0.17428130446E+03  0.00000000000E+00 0. -1.
         -1   -1    0    0    0  501 -0.00000000000E+00 -0.00000000000E+00 -0.78011621382E+02  0.78011621382E+02  0.00000000000E+00 0.  1.
         25    2    1    2    0    0  0.28326835216E+02  0.39621598234E+02  0.50200593219E+02  0.14330838258E+03  0.12507962391E+03 0.  0.
         23    2    1    2    0    0 -0.28326835216E+02 -0.39621598234E+02  0.46069089856E+02  0.10898454326E+03  0.85924321290E+02 0.  0.
          5    1    3    3  502    0 -0.38970458269E+01  0.58481857800E+02  0.77217285727E+02  0.97032449587E+02  0.41800000000E+01 0. -1.
         -5    1    3    3    0  502  0.32223881043E+02 -0.18860259566E+02 -0.27016692507E+02  0.46275932993E+02  0.41800000000E+01 0. -1.
        -11    1    4    4    0    0 -0.25544757487E+02 -0.84967809393E+01 -0.21556679230E+02  0.34487973857E+02  0.00000000000E+00 0.  1.
         11    1    4    4    0    0 -0.27820777291E+01 -0.31124817295E+02  0.67625769086E+02  0.74496569401E+02  0.00000000000E+00 0. -1.
</event>
<event>
 8    1  0.3719512E-009  0.1863682E+03  0.7561462E-02  0.1161778E+00
          2   -1    0    0  501    0  0.00000000000E+00  0.00000000000E+00  0.52197772920E+03  0.52197772920E+03  0.00000000000E+00 0. -1.
         -2   -1    0    0    0  501 -0.00000000000E+00 -0.00000000000E+00 -0.68563680322E+02  0.68563680322E+02  0.00000000000E+00 0.  1.
         25    2    1    2    0    0  0.15730338390E+03  0.14264011294E+02  0.23756409804E+03  0.31149997096E+03  0.12509082550E+03 0.  0.
         23    2    1    2    0    0 -0.15730338390E+03 -0.14264011294E+02  0.21584995084E+03  0.27904143857E+03  0.79530538499E+02 0.  0.
          5    1    3    3  502    0  0.20750551502E+02  0.50427259721E+02  0.10164367776E+03  0.11542271674E+03  0.41800000000E+01 0. -1.
         -5    1    3    3    0  502  0.13655283240E+03 -0.36163248427E+02  0.13592042028E+03  0.19607725422E+03  0.41800000000E+01 0. -1.
        -11    1    4    4    0    0 -0.73317451692E+02  0.32945529958E+02  0.10324070581E+03  0.13084150718E+03  0.00000000000E+00 0.  1.
         11    1    4    4    0    0 -0.83985932211E+02 -0.47209541252E+02  0.11260924504E+03  0.14819993138E+03  0.00000000000E+00 0. -1.
</event>
<event>
 8    1  0.3719512E-009  0.7884581E+02  0.7561462E-02  0.1332359E+00
          1   -1    0    0  501    0  0.00000000000E+00  0.00000000000E+00  0.26602981035E+02  0.26602981035E+02  0.00000000000E+00 0. -1.
         -1   -1    0    0    0  501 -0.00000000000E+00 -0.00000000000E+00 -0.96192496862E+03  0.96192496862E+03  0.00000000000E+00 0.  1.
         25    2    1    2    0    0 -0.12000546922E+01  0.15595123222E+02 -0.85976063114E+03  0.86895375324E+03  0.12509050490E+03 0.  0.
         23    2    1    2    0    0  0.12000546922E+01 -0.15595123222E+02 -0.75561356452E+02  0.11957419642E+03  0.91344522885E+02 0.  0.
          5    1    3    3  502    0  0.41095434192E+02 -0.90302769025E+01 -0.71175799302E+03  0.71301282853E+03  0.41800000000E+01 0.  1.
         -5    1    3    3    0  502 -0.42295488884E+02  0.24625400124E+02 -0.14800263811E+03  0.15594092471E+03  0.41800000000E+01 0.  1.
        -11    1    4    4    0    0  0.57535719717E+01  0.24890860543E+02  0.78657025254E+01  0.26730652914E+02  0.00000000000E+00 0. -1.
         11    1    4    4    0    0 -0.45535172795E+01 -0.40485983765E+02 -0.83427058978E+02  0.92843543506E+02  0.00000000000E+00 0.  1.
</event>
<event>
 8    1  0.3719512E-009  0.4336792E+02  0.7561462E-02  0.1484795E+00
         -1   -1    0    0    0  501 -0.00000000000E+00  0.00000000000E+00  0.24502376031E+02  0.24502376031E+02  0.00000000000E+00 0.  1.
          1   -1    0    0  501    0  0.00000000000E+00 -0.00000000000E+00 -0.11502465528E+04  0.11502465528E+04  0.00000000000E+00 0. -1.
         25    2    1    2    0    0  0.23293138433E+02  0.17423238822E+02 -0.10284938027E+04  0.10364817341E+04  0.12509493784E+03 0.  0.
         23    2    1    2    0    0 -0.23293138433E+02 -0.17423238822E+02 -0.97250374044E+02  0.13826719466E+03  0.93883131173E+02 0.  0.
          5    1    3    3  502    0 -0.58841660983E+00  0.92976868237E+01 -0.29630759226E+01  0.10632282601E+02  0.41800000000E+01 0.  1.
         -5    1    3    3    0  502  0.23881555043E+02  0.81255519979E+01 -0.10255307268E+04  0.10258494515E+04  0.41800000000E+01 0.  1.
        -11    1    4    4    0    0 -0.34848507002E+02 -0.18309122497E+02 -0.11245692595E+03  0.11914781828E+03  0.00000000000E+00 0. -1.
         11    1    4    4    0    0  0.11555368568E+02  0.88588367548E+00  0.15206551902E+02  0.19119376385E+02  0.00000000000E+00 0.  1.
</event>
<event>
 8    1  0.3719512E-009  0.1280126E+03  0.7561462E-02  0.1230435E+00
          1   -1    0    0  501    0  0.00000000000E+00  0.00000000000E+00  0.20120712200E+03  0.20120712200E+03  0.00000000000E+00 0. -1.
         -1   -1    0    0    0  501 -0.00000000000E+00 -0.00000000000E+00 -0.11389789177E+03  0.11389789177E+03  0.00000000000E+00 0.  1.
         25    2    1    2    0    0  0.86897732305E+02  0.55101287300E+02  0.27187686696E+02  0.16423896844E+03  0.12509156928E+03 0.  0.
         23    2    1    2    0    0 -0.86897732305E+02 -0.55101287300E+02  0.60121543529E+02  0.15086604532E+03  0.92512679635E+02 0.  0.
          5    1    3    3  502    0  0.24368830645E+02 -0.17406773225E+02  0.56446282450E+02  0.64035075260E+02  0.41800000000E+01 0.  1.
         -5    1    3    3    0  502  0.62528901659E+02  0.72508060524E+02 -0.29258595754E+02  0.10020389318E+03  0.41800000000E+01 0.  1.
        -11    1    4    4    0    0 -0.32354881442E+02 -0.66749562528E+02  0.59495505772E+02  0.95089734766E+02  0.00000000000E+00 0. -1.
         11    1    4    4    0    0 -0.54542850863E+02  0.11648275228E+02  0.62603775648E+00  0.55776310557E+02  0.00000000000E+00 0.  1.
</event>
<event>
 8    1  0.3719512E-009  0.1109126E+03  0.7561462E-02  0.1258889E+00
          1   -1    0    0  501    0  0.00000000000E+00  0.00000000000E+00  0.11966527191E+03  0.11966527191E+03  0.00000000000E+00 0. -1.
         -1   -1    0    0    0  501 -0.00000000000E+00 -0.00000000000E+00 -0.17678827771E+03  0.17678827771E+03  0.00000000000E+00 0.  1.
         25    2    1    2    0    0 -0.35520409162E+02  0.90220705124E+02 -0.36962007433E+02  0.16252647202E+03  0.12508872456E+03 0.  0.
         23    2    1    2    0    0  0.35520409162E+02 -0.90220705124E+02 -0.20160998360E+02  0.13392707760E+03  0.90158311648E+02 0.  0.
          5    1    3    3  502    0 -0.27410080311E+02  0.39464056746E+01 -0.65468773096E+02  0.71207578747E+02  0.41800000000E+01 0. -1.
         -5    1    3    3    0  502 -0.81103288516E+01  0.86274299450E+02  0.28506765663E+02  0.91318893271E+02  0.41800000000E+01 0. -1.
        -11    1    4    4    0    0  0.45906063298E+02 -0.81333407305E+02 -0.46441781848E+02  0.10430402146E+03  0.00000000000E+00 0.  1.
         11    1    4    4    0    0 -0.10385654135E+02 -0.88872978195E+01  0.26280783488E+02  0.29623056140E+02  0.00000000000E+00 0. -1.
</event>
<event>
 8    1  0.3719512E-009  0.1258601E+03  0.7561462E-02  0.1233731E+00
         -1   -1    0    0    0  501 -0.00000000000E+00  0.00000000000E+00  0.23148238550E+02  0.23148238550E+02  0.00000000000E+00 0.  1.
          1   -1    0    0  501    0  0.00000000000E+00 -0.00000000000E+00 -0.88626607219E+03  0.88626607219E+03  0.00000000000E+00 0. -1.
         25    2    1    2    0    0  0.78239569466E+02 -0.50470956302E+01 -0.62465111003E+03  0.64185982441E+03  0.12509245188E+03 0.  0.
         23    2    1    2    0    0 -0.78239569466E+02  0.50470956302E+01 -0.23846672360E+03  0.26755448633E+03  0.92585752065E+02 0.  0.
          5    1    3    3  502    0  0.90419359608E+02 -0.38818355812E+02 -0.55197179950E+03  0.56068963356E+03  0.41800000000E+01 0.  1.
         -5    1    3    3    0  502 -0.12179790142E+02  0.33771260182E+02 -0.72679310533E+02  0.81170190844E+02  0.41800000000E+01 0.  1.
        -11    1    4    4    0    0 -0.44717103547E+01  0.36588270679E+02 -0.45383318089E+02  0.58466599914E+02  0.00000000000E+00 0.  1.
         11    1    4    4    0    0 -0.73767859111E+02 -0.31541175049E+02 -0.19308340551E+03  0.20908788642E+03  0.00000000000E+00 0. -1.
</event>
<event>
 8    1  0.3719512E-009  0.8684464E+02  0.7561462E-02  0.1310678E+00
          1   -1    0    0  501    0  0.00000000000E+00  0.00000000000E+00  0.89521778914E+02  0.89521778914E+02  0.00000000000E+00 0. -1.
         -1   -1    0    0    0  501 -0.00000000000E+00 -0.00000000000E+00 -0.13675176632E+03  0.13675176632E+03  0.00000000000E+00 0.  1.
         25    2    1    2    0    0  0.82096131866E+01 -0.76961108853E+00 -0.88861106475E+01  0.12567385510E+03  0.12508782852E+03 0.  0.
         23    2    1    2    0    0 -0.82096131866E+01  0.76961108853E+00 -0.38343876764E+02  0.10059969013E+03  0.92639379964E+02 0.  0.
          5    1    3    3  502    0  0.48636761993E+02  0.39272021782E+02 -0.23270947195E+02  0.66834390065E+02  0.41800000000E+01 0. -1.
         -5    1    3    3    0  502 -0.40427148807E+02 -0.40041632870E+02  0.14384836548E+02  0.58839465039E+02  0.41800000000E+01 0. -1.
        -11    1    4    4    0    0  0.84543213553E+00  0.26599002992E+02 -0.60039606882E+02  0.65673252624E+02  0.00000000000E+00 0.  1.
         11    1    4    4    0    0 -0.90550453221E+01 -0.25829391903E+02  0.21695730118E+02  0.34926437511E+02  0.00000000000E+00 0. -1.
</event>
<event>
 8    1  0.3719512E-009  0.2684009E+03  0.7561462E-02  0.1102198E+00
         -2   -1    0    0    0  501 -0.00000000000E+00  0.00000000000E+00  0.98889779324E+02  0.98889779324E+02  0.00000000000E+00 0.  1.
          2   -1    0    0  501    0  0.00000000000E+00 -0.00000000000E+00 -0.80396509970E+03  0.80396509970E+03  0.00000000000E+00 0. -1.
         25    2    1    2    0    0 -0.22048231974E+03 -0.12586577082E+03 -0.27266204662E+03  0.39299659718E+03  0.12508832139E+03 0.  0.
         23    2    1    2    0    0  0.22048231974E+03  0.12586577082E+03 -0.43241327375E+03  0.50985828184E+03  0.92301585380E+02 0.  0.
          5    1    3    3  502    0 -0.15073676030E+03 -0.31337390928E+02 -0.20807011972E+03  0.25887110711E+03  0.41800000000E+01 0.  1.
         -5    1    3    3    0  502 -0.69745559437E+02 -0.94528379895E+02 -0.64591926908E+02  0.13412549008E+03  0.41800000000E+01 0.  1.
        -11    1    4    4    0    0  0.15509888474E+03  0.45502386943E+02 -0.30901943270E+03  0.34873935977E+03  0.00000000000E+00 0.  1.
         11    1    4    4    0    0  0.65383434993E+02  0.80363383880E+02 -0.12339384106E+03  0.16111892208E+03  0.00000000000E+00 0. -1.
</event>
<event>
 8    1  0.3719512E-009  0.1915529E+03  0.7561462E-02  0.1157068E+00
          1   -1    0    0  501    0  0.00000000000E+00  0.00000000000E+00  0.17845211790E+04  0.17845211790E+04  0.00000000000E+00 0. -1.
         -1   -1    0    0    0  501 -0.00000000000E+00 -0.00000000000E+00 -0.21280240402E+02  0.21280240402E+02  0.00000000000E+00 0.  1.
         25    2    1    2    0    0  0.82066193797E+02 -0.13654343345E+03  0.10454646217E+04  0.10649053244E+04  0.12509238757E+03 0.  0.
         23    2    1    2    0    0 -0.82066193797E+02  0.13654343345E+03  0.71777631693E+03  0.74089609499E+03  0.91352137568E+02 0.  0.
          5    1    3    3  502    0  0.80318339046E+02 -0.15898328542E+03  0.96190326623E+03  0.97826483460E+03  0.41800000000E+01 0.  1.
         -5    1    3    3    0  502  0.17478547511E+01  0.22439851976E+02  0.83561355457E+02  0.86640489835E+02  0.41800000000E+01 0.  1.
        -11    1    4    4    0    0 -0.48813143539E+02  0.14032896710E+03  0.54390039281E+03  0.56382850166E+03  0.00000000000E+00 0.  1.
         11    1    4    4    0    0 -0.33253050258E+02 -0.37855336521E+01  0.17387592412E+03  0.17706759332E+03  0.00000000000E+00 0. -1.
</event>
<event>
 8    1  0.3719512E-009  0.8419593E+02  0.7561462E-02  0.1317549E+00
          2   -1    0    0  501    0  0.00000000000E+00  0.00000000000E+00  0.51677678258E+02  0.51677678258E+02  0.00000000000E+00 0. -1.
         -2   -1    0    0    0  501 -0.00000000000E+00 -0.00000000000E+00 -0.28246194057E+03  0.28246194057E+03  0.00000000000E+00 0.  1.
         25    2    1    2    0    0 -0.50358810354E+02  0.20526620825E+02 -0.13876686734E+03  0.19458011372E+03  0.12509126764E+03 0.  0.
         23    2    1    2    0    0  0.50358810354E+02 -0.20526620825E+02 -0.92017394974E+02  0.13955950511E+03  0.89734622897E+02 0.  0.
          5    1    3    3  502    0  0.88880775035E+01  0.41311105576E+02 -0.12240620897E+03  0.12956217720E+03  0.41800000000E+01 0.  1.
         -5    1    3    3    0  502 -0.59246887857E+02 -0.20784484750E+02 -0.16360658370E+02  0.65017936521E+02  0.41800000000E+01 0.  1.
        -11    1    4    4    0    0  0.19857289112E+02 -0.25266478428E+02  0.94535740353E+01  0.33497416692E+02  0.00000000000E+00 0. -1.
         11    1    4    4    0    0  0.30501521242E+02  0.47398576024E+01 -0.10147096901E+03  0.10606208842E+03  0.00000000000E+00 0.  1.
</event>
<event>
 8    1  0.3719512E-009  0.1302816E+03  0.7561462E-02  0.1227038E+00
         -2   -1    0    0    0  501 -0.00000000000E+00  0.00000000000E+00  0.11009523654E+03  0.11009523654E+03  0.00000000000E+00 0.  1.
          2   -1    0    0  501    0  0.00000000000E+00 -0.00000000000E+00 -0.15921176573E+03  0.15921176573E+03  0.00000000000E+00 0. -1.
         25    2    1    2    0    0  0.68212227620E+02 -0.29453948907E+02 -0.62669113527E+01  0.14562707887E+03  0.12509008282E+03 0.  0.
         23    2    1    2    0    0 -0.68212227620E+02  0.29453948907E+02 -0.42849617840E+02  0.12367992339E+03  0.89107747131E+02 0.  0.
          5    1    3    3  502    0  0.60308712603E+02 -0.76398076996E+02  0.51614014504E-01  0.97423211036E+02  0.41800000000E+01 0. -1.
         -5    1    3    3    0  502  0.79035150170E+01  0.46944128089E+02 -0.63185253672E+01  0.48203867837E+02  0.41800000000E+01 0. -1.
        -11    1    4    4    0    0 -0.89711904078E+02  0.20272008178E+02 -0.28675320973E+02  0.96340303517E+02  0.00000000000E+00 0. -1.
         11    1    4    4    0    0  0.21499676458E+02  0.91819407293E+01 -0.14174296868E+02  0.27339619878E+02  0.00000000000E+00 0.  1.
</event>
<event>
 8    1  0.3719512E-009  0.1705307E+03  0.7561462E-02  0.1177296E+00
          1   -1    0    0  501    0  0.00000000000E+00  0.00000000000E+00  0.30031050881E+03  0.30031050881E+03  0.00000000000E+00 0.  1.
         -1   -1    0    0    0  501 -0.00000000000E+00 -0.00000000000E+00 -0.11394159374E+03  0.11394159374E+03  0.00000000000E+00 0. -1.
         25    2    1    2    0    0 -0.40842127872E+02 -0.14478811976E+03  0.91488260130E+02  0.21598513543E+03  0.12509115856E+03 0.  0.
         23    2    1    2    0    0  0.40842127872E+02  0.14478811976E+03  0.94880654935E+02  0.19826696713E+03  0.87611486342E+02 0.  0.
          5    1    3    3  502    0  0.37265026383E+02 -0.78888460570E+02  0.68877213373E+02  0.11123674898E+03  0.41800000000E+01 0. -1.
         -5    1    3    3    0  502 -0.78107154254E+02 -0.65899659192E+02  0.22611046757E+02  0.10474838644E+03  0.41800000000E+01 0. -1.
        -11    1    4    4    0    0  0.28273186763E+02  0.68288429456E+02  0.95474108295E+02  0.12073933925E+03  0.00000000000E+00 0. -1.
         11    1    4    4    0    0  0.12568941108E+02  0.76499690306E+02 -0.59345335944E+00  0.77527627878E+02  0.00000000000E+00 0.  1.
</event>
<event>
 8    1  0.3719512E-009  0.1315460E+03  0.7561462E-02  0.1225180E+00
          3   -1    0    0  501    0  0.00000000000E+00  0.00000000000E+00  0.35519464485E+03  0.35519464485E+03  0.00000000000E+00 0. -1.
         -3   -1    0    0    0  501 -0.00000000000E+00 -0.00000000000E+00 -0.65428461155E+02  0.65428461155E+02  0.00000000000E+00 0.  1.
         25    2    1    2    0    0 -0.36430243851E+02  0.96576552358E+02  0.15830272822E+03  0.22663074432E+03  0.12509015698E+03 0.  0.
         23    2    1    2    0    0  0.36430243851E+02 -0.96576552358E+02  0.13146345547E+03  0.19399236169E+03  0.98469300474E+02 0.  0.
          5    1    3    3  502    0  0.43339471071E+02  0.46409629999E+02  0.89766430811E+02  0.11003475819E+03  0.41800000000E+01 0.  1.
         -5    1    3    3    0  502 -0.79769714922E+02  0.50166922359E+02  0.68536297412E+02  0.11659598613E+03  0.41800000000E+01 0.  1.
        -11    1    4    4    0    0  0.37883846887E+02 -0.80298744486E+02  0.33850309747E+02  0.95020617189E+02  0.00000000000E+00 0.  1.
         11    1    4    4    0    0 -0.14536030358E+01 -0.16277807872E+02  0.97613145722E+02  0.98971744496E+02  0.00000000000E+00 0. -1.
</event>
<event>
 8    1  0.3719512E-009  0.1216351E+03  0.7561462E-02  0.1240424E+00
         -2   -1    0    0    0  501 -0.00000000000E+00  0.00000000000E+00  0.64991727693E+02  0.64991727693E+02  0.00000000000E+00 0. -1.
          2   -1    0    0  501    0  0.00000000000E+00 -0.00000000000E+00 -0.40176011336E+03  0.40176011336E+03  0.00000000000E+00 0.  1.
         25    2    1    2    0    0 -0.47545785877E+02  0.91554113256E+02 -0.26439237843E+03  0.31014816415E+03  0.12508315852E+03 0.  0.
         23    2    1    2    0    0  0.47545785877E+02 -0.91554113256E+02 -0.72376007237E+02  0.15660367690E+03  0.92971327771E+02 0.  0.
          5    1    3    3  502    0 -0.15186517380E+02  0.85068937917E+02 -0.26298720202E+03  0.27685211817E+03  0.41800000000E+01 0.  1.
         -5    1    3    3    0  502 -0.32359268497E+02  0.64851753381E+01 -0.14051764036E+01  0.33296045974E+02  0.41800000000E+01 0.  1.
        -11    1    4    4    0    0  0.62951004379E+02 -0.87072409406E+02 -0.84337543218E+02  0.13659156134E+03  0.00000000000E+00 0.  1.
         11    1    4    4    0    0 -0.15405218502E+02 -0.44817038494E+01  0.11961535980E+02  0.20012115568E+02  0.00000000000E+00 0. -1.
</event>
<event>
 8    1  0.3719512E-009  0.9869262E+02  0.7561462E-02  0.1283069E+00
          2   -1    0    0  501    0  0.00000000000E+00  0.00000000000E+00  0.12326683224E+04  0.12326683224E+04  0.00000000000E+00 0. -1.
         -2   -1    0    0    0  501 -0.00000000000E+00 -0.00000000000E+00 -0.15716998870E+02  0.15716998870E+02  0.00000000000E+00 0.  1.
         25    2    1    2    0    0 -0.75746071694E+01 -0.31391035662E+02  0.10311940089E+04  0.10392549838E+04  0.12508823055E+03 0.  0.
         23    2    1    2    0    0  0.75746071694E+01  0.31391035662E+02  0.18575731459E+03  0.20913033750E+03  0.90481745925E+02 0.  0.
          5    1    3    3  502    0  0.43003508847E+02 -0.31821091494E+02  0.83090263675E+03  0.83263350148E+03  0.41800000000E+01 0.  1.
         -5    1    3    3    0  502 -0.50578116016E+02  0.43005583246E+00  0.20029137217E+03  0.20662148227E+03  0.41800000000E+01 0.  1.
        -11    1    4    4    0    0  0.10359071284E+00  0.61728909727E+02  0.96420377384E+02  0.11448737136E+03  0.00000000000E+00 0.  1.
         11    1    4    4    0    0  0.74710164566E+01 -0.30337874065E+02  0.89336937202E+02  0.94642966132E+02  0.00000000000E+00 0. -1.
</event>
<event>
 8    1  0.3719512E-009  0.7883992E+02  0.7561462E-02  0.1332376E+00
          1   -1    0    0  501    0  0.00000000000E+00  0.00000000000E+00  0.24401032647E+03  0.24401032647E+03  0.00000000000E+00 0. -1.
         -1   -1    0    0    0  501 -0.00000000000E+00 -0.00000000000E+00 -0.48928220055E+02  0.48928220055E+02  0.00000000000E+00 0.  1.
         25    2    1    2    0    0  0.74401485022E+01  0.10605612296E+02  0.12332535700E+03  0.17613426942E+03  0.12508518044E+03 0.  0.
         23    2    1    2    0    0 -0.74401485022E+01 -0.10605612296E+02  0.71756749420E+02  0.11680427710E+03  0.91248962955E+02 0.  0.
          5    1    3    3  502    0  0.38178180649E+02 -0.13912264988E+01 -0.91847465494E+01  0.39513807182E+02  0.41800000000E+01 0.  1.
         -5    1    3    3    0  502 -0.30738032146E+02  0.11996838795E+02  0.13251010354E+03  0.13662046224E+03  0.41800000000E+01 0.  1.
        -11    1    4    4    0    0  0.30426992309E+02 -0.30611858793E+02  0.57018137644E+02  0.71511927537E+02  0.00000000000E+00 0.  1.
         11    1    4    4    0    0 -0.37867140811E+02  0.20006246497E+02  0.14738611777E+02  0.45292349566E+02  0.00000000000E+00 0. -1.
</event>
<event>
 8    1  0.3719512E-009  0.9478233E+02  0.7561462E-02  0.1291667E+00
         -2   -1    0    0    0  501 -0.00000000000E+00  0.00000000000E+00  0.41540034924E+02  0.41540034924E+02  0.00000000000E+00 0. -1.
          2   -1    0    0  501    0  0.00000000000E+00 -0.00000000000E+00 -0.36582150971E+03  0.36582150971E+03  0.00000000000E+00 0.  1.
         25    2    1    2    0    0  0.15519177648E+02  0.56879861864E+02 -0.18855558621E+03  0.23383078342E+03  0.12508981823E+03 0.  0.
         23    2    1    2    0    0 -0.15519177648E+02 -0.56879861864E+02 -0.13572588858E+03  0.17353076121E+03  0.90637987046E+02 0.  0.
          5    1    3    3  502    0  0.60288477211E+02  0.60478704239E+02 -0.15703509203E+03  0.17880119318E+03  0.41800000000E+01 0.  1.
         -5    1    3    3    0  502 -0.44769299564E+02 -0.35988423751E+01 -0.31520494173E+02  0.55029590247E+02  0.41800000000E+01 0.  1.
        -11    1    4    4    0    0 -0.60929714693E+01 -0.22043590932E+02 -0.13552500729E+03  0.13744115760E+03  0.00000000000E+00 0.  1.
         11    1    4    4    0    0 -0.94262061785E+01 -0.34836270932E+02 -0.20088128968E+00  0.36089603609E+02  0.00000000000E+00 0. -1.
</event>
<event>
 8    1  0.3719512E-009  0.1089199E+03  0.7561462E-02  0.1262583E+00
          1   -1    0    0  501    0  0.00000000000E+00  0.00000000000E+00  0.54691060117E+03  0.54691060117E+03  0.00000000000E+00 0. -1.
         -1   -1    0    0    0  501 -0.00000000000E+00 -0.00000000000E+00 -0.24665777817E+02  0.24665777817E+02  0.00000000000E+00 0.  1.
         25    2    1    2    0    0  0.36654049827E+02 -0.29679686950E+01  0.24895735348E+03  0.28103922211E+03  0.12510376616E+03 0.  0.
         23    2    1    2    0    0 -0.36654049827E+02  0.29679686950E+01  0.27328746988E+03  0.29053715688E+03  0.91506667126E+02 0.  0.
          5    1    3    3  502    0  0.15700295935E+02 -0.58135176744E+02  0.18170479757E+03  0.19146880667E+03  0.41800000000E+01 0. -1.
         -5    1    3    3    0  502  0.20953753892E+02  0.55167208049E+02  0.67252555905E+02  0.89570415438E+02  0.41800000000E+01 0. -1.
        -11    1    4    4    0    0 -0.55722329605E+02  0.31492204781E+02  0.16681283316E+03  0.17867080983E+03  0.00000000000E+00 0.  1.
         11    1    4    4    0    0  0.19068279778E+02 -0.28524236086E+02  0.10647463672E+03  0.11186634705E+03  0.00000000000E+00 0. -1.
</event>
<event>
 8    1  0.3719512E-009  0.8886944E+02  0.7561462E-02  0.1305613E+00
          2   -1    0    0  501    0  0.00000000000E+00  0.00000000000E+00  0.22266879795E+03  0.22266879795E+03  0.00000000000E+00 0. -1.
         -2   -1    0    0    0  501 -0.00000000000E+00 -0.00000000000E+00 -0.76004330593E+02  0.76004330593E+02  0.00000000000E+00 0.  1.
         25    2    1    2    0    0 -0.50042839321E+01  0.28497350129E+02  0.15724055763E+03  0.20300939597E+03  0.12510427677E+03 0.  0.
         23    2    1    2    0    0  0.50042839321E+01 -0.28497350129E+02 -0.10576090268E+02  0.95663732577E+02  0.90567953622E+02 0.  0.
          5    1    3    3  502    0 -0.52190281887E+02  0.42472196761E+02  0.13040294596E+03  0.14679956995E+03  0.41800000000E+01 0. -1.
         -5    1    3    3    0  502  0.47185997955E+02 -0.13974846632E+02  0.26837611665E+02  0.56209826021E+02  0.41800000000E+01 0. -1.
        -11    1    4    4    0    0  0.22275896925E+01  0.16097320143E+02 -0.39312958049E+02  0.42539329358E+02  0.00000000000E+00 0.  1.
         11    1    4    4    0    0  0.27766942396E+01 -0.44594670272E+02  0.28736867781E+02  0.53124403220E+02  0.00000000000E+00 0. -1.
</event>
<event>
 8    1  0.3719512E-009  0.4440083E+03  0.7561462E-02  0.1029524E+00
         -2   -1    0    0    0  501 -0.00000000000E+00  0.00000000000E+00  0.25431510790E+03  0.25431510790E+03  0.00000000000E+00 0.  1.
          2   -1    0    0  501    0  0.00000000000E+00 -0.00000000000E+00 -0.79739075189E+03  0.79739075189E+03  0.00000000000E+00 0. -1.
         25    2    1    2    0    0  0.36703293637E+03  0.22773339733E+03 -0.35424507673E+03  0.57246259105E+03  0.12509263421E+03 0.  0.
         23    2    1    2    0    0 -0.36703293637E+03 -0.22773339733E+03 -0.18883056727E+03  0.47924326874E+03  0.86263844457E+02 0.  0.
          5    1    3    3  502    0  0.23874115432E+03  0.21194606805E+03 -0.26982471616E+03  0.41802072243E+03  0.41800000000E+01 0.  1.
         -5    1    3    3    0  502  0.12829178204E+03  0.15787329277E+02 -0.84420360570E+02  0.15444186862E+03  0.41800000000E+01 0.  1.
        -11    1    4    4    0    0 -0.28779212377E+03 -0.21482622912E+03 -0.14119156042E+03  0.38588815991E+03  0.00000000000E+00 0.  1.
         11    1    4    4    0    0 -0.79240812598E+02 -0.12907168212E+02 -0.47639006843E+02  0.93355108834E+02  0.00000000000E+00 0. -1.
</event>
<event>
 8    1  0.3719512E-009  0.1079251E+03  0.7561462E-02  0.1264461E+00
         -2   -1    0    0    0  501 -0.00000000000E+00  0.00000000000E+00  0.67990348781E+02  0.67990348781E+02  0.00000000000E+00 0.  1.
          2   -1    0    0  501    0  0.00000000000E+00 -0.00000000000E+00 -0.20746890840E+03  0.20746890840E+03  0.00000000000E+00 0. -1.
         25    2    1    2    0    0  0.40419341131E+02 -0.21563922910E+02 -0.98338560550E+02  0.16557925403E+03  0.12508913209E+03 0.  0.
         23    2    1    2    0    0 -0.40419341131E+02  0.21563922910E+02 -0.41139999071E+02  0.10988000315E+03  0.91007635174E+02 0.  0.
          5    1    3    3  502    0  0.55352042234E+02 -0.62192639271E+02 -0.87309027038E+02  0.12071500139E+03  0.41800000000E+01 0.  1.
         -5    1    3    3    0  502 -0.14932701104E+02  0.40628716360E+02 -0.11029533512E+02  0.44864252639E+02  0.41800000000E+01 0.  1.
        -11    1    4    4    0    0 -0.55564484984E+02  0.37485195762E+02 -0.45272352670E+01  0.67179221133E+02  0.00000000000E+00 0.  1.
         11    1    4    4    0    0  0.15145143853E+02 -0.15921272852E+02 -0.36612763804E+02  0.42700782018E+02  0.00000000000E+00 0. -1.
</event>
<event>
 8    1  0.3719512E-009  0.9017510E+02  0.7561462E-02  0.1302428E+00
          1   -1    0    0  501    0  0.00000000000E+00  0.00000000000E+00  0.76711567544E+02  0.76711567544E+02  0.00000000000E+00 0. -1.
         -1   -1    0    0    0  501 -0.00000000000E+00 -0.00000000000E+00 -0.27744944745E+03  0.27744944745E+03  0.00000000000E+00 0.  1.
         25    2    1    2    0    0 -0.84667842064E+00  0.31878317700E+02  0.34223357522E+01  0.12913376794E+03  0.12508746395E+03 0.  0.
         23    2    1    2    0    0  0.84667842064E+00 -0.31878317700E+02 -0.20416021566E+03  0.22502724706E+03  0.89100641165E+02 0.  0.
          5    1    3    3  502    0 -0.13394146825E+02 -0.41488843135E+02 -0.23706268476E+02  0.49801474264E+02  0.41800000000E+01 0.  1.
         -5    1    3    3    0  502  0.12547468404E+02  0.73367160834E+02  0.27128604229E+02  0.79332293674E+02  0.41800000000E+01 0.  1.
        -11    1    4    4    0    0 -0.26148462543E+02 -0.14529052833E+02 -0.15564019535E+02  0.33720530448E+02  0.00000000000E+00 0. -1.
         11    1    4    4    0    0  0.26995140964E+02 -0.17349264867E+02 -0.18859619612E+03  0.19130671661E+03  0.00000000000E+00 0.  1.
</event>
<event>
 8    1  0.3719512E-009  0.1258943E+03  0.7561462E-02  0.1233678E+00
         -1   -1    0    0    0  501 -0.00000000000E+00  0.00000000000E+00  0.53582655110E+02  0.53582655110E+02  0.00000000000E+00 0.  1.
          1   -1    0    0  501    0  0.00000000000E+00 -0.00000000000E+00 -0.31272773514E+03  0.31272773514E+03  0.00000000000E+00 0. -1.
         25    2    1    2    0    0  0.53007999906E+02  0.39959682748E+02 -0.17592810008E+03  0.22584268265E+03  0.12509035379E+03 0.  0.
         23    2    1    2    0    0 -0.53007999906E+02 -0.39959682748E+02 -0.83216979949E+02  0.14046770760E+03  0.91648714266E+02 0.  0.
          5    1    3    3  502    0  0.31561041871E+02  0.84710837351E+02 -0.98294170838E+02  0.13360853921E+03  0.41800000000E+01 0. -1.
         -5    1    3    3    0  502  0.21446958034E+02 -0.44751154603E+02 -0.77633929242E+02  0.92234143444E+02  0.41800000000E+01 0. -1.
        -11    1    4    4    0    0 -0.29822714005E+02  0.27248822697E+02 -0.18910006762E+02  0.44603598115E+02  0.00000000000E+00 0.  1.
         11    1    4    4    0    0 -0.23185285900E+02 -0.67208505445E+02 -0.64306973187E+02  0.95864109483E+02  0.00000000000E+00 0. -1.
</event>
<event>
 8    1  0.3719512E-009  0.1316064E+03  0.7561462E-02  0.1225091E+00
         -2   -1    0    0    0  501 -0.00000000000E+00  0.00000000000E+00  0.88419949874E+02  0.88419949874E+02  0.00000000000E+00 0. -1.
          2   -1    0    0  501    0  0.00000000000E+00 -0.00000000000E+00 -0.24164738523E+03  0.24164738523E+03  0.00000000000E+00 0.  1.
         25    2    1    2    0    0 -0.94908431650E+02  0.12937909828E+02 -0.67893874054E+02  0.17155769824E+03  0.12508983086E+03 0.  0.
         23    2    1    2    0    0  0.94908431650E+02 -0.12937909828E+02 -0.85333561298E+02  0.15850963686E+03  0.93104717299E+02 0.  0.
          5    1    3    3  502    0 -0.33121077214E+02 -0.42887254334E+02  0.12464875460E+02  0.55759912664E+02  0.41800000000E+01 0.  1.
         -5    1    3    3    0  502 -0.61787354436E+02  0.55825164161E+02 -0.80358749513E+02  0.11579778558E+03  0.41800000000E+01 0.  1.
        -11    1    4    4    0    0  0.68731626299E+01 -0.34230730909E+02 -0.12705434301E+01  0.34937051732E+02  0.00000000000E+00 0. -1.
         11    1    4    4    0    0  0.88035269020E+02  0.21292821081E+02 -0.84063017868E+02  0.12357258512E+03  0.00000000000E+00 0.  1.
</event>
<event>
 8    1  0.3719512E-009  0.9865213E+02  0.7561462E-02  0.1283156E+00
         -2   -1    0    0    0  501 -0.00000000000E+00  0.00000000000E+00  0.22075242371E+02  0.22075242371E+02  0.00000000000E+00 0.  1.
          2   -1    0    0  501    0  0.00000000000E+00 -0.00000000000E+00 -0.77408904020E+03  0.77408904020E+03  0.00000000000E+00 0. -1.
         25    2    1    2    0    0  0.35164174717E+02  0.53925464940E+02 -0.32250112538E+03  0.35185075024E+03  0.12508996612E+03 0.  0.
         23    2    1    2    0    0 -0.35164174717E+02 -0.53925464940E+02 -0.42951267245E+03  0.44431353233E+03  0.93749156069E+02 0.  0.
          5    1    3    3  502    0 -0.12372877347E+02 -0.38320065175E+01  0.60290177685E+01  0.14886027779E+02  0.41800000000E+01 0. -1.
         -5    1    3    3    0  502  0.47537052064E+02  0.57757471457E+02 -0.32853014315E+03  0.33696472246E+03  0.41800000000E+01 0. -1.
        -11    1    4    4    0    0  0.21153169056E+02  0.10152763833E+02 -0.48636296854E+02  0.54000227280E+02  0.00000000000E+00 0.  1.
         11    1    4    4    0    0 -0.56317343773E+02 -0.64078228772E+02 -0.38087637559E+03  0.39031330505E+03  0.00000000000E+00 0. -1.
</event>
<event>
 8    1  0.3719512E-009  0.8422806E+02  0.7561462E-02  0.1317464E+00
          2   -1    0    0  501    0  0.00000000000E+00  0.00000000000E+00  0.31611138982E+03  0.31611138982E+03  0.00000000000E+00 0. -1.
         -2   -1    0    0    0  501 -0.00000000000E+00 -0.00000000000E+00 -0.41176801576E+02  0.41176801576E+02  0.00000000000E+00 0.  1.
         25    2    1    2    0    0 -0.50575330593E+01 -0.18465692649E+02  0.19546882914E+03  0.23285575788E+03  0.12508869002E+03 0.  0.
         23    2    1    2    0    0  0.50575330593E+01  0.18465692649E+02  0.79465759109E+02  0.12443243351E+03  0.93819311411E+02 0.  0.
          5    1    3    3  502    0  0.26720747591E+02 -0.59545208035E+02  0.64289625595E+02  0.91707461588E+02  0.41800000000E+01 0.  1.
         -5    1    3    3    0  502 -0.31778280650E+02  0.41079515386E+02  0.13117920354E+03  0.14114829630E+03  0.41800000000E+01 0.  1.
        -11    1    4    4    0    0 -0.74951476667E+01  0.31781016358E+02 -0.91790537819E+01  0.33918509218E+02  0.00000000000E+00 0.  1.
         11    1    4    4    0    0  0.12552680726E+02 -0.13315323708E+02  0.88644812891E+02  0.90513924295E+02  0.00000000000E+00 0. -1.
</event>
<event>
 8    1  0.3719512E-009  0.1332581E+03  0.7561462E-02  0.1222700E+00
         -2   -1    0    0    0  501 -0.00000000000E+00  0.00000000000E+00  0.26893774728E+02  0.26893774728E+02  0.00000000000E+00 0.  1.
          2   -1    0    0  501    0  0.00000000000E+00 -0.00000000000E+00 -0.11009217753E+04  0.11009217753E+04  0.00000000000E+00 0. -1.
         25    2    1    2    0    0 -0.68240571983E+02 -0.74588219009E+02 -0.85624553495E+03  0.87121889234E+03  0.12508302911E+03 0.  0.
         23    2    1    2    0    0  0.68240571983E+02  0.74588219009E+02 -0.21778246567E+03  0.25659665773E+03  0.90512233031E+02 0.  0.
          5    1    3    3  502    0 -0.74885545651E+02 -0.13144423360E+02 -0.23814486126E+03  0.25002213534E+03  0.41800000000E+01 0.  1.
         -5    1    3    3    0  502  0.66449736683E+01 -0.61443795649E+02 -0.61810067369E+03  0.62119675700E+03  0.41800000000E+01 0.  1.
        -11    1    4    4    0    0  0.46234921288E+01  0.63721648947E+02 -0.14981649202E+03  0.16287052067E+03  0.00000000000E+00 0. -1.
         11    1    4    4    0    0  0.63617079854E+02  0.10866570062E+02 -0.67965973652E+02  0.93726137062E+02  0.00000000000E+00 0.  1.
</event>
<event>
 8    1  0.3719512E-009  0.3187372E+03  0.7561462E-02  0.1076232E+00
          1   -1    0    0  501    0  0.00000000000E+00  0.00000000000E+00  0.71734743784E+03  0.71734743784E+03  0.00000000000E+00 0. -1.
         -1   -1    0    0    0  501 -0.00000000000E+00 -0.00000000000E+00 -0.15724359108E+03  0.15724359108E+03  0.00000000000E+00 0.  1.
         25    2    1    2    0    0  0.25793929151E+03  0.16359487567E+03  0.17240705302E+03  0.37238081637E+03  0.12508924422E+03 0.  0.
         23    2    1    2    0    0 -0.25793929151E+03 -0.16359487567E+03  0.38769679374E+03  0.50221021255E+03  0.92791876025E+02 0.  0.
          5    1    3    3  502    0  0.26208543044E+03  0.13396838107E+03  0.13377342699E+03  0.32334053588E+03  0.41800000000E+01 0.  1.
         -5    1    3    3    0  502 -0.41461389266E+01  0.29626494598E+02  0.38633626034E+02  0.49040280492E+02  0.41800000000E+01 0.  1.
        -11    1    4    4    0    0 -0.13210784204E+03 -0.12347096601E+03  0.17369424136E+03  0.25073342589E+03  0.00000000000E+00 0. -1.
         11    1    4    4    0    0 -0.12583144947E+03 -0.40123909666E+02  0.21400255238E+03  0.25147678666E+03  0.00000000000E+00 0.  1.
</event>
<event>
 8    1  0.3719512E-009  0.1014843E+03  0.7561462E-02  0.1277205E+00
          1   -1    0    0  501    0  0.00000000000E+00  0.00000000000E+00  0.33160966228E+02  0.33160966228E+02  0.00000000000E+00 0. -1.
         -1   -1    0    0    0  501 -0.00000000000E+00 -0.00000000000E+00 -0.64531804012E+03  0.64531804012E+03  0.00000000000E+00 0.  1.
         25    2    1    2    0    0 -0.25291342176E+02  0.13827488045E+02 -0.53860446507E+03  0.55369087197E+03  0.12509180826E+03 0.  0.
         23    2    1    2    0    0  0.25291342176E+02 -0.13827488045E+02 -0.73552608827E+02  0.12478813438E+03  0.96598347829E+02 0.  0.
          5    1    3    3  502    0 -0.65919167080E+02  0.24064769594E+02 -0.45153808649E+03  0.45697764242E+03  0.41800000000E+01 0. -1.
         -5    1    3    3    0  502  0.40627824904E+02 -0.10237281549E+02 -0.87066378577E+02  0.96713229542E+02  0.41800000000E+01 0. -1.
        -11    1    4    4    0    0 -0.17368513663E+02 -0.37821942475E+02 -0.61706378229E+02  0.74430112949E+02  0.00000000000E+00 0.  1.
         11    1    4    4    0    0  0.42659855839E+02  0.23994454430E+02 -0.11846230598E+02  0.50358021436E+02  0.00000000000E+00 0. -1.
</event>
<event>
 8    1  0.3719512E-009  0.1456651E+03  0.7561462E-02  0.1205903E+00
         -2   -1    0    0    0  501 -0.00000000000E+00  0.00000000000E+00  0.28479539851E+02  0.28479539851E+02  0.00000000000E+00 0.  1.
          2   -1    0    0  501    0  0.00000000000E+00 -0.00000000000E+00 -0.12249604594E+04  0.12249604594E+04  0.00000000000E+00 0. -1.
         25    2    1    2    0    0 -0.84878530565E+02  0.84366445048E+02 -0.94826331735E+03  0.96393612891E+03  0.12508988603E+03 0.  0.
         23    2    1    2    0    0  0.84878530565E+02 -0.84366445048E+02 -0.24821760225E+03  0.28950387039E+03  0.88760638256E+02 0.  0.
          5    1    3    3  502    0 -0.86149280838E+02  0.12886452814E+02 -0.70431864509E+03  0.70969710826E+03  0.41800000000E+01 0. -1.
         -5    1    3    3    0  502  0.12707502728E+01  0.71479992234E+02 -0.24394467226E+03  0.25423902065E+03  0.41800000000E+01 0. -1.
        -11    1    4    4    0    0  0.17642012165E+02  0.70757818946E+01 -0.10528792006E+03  0.10698996866E+03  0.00000000000E+00 0. -1.
         11    1    4    4    0    0  0.67236518400E+02 -0.91442226942E+02 -0.14292968218E+03  0.18251390173E+03  0.00000000000E+00 0.  1.
</event>
<event>
 8    1  0.3719512E-009  0.1240935E+03  0.7561462E-02  0.1236493E+00
          1   -1    0    0  501    0  0.00000000000E+00  0.00000000000E+00  0.29853607837E+02  0.29853607837E+02  0.00000000000E+00 0. -1.
         -1   -1    0    0    0  501 -0.00000000000E+00 -0.00000000000E+00 -0.88135711914E+03  0.88135711914E+03  0.00000000000E+00 0.  1.
         25    2    1    2    0    0  0.91311130569E+02 -0.28572285795E+02 -0.66329723603E+03  0.68173781364E+03  0.12509646332E+03 0.  0.
         23    2    1    2    0    0 -0.91311130569E+02  0.28572285795E+02 -0.18820627527E+03  0.22947291334E+03  0.89900599684E+02 0.  0.
          5    1    3    3  502    0 -0.13412449608E+02  0.38559277793E+01 -0.66946043713E+01  0.16032844764E+02  0.41800000000E+01 0.  1.
         -5    1    3    3    0  502  0.10472358018E+03 -0.32428213574E+02 -0.65660263166E+03  0.66570496887E+03  0.41800000000E+01 0.  1.
        -11    1    4    4    0    0 -0.31257706750E+02  0.50990180810E+02 -0.53299955328E+02  0.80111971691E+02  0.00000000000E+00 0. -1.
         11    1    4    4    0    0 -0.60053423818E+02 -0.22417895015E+02 -0.13490631995E+03  0.14936094165E+03  0.00000000000E+00 0.  1.
</event>
<event>
 8    1  0.3719512E-009  0.1183605E+03  0.7561462E-02  0.1245827E+00
          1   -1    0    0  501    0  0.00000000000E+00  0.00000000000E+00  0.24445452844E+03  0.24445452844E+03  0.00000000000E+00 0. -1.
         -1   -1    0    0    0  501 -0.00000000000E+00 -0.00000000000E+00 -0.79948314652E+02  0.79948314652E+02  0.00000000000E+00 0.  1.
         25    2    1    2    0    0 -0.51999095812E+02  0.15733366608E+02  0.17206469695E+03  0.21954848884E+03  0.12507531423E+03 0.  0.
         23    2    1    2    0    0  0.51999095812E+02 -0.15733366608E+02 -0.75584831543E+01  0.10485435425E+03  0.89363639964E+02 0.  0.
          5    1    3    3  502    0 -0.34971196600E+02 -0.53692894033E+02  0.71598075074E+02  0.96175195428E+02  0.41800000000E+01 0.  1.
         -5    1    3    3    0  502 -0.17027899212E+02  0.69426260642E+02  0.10046662187E+03  0.12337329342E+03  0.41800000000E+01 0.  1.
        -11    1    4    4    0    0  0.10675963285E+01  0.31452907791E+02 -0.15301376113E+02  0.34993674876E+02  0.00000000000E+00 0.  1.
         11    1    4    4    0    0  0.50931499483E+02 -0.47186274399E+02  0.77428929582E+01  0.69860679374E+02  0.00000000000E+00 0. -1.
</event>
<event>
 8    1  0.3719512E-009  0.1158934E+03  0.7561462E-02  0.1250030E+00
         -1   -1    0    0    0  501 -0.00000000000E+00  0.00000000000E+00  0.15186941904E+02  0.15186941904E+02  0.00000000000E+00 0.  1.
          1   -1    0    0  501    0  0.00000000000E+00 -0.00000000000E+00 -0.92813231701E+03  0.92813231701E+03  0.00000000000E+00 0. -1.
         25    2    1    2    0    0  0.41575932407E+02 -0.64825321037E+01 -0.59512108865E+03  0.60958120735E+03  0.12509818873E+03 0.  0.
         23    2    1    2    0    0 -0.41575932407E+02  0.64825321037E+01 -0.31782428646E+03  0.33373805156E+03  0.92726633822E+02 0.  0.
          5    1    3    3  502    0  0.84700087913E+02  0.74810728317E+01 -0.34476207538E+03  0.35511749093E+03  0.41800000000E+01 0. -1.
         -5    1    3    3    0  502 -0.43124155506E+02 -0.13963604935E+02 -0.25035901326E+03  0.25446371642E+03  0.41800000000E+01 0. -1.
        -11    1    4    4    0    0 -0.16906410514E+02 -0.42801754433E+02 -0.16418591398E+03  0.17051343422E+03  0.00000000000E+00 0. -1.
         11    1    4    4    0    0 -0.24669521893E+02  0.49284286536E+02 -0.15363837248E+03  0.16322461734E+03  0.00000000000E+00 0.  1.
</event>
<event>
 8    1  0.3719512E-009  0.1049258E+03  0.7561462E-02  0.1270266E+00
         -4   -1    0    0    0  501 -0.00000000000E+00  0.00000000000E+00  0.13640316039E+03  0.13640316039E+03  0.00000000000E+00 0.  1.
          4   -1    0    0  501    0  0.00000000000E+00 -0.00000000000E+00 -0.11293227364E+03  0.11293227364E+03  0.00000000000E+00 0. -1.
         25    2    1    2    0    0 -0.57832371262E+02 -0.12272331619E+02  0.26927187851E+02  0.14095285177E+03  0.12508972655E+03 0.  0.
         23    2    1    2    0    0  0.57832371262E+02  0.12272331619E+02 -0.34563011057E+01  0.10838258226E+03  0.90772489395E+02 0.  0.
          5    1    3    3  502    0 -0.31816033145E+02  0.51760845231E+02  0.36577076455E+02  0.71040833231E+02  0.41800000000E+01 0. -1.
         -5    1    3    3    0  502 -0.26016338117E+02 -0.64033176850E+02 -0.96498886044E+01  0.69912018542E+02  0.41800000000E+01 0. -1.
        -11    1    4    4    0    0  0.43556815487E+02 -0.17302788762E+02  0.34496180262E+02  0.58194236201E+02  0.00000000000E+00 0.  1.
         11    1    4    4    0    0  0.14275555775E+02  0.29575120382E+02 -0.37952481367E+02  0.50188346060E+02  0.00000000000E+00 0. -1.
</event>
<event>
 8    1  0.3719512E-009  0.2416280E+03  0.7561462E-02  0.1118713E+00
         -1   -1    0    0    0  501 -0.00000000000E+00  0.00000000000E+00  0.11529556101E+03  0.11529556101E+03  0.00000000000E+00 0.  1.
          1   -1    0    0  501    0  0.00000000000E+00 -0.00000000000E+00 -0.59662181161E+03  0.59662181161E+03  0.00000000000E+00 0. -1.
         25    2    1    2    0    0 -0.20845948082E+03 -0.80617447669E+02 -0.35918574926E+03  0.44114865892E+03  0.12507281392E+03 0.  0.
         23    2    1    2    0    0  0.20845948082E+03  0.80617447669E+02 -0.12214050134E+03  0.27076871369E+03  0.91885070806E+02 0.  0.
          5    1    3    3  502    0 -0.22378817398E+03 -0.80806852716E+02 -0.31936071311E+03  0.39827080202E+03  0.41800000000E+01 0.  1.
         -5    1    3    3    0  502  0.15328693162E+02  0.18940504756E+00 -0.39825036149E+02  0.42877856903E+02  0.41800000000E+01 0.  1.
        -11    1    4    4    0    0  0.93397125148E+02  0.89087951248E+01 -0.91248912986E+01  0.94263743071E+02  0.00000000000E+00 0.  1.
         11    1    4    4    0    0  0.11506235567E+03  0.71708652544E+02 -0.11301561004E+03  0.17650497062E+03  0.00000000000E+00 0. -1.
</event>
<event>
 8    1  0.3719512E-009  0.1185541E+03  0.7561462E-02  0.1245502E+00
          2   -1    0    0  501    0  0.00000000000E+00  0.00000000000E+00  0.27418524802E+03  0.27418524802E+03  0.00000000000E+00 0. -1.
         -2   -1    0    0    0  501 -0.00000000000E+00 -0.00000000000E+00 -0.71211895142E+02  0.71211895142E+02  0.00000000000E+00 0.  1.
         25    2    1    2    0    0  0.82053866491E+02 -0.14433489328E+02  0.82607607055E+02  0.17150046931E+03  0.12508889482E+03 0.  0.
         23    2    1    2    0    0 -0.82053866491E+02  0.14433489328E+02  0.12036574583E+03  0.17389667386E+03  0.93866808784E+02 0.  0.
          5    1    3    3  502    0 -0.30753377235E+02  0.86881535284E+00  0.45677891526E+00  0.31051668208E+02  0.41800000000E+01 0. -1.
         -5    1    3    3    0  502  0.11280724373E+03 -0.15302304680E+02  0.82150828140E+02  0.14044880110E+03  0.41800000000E+01 0. -1.
        -11    1    4    4    0    0 -0.61498524517E+02 -0.76507786197E+01  0.14269582228E+02  0.63594212852E+02  0.00000000000E+00 0.  1.
         11    1    4    4    0    0 -0.20555341975E+02  0.22084267947E+02  0.10609616360E+03  0.11030246101E+03  0.00000000000E+00 0. -1.
</event>
<event>
 8    1  0.3719512E-009  0.1416733E+03  0.7561462E-02  0.1211095E+00
          2   -1    0    0  501    0  0.00000000000E+00  0.00000000000E+00  0.82158167696E+03  0.82158167696E+03  0.00000000000E+00 0.  1.
         -2   -1    0    0    0  501 -0.00000000000E+00 -0.00000000000E+00 -0.42604705600E+02  0.42604705600E+02  0.00000000000E+00 0. -1.
         25    2    1    2    0    0 -0.10587000289E+03  0.59152600652E+02  0.19771102206E+03  0.26352310455E+03  0.12508913107E+03 0.  0.
         23    2    1    2    0    0  0.10587000289E+03 -0.59152600652E+02  0.58126594930E+03  0.60066327801E+03  0.90657498626E+02 0.  0.
          5    1    3    3  502    0  0.13546833023E+02 -0.38350145114E+01 -0.85313067920E+01  0.16984687717E+02  0.41800000000E+01 0. -1.
         -5    1    3    3    0  502 -0.11941683592E+03  0.62987615163E+02  0.20624232885E+03  0.24653841683E+03  0.41800000000E+01 0. -1.
        -11    1    4    4    0    0  0.43430804529E+01 -0.26621655087E+02  0.35516664563E+02  0.44598299621E+02  0.00000000000E+00 0. -1.
         11    1    4    4    0    0  0.10152692244E+03 -0.32530945565E+02  0.54574928474E+03  0.55606497839E+03  0.00000000000E+00 0.  1.
</event>
<event>
 8    1  0.3719512E-009  0.1317446E+03  0.7561462E-02  0.1224890E+00
          2   -1    0    0  501    0  0.00000000000E+00  0.00000000000E+00  0.15700006090E+03  0.15700006090E+03  0.00000000000E+00 0. -1.
         -2   -1    0    0    0  501 -0.00000000000E+00 -0.00000000000E+00 -0.15015615070E+03  0.15015615070E+03  0.00000000000E+00 0.  1.
         25    2    1    2    0    0  0.16103558675E+02 -0.89442739304E+02 -0.56388705099E+02  0.16457891643E+03  0.12508879028E+03 0.  0.
         23    2    1    2    0    0 -0.16103558675E+02  0.89442739304E+02  0.63232615296E+02  0.14257729517E+03  0.89836480588E+02 0.  0.
          5    1    3    3  502    0 -0.30751060361E+02  0.17329294032E+02 -0.25918660355E+02  0.43990697875E+02  0.41800000000E+01 0.  1.
         -5    1    3    3    0  502  0.46854619036E+02 -0.10677203334E+03 -0.30470044744E+02  0.12058821856E+03  0.41800000000E+01 0.  1.
        -11    1    4    4    0    0  0.18157201717E+02  0.69053689554E+02  0.72381960959E+02  0.10167223951E+03  0.00000000000E+00 0. -1.
         11    1    4    4    0    0 -0.34260760391E+02  0.20389049751E+02 -0.91493456623E+01  0.40905055658E+02  0.00000000000E+00 0.  1.
</event>
<event>
 8    1  0.3719512E-009  0.2926137E+03  0.7561462E-02  0.1088992E+00
         -1   -1    0    0    0  501 -0.00000000000E+00  0.00000000000E+00  0.16415657473E+03  0.16415657473E+03  0.00000000000E+00 0.  1.
          1   -1    0    0  501    0  0.00000000000E+00 -0.00000000000E+00 -0.55619716894E+03  0.55619716894E+03  0.00000000000E+00 0. -1.
         25    2    1    2    0    0 -0.25699759273E+03  0.10553439895E+03 -0.25641072648E+03  0.39822073599E+03  0.12509205368E+03 0.  0.
         23    2    1    2    0    0  0.25699759273E+03 -0.10553439895E+03 -0.13562986773E+03  0.32213300768E+03  0.90492770895E+02 0.  0.
          5    1    3    3  502    0 -0.99380027112E+02 -0.21839020011E+02 -0.91774329848E+02  0.13708877636E+03  0.41800000000E+01 0. -1.
         -5    1    3    3    0  502 -0.15761756561E+03  0.12737341897E+03 -0.16463639663E+03  0.26113195964E+03  0.41800000000E+01 0. -1.
        -11    1    4    4    0    0  0.83935405461E+02 -0.55211722215E+02 -0.93059367206E+02  0.13694353721E+03  0.00000000000E+00 0. -1.
         11    1    4    4    0    0  0.17306218726E+03 -0.50322676739E+02 -0.42570500524E+02  0.18518947046E+03  0.00000000000E+00 0.  1.
</event>
<event>
 8    1  0.3719512E-009  0.1743255E+03  0.7561462E-02  0.1173411E+00
         -1   -1    0    0    0  501 -0.00000000000E+00  0.00000000000E+00  0.44451075706E+02  0.44451075706E+02  0.00000000000E+00 0.  1.
          1   -1    0    0  501    0  0.00000000000E+00 -0.00000000000E+00 -0.83823853894E+03  0.83823853894E+03  0.00000000000E+00 0. -1.
         25    2    1    2    0    0  0.12735438126E+03  0.60073516747E+02 -0.24454024887E+03  0.30866600869E+03  0.12508719262E+03 0.  0.
         23    2    1    2    0    0 -0.12735438126E+03 -0.60073516747E+02 -0.54924721436E+03  0.57402360596E+03  0.89457430531E+02 0.  0.
          5    1    3    3  502    0  0.87333345775E+02 -0.26124740692E+02 -0.14202152516E+03  0.16881114113E+03  0.41800000000E+01 0.  1.
         -5    1    3    3    0  502  0.40021035489E+02  0.86198257439E+02 -0.10251872371E+03  0.13985486755E+03  0.41800000000E+01 0.  1.
        -11    1    4    4    0    0 -0.58258026549E+02  0.15082369391E+02 -0.14303940209E+03  0.15518294389E+03  0.00000000000E+00 0.  1.
         11    1    4    4    0    0 -0.69096354715E+02 -0.75155886138E+02 -0.40620781227E+03  0.41884066207E+03  0.00000000000E+00 0. -1.
</event>
<event>
 8    1  0.3719512E-009  0.1003357E+03  0.7561462E-02  0.1279592E+00
         -2   -1    0    0    0  501 -0.00000000000E+00  0.00000000000E+00  0.46091313598E+02  0.46091313598E+02  0.00000000000E+00 0.  1.
          2   -1    0    0  501    0  0.00000000000E+00 -0.00000000000E+00 -0.40592011997E+03  0.40592011997E+03  0.00000000000E+00 0. -1.
         25    2    1    2    0    0  0.27711163643E+02 -0.73958102030E+02 -0.23669658313E+03  0.27912422587E+03  0.12508937426E+03 0.  0.
         23    2    1    2    0    0 -0.27711163643E+02  0.73958102030E+02 -0.12313222324E+03  0.17288720770E+03  0.92145172093E+02 0.  0.
          5    1    3    3  502    0  0.35282384389E+02 -0.72438712218E+01 -0.35120637576E+01  0.36429758581E+02  0.41800000000E+01 0.  1.
         -5    1    3    3    0  502 -0.75712207457E+01 -0.66714230808E+02 -0.23318451937E+03  0.24269446729E+03  0.41800000000E+01 0.  1.
        -11    1    4    4    0    0 -0.14425373485E+01  0.70647734837E+02 -0.31245952874E+02  0.77262493635E+02  0.00000000000E+00 0. -1.
         11    1    4    4    0    0 -0.26268626295E+02  0.33103671924E+01 -0.91886270366E+02  0.95624714066E+02  0.00000000000E+00 0.  1.
</event>
<event>
 8    1  0.3719512E-009  0.1173277E+03  0.7561462E-02  0.1247572E+00
          1   -1    0    0  501    0  0.00000000000E+00  0.00000000000E+00  0.67175097867E+02  0.67175097867E+02  0.00000000000E+00 0. -1.
         -1   -1    0    0    0  501 -0.00000000000E+00 -0.00000000000E+00 -0.38065968052E+03  0.38065968052E+03  0.00000000000E+00 0.  1.
         25    2    1    2    0    0 -0.53475678639E+02  0.47112031154E+02 -0.29747719027E+03  0.33048367041E+03  0.12509031134E+03 0.  0.
         23    2    1    2    0    0  0.53475678639E+02 -0.47112031154E+02 -0.16007392385E+02  0.11735110798E+03  0.91846906575E+02 0.  0.
          5    1    3    3  502    0  0.37691789707E+01  0.71532078952E+02 -0.97854591986E+02  0.12134264956E+03  0.41800000000E+01 0. -1.
         -5    1    3    3    0  502 -0.57244857609E+02 -0.24420047798E+02 -0.19962259829E+03  0.20914102085E+03  0.41800000000E+01 0. -1.
        -11    1    4    4    0    0  0.53963195393E+02 -0.63952984676E+02 -0.36097076045E+02  0.91131825423E+02  0.00000000000E+00 0.  1.
         11    1    4    4    0    0 -0.48751675447E+00  0.16840953522E+02  0.20089683660E+02  0.26219282554E+02  0.00000000000E+00 0. -1.
</event>
<event>
 8    1  0.3719512E-009  0.2729046E+03  0.7561462E-02  0.1099629E+00
         -2   -1    0    0    0  501 -0.00000000000E+00  0.00000000000E+00  0.29373445828E+02  0.29373445828E+02  0.00000000000E+00 0.  1.
          2   -1    0    0  501    0  0.00000000000E+00 -0.00000000000E+00 -0.25676299267E+04  0.25676299267E+04  0.00000000000E+00 0. -1.
         25    2    1    2    0    0  0.13198200174E+03 -0.21582104939E+03 -0.13528912998E+04  0.13820131908E+04  0.12509043313E+03 0.  0.
         23    2    1    2    0    0 -0.13198200174E+03  0.21582104939E+03 -0.11853651811E+04  0.12149901818E+04  0.84335964710E+02 0.  0.
          5    1    3    3  502    0  0.15049513224E+03 -0.15723507321E+03 -0.11296195380E+04  0.11504040274E+04  0.41800000000E+01 0.  1.
         -5    1    3    3    0  502 -0.18513130501E+02 -0.58585976177E+02 -0.22327176173E+03  0.23160916345E+03  0.41800000000E+01 0.  1.
        -11    1    4    4    0    0 -0.96288133380E+02  0.77265370243E+02 -0.53015215226E+03  0.54433688706E+03  0.00000000000E+00 0. -1.
         11    1    4    4    0    0 -0.35693868359E+02  0.13855567914E+03 -0.65521302889E+03  0.67065329469E+03  0.00000000000E+00 0.  1.
</event>
<event>
 8    1  0.3719512E-009  0.1684544E+03  0.7561462E-02  0.1179469E+00
          1   -1    0    0  501    0  0.00000000000E+00  0.00000000000E+00  0.99575012608E+03  0.99575012608E+03  0.00000000000E+00 0. -1.
         -1   -1    0    0    0  501 -0.00000000000E+00 -0.00000000000E+00 -0.42105058647E+02  0.42105058647E+02  0.00000000000E+00 0.  1.
         25    2    1    2    0    0  0.11946061902E+03 -0.10521518461E+03  0.65911246564E+03  0.68950568044E+03  0.12509103261E+03 0.  0.
         23    2    1    2    0    0 -0.11946061902E+03  0.10521518461E+03  0.29453260180E+03  0.34834950428E+03  0.96212520202E+02 0.  0.
          5    1    3    3  502    0  0.70618111210E+01 -0.44943902887E+01 -0.34395055484E+01  0.99685163787E+01  0.41800000000E+01 0.  1.
         -5    1    3    3    0  502  0.11239880790E+03 -0.10072079432E+03  0.66255197118E+03  0.67953716406E+03  0.41800000000E+01 0.  1.
        -11    1    4    4    0    0 -0.34709737625E+02 -0.75363296788E+01  0.11304988685E+03  0.11849826610E+03  0.00000000000E+00 0. -1.
         11    1    4    4    0    0 -0.84750881397E+02  0.11275151428E+03  0.18148271495E+03  0.22985123818E+03  0.00000000000E+00 0.  1.
</event>
<event>
 8    1  0.3719512E-009  0.1203141E+03  0.7561462E-02  0.1242580E+00
         -2   -1    0    0    0  501 -0.00000000000E+00  0.00000000000E+00  0.17644068905E+03  0.17644068905E+03  0.00000000000E+00 0.  1.
          2   -1    0    0  501    0  0.00000000000E+00 -0.00000000000E+00 -0.98421473524E+02  0.98421473524E+02  0.00000000000E+00 0. -1.
         25    2    1    2    0    0  0.16252219601E+02  0.44537355815E+02 -0.81938024422E+01  0.13402603600E+03  0.12509248267E+03 0.  0.
         23    2    1    2    0    0 -0.16252219601E+02 -0.44537355815E+02  0.86213017967E+02  0.14083612658E+03  0.10076913901E+03 0.  0.
          5    1    3    3  502    0  0.24829463668E+02 -0.40776735673E+02 -0.23656948505E+01  0.47982427515E+02  0.41800000000E+01 0. -1.
         -5    1    3    3    0  502 -0.85772440674E+01  0.85314091488E+02 -0.58281075917E+01  0.86043608480E+02  0.41800000000E+01 0. -1.
        -11    1    4    4    0    0  0.40329784315E+02 -0.14987918854E+02  0.54858608373E+02  0.69717975638E+02  0.00000000000E+00 0. -1.
         11    1    4    4    0    0 -0.56582003916E+02 -0.29549436961E+02  0.31354409594E+02  0.71118150938E+02  0.00000000000E+00 0.  1.
</event>
<event>
 8    1  0.3719512E-009  0.9599216E+02  0.7561462E-02  0.1288957E+00
          2   -1    0    0  501    0  0.00000000000E+00  0.00000000000E+00  0.53962671477E+02  0.53962671477E+02  0.00000000000E+00 0. -1.
         -2   -1    0    0    0  501 -0.00000000000E+00 -0.00000000000E+00 -0.23491714119E+03  0.23491714119E+03  0.00000000000E+00 0.  1.
         25    2    1    2    0    0  0.29365008729E+02 -0.58826188910E+01 -0.10227596906E+03  0.16433094960E+03  0.12508948080E+03 0.  0.
         23    2    1    2    0    0 -0.29365008729E+02  0.58826188910E+01 -0.78678500645E+02  0.12454886306E+03  0.91788909371E+02 0.  0.
          5    1    3    3  502    0  0.56872775068E+02 -0.49247774711E+02 -0.73765718641E+02  0.10544529152E+03  0.41800000000E+01 0.  1.
         -5    1    3    3    0  502 -0.27507766339E+02  0.43365155820E+02 -0.28510250424E+02  0.58885658080E+02  0.41800000000E+01 0.  1.
        -11    1    4    4    0    0 -0.42060529985E+02 -0.11484270907E+02 -0.90171184554E+02  0.10015896957E+03  0.00000000000E+00 0.  1.
         11    1    4    4    0    0  0.12695521256E+02  0.17366889798E+02  0.11492683909E+02  0.24389893494E+02  0.00000000000E+00 0. -1.
</event>
<event>
 8    1  0.3719512E-009  0.1662499E+03  0.7561462E-02  0.1181816E+00
          2   -1    0    0  501    0  0.00000000000E+00  0.00000000000E+00  0.14168495893E+04  0.14168495893E+04  0.00000000000E+00 0.  1.
         -2   -1    0    0    0  501 -0.00000000000E+00 -0.00000000000E+00 -0.24439634030E+02  0.24439634030E+02  0.00000000000E+00 0. -1.
         25    2    1    2    0    0  0.81088199257E+02  0.12408010954E+03  0.85403656014E+03  0.87578435519E+03  0.12509444869E+03 0.  0.
         23    2    1    2    0    0 -0.81088199257E+02 -0.12408010954E+03  0.53837339515E+03  0.56550486816E+03  0.89323421730E+02 0.  0.
          5    1    3    3  502    0  0.80378951192E+02  0.25348959590E+02  0.54036102638E+03  0.54691028221E+03  0.41800000000E+01 0.  1.
         -5    1    3    3    0  502  0.70924806514E+00  0.98731149946E+02  0.31367553375E+03  0.32887407298E+03  0.41800000000E+01 0.  1.
        -11    1    4    4    0    0 -0.47519665715E+02 -0.56438525162E+02  0.12385756142E+03  0.14416699093E+03  0.00000000000E+00 0. -1.
         11    1    4    4    0    0 -0.33568533542E+02 -0.67641584374E+02  0.41451583373E+03  0.42133787724E+03  0.00000000000E+00 0.  1.
</event>
<event>
 8    1  0.3719512E-009  0.6885917E+02  0.7561462E-02  0.1364016E+00
         -1   -1    0    0    0  501 -0.00000000000E+00  0.00000000000E+00  0.83451868324E+02  0.83451868324E+02  0.00000000000E+00 0.  1.
          1   -1    0    0  501    0  0.00000000000E+00 -0.00000000000E+00 -0.14403756050E+03  0.14403756050E+03  0.00000000000E+00 0. -1.
         25    2    1    2    0    0  0.16483255025E+02 -0.17503462150E+01 -0.28443122016E+02  0.12934817009E+03  0.12508867458E+03 0.  0.
         23    2    1    2    0    0 -0.16483255025E+02  0.17503462150E+01 -0.32142570164E+02  0.98141258737E+02  0.91234864178E+02 0.  0.
          5    1    3    3  502    0  0.33577373844E+02  0.41219580367E+02  0.24704942989E+02  0.58773297066E+02  0.41800000000E+01 0.  1.
         -5    1    3    3    0  502 -0.17094118819E+02 -0.42969926582E+02 -0.53148065006E+02  0.70574873025E+02  0.41800000000E+01 0.  1.
        -11    1    4    4    0    0  0.10385080109E+02 -0.26781676364E+01  0.29156240675E+02  0.31066200943E+02  0.00000000000E+00 0.  1.
         11    1    4    4    0    0 -0.26868335133E+02  0.44285138514E+01 -0.61298810839E+02  0.67075057793E+02  0.00000000000E+00 0. -1.
</event>
<event>
 8    1  0.3719512E-009  0.2243282E+03  0.7561462E-02  0.1130697E+00
          3   -1    0    0  501    0  0.00000000000E+00  0.00000000000E+00  0.34426557419E+02  0.34426557419E+02  0.00000000000E+00 0. -1.
         -3   -1    0    0    0  501 -0.00000000000E+00 -0.00000000000E+00 -0.18396939318E+04  0.18396939318E+04  0.00000000000E+00 0.  1.
         25    2    1    2    0    0 -0.20800474935E+03  0.31927735353E+02 -0.12439966921E+04  0.12678557423E+04  0.12508020280E+03 0.  0.
         23    2    1    2    0    0  0.20800474935E+03 -0.31927735353E+02 -0.56127068231E+03  0.60626474701E+03  0.90811940879E+02 0.  0.
          5    1    3    3  502    0 -0.11879613209E+03 -0.36591090514E+02 -0.81029815579E+03  0.81978777899E+03  0.41800000000E+01 0. -1.
         -5    1    3    3    0  502 -0.89208617266E+02  0.68518825867E+02 -0.43369853633E+03  0.44806796327E+03  0.41800000000E+01 0. -1.
        -11    1    4    4    0    0  0.13357992432E+03 -0.31718476376E+02 -0.24008670003E+03  0.27657057229E+03  0.00000000000E+00 0. -1.
         11    1    4    4    0    0  0.74424825034E+02 -0.20925897719E+00 -0.32118398228E+03  0.32969417472E+03  0.00000000000E+00 0.  1.
</event>
<event>
 8    1  0.3719512E-009  0.7716620E+02  0.7561462E-02  0.1337291E+00
          1   -1    0    0  501    0  0.00000000000E+00  0.00000000000E+00  0.13103379605E+03  0.13103379605E+03  0.00000000000E+00 0. -1.
         -1   -1    0    0    0  501 -0.00000000000E+00 -0.00000000000E+00 -0.22413160200E+03  0.22413160200E+03  0.00000000000E+00 0.  1.
         25    2    1    2    0    0 -0.34467286145E+01 -0.29315469362E+02 -0.18352289359E+03  0.22404849680E+03  0.12508317139E+03 0.  0.
         23    2    1    2    0    0  0.34467286145E+01  0.29315469362E+02  0.90425087642E+02  0.13111690124E+03  0.90242277419E+02 0.  0.
          5    1    3    3  502    0  0.37286634901E+02 -0.32099609012E+02 -0.16506901382E+02  0.52063694013E+02  0.41800000000E+01 0. -1.
         -5    1    3    3    0  502 -0.40733363516E+02  0.27841396502E+01 -0.16701599221E+03  0.17198480279E+03  0.41800000000E+01 0. -1.
        -11    1    4    4    0    0  0.25145794220E+01  0.46567703335E+02  0.10072853387E+03  0.11100050287E+03  0.00000000000E+00 0. -1.
         11    1    4    4    0    0  0.93214919247E+00 -0.17252233973E+02 -0.10303446223E+02  0.20116398367E+02  0.00000000000E+00 0.  1.
</event>
<event>
 8    1  0.3719512E-009  0.1424610E+03  0.7561462E-02  0.1210055E+00
          2   -1    0    0  501    0  0.00000000000E+00  0.00000000000E+00  0.36949851637E+03  0.36949851637E+03  0.00000000000E+00 0. -1.
         -2   -1    0    0    0  501 -0.00000000000E+00 -0.00000000000E+00 -0.68562888149E+02  0.68562888149E+02  0.00000000000E+00 0.  1.
         25    2    1    2    0    0 -0.20273823903E+02 -0.10626141578E+03  0.11037535583E+03  0.19883244308E+03  0.12509638215E+03 0.  0.
         23    2    1    2    0    0  0.20273823903E+02  0.10626141578E+03  0.19056027240E+03  0.23922896144E+03  0.95993552689E+02 0.  0.
          5    1    3    3  502    0  0.52403155605E+02 -0.43351159632E+02  0.34956842472E+02  0.76582419617E+02  0.41800000000E+01 0.  1.
         -5    1    3    3    0  502 -0.72676979508E+02 -0.62910256152E+02  0.75418513354E+02  0.12225002346E+03  0.41800000000E+01 0.  1.
        -11    1    4    4    0    0  0.37858656774E+02  0.84482416002E+02  0.18985995808E+03  0.21122821826E+03  0.00000000000E+00 0. -1.
         11    1    4    4    0    0 -0.17584832872E+02  0.21778999781E+02  0.70031431183E+00  0.28000743182E+02  0.00000000000E+00 0.  1.
</event>
<event>
 8    1  0.3719512E-009  0.9195916E+02  0.7561462E-02  0.1298175E+00
          1   -1    0    0  501    0  0.00000000000E+00  0.00000000000E+00  0.46211681292E+03  0.46211681292E+03  0.00000000000E+00 0. -1.
         -1   -1    0    0    0  501 -0.00000000000E+00 -0.00000000000E+00 -0.26517132936E+02  0.26517132936E+02  0.00000000000E+00 0.  1.
         25    2    1    2    0    0  0.47736327068E+00  0.19108760409E+02  0.28584740048E+03  0.31260269302E+03  0.12508530977E+03 0.  0.
         23    2    1    2    0    0 -0.47736327068E+00 -0.19108760409E+02  0.14975227950E+03  0.17603125284E+03  0.90531122604E+02 0.  0.
          5    1    3    3  502    0 -0.34228611168E+02 -0.40799735454E+02  0.16295066704E+03  0.17148355176E+03  0.41800000000E+01 0. -1.
         -5    1    3    3    0  502  0.34705974438E+02  0.59908495863E+02  0.12289673344E+03  0.14111914125E+03  0.41800000000E+01 0. -1.
        -11    1    4    4    0    0 -0.26318815398E+02 -0.23063879465E+02  0.14537167238E+03  0.14952439837E+03  0.00000000000E+00 0. -1.
         11    1    4    4    0    0  0.25841452127E+02  0.39551190558E+01  0.43806071248E+01  0.26506854464E+02  0.00000000000E+00 0.  1.
</event>
<event>
 8    1  0.3719512E-009  0.4518145E+03  0.7561462E-02  0.1027182E+00
         -2   -1    0    0    0  501 -0.00000000000E+00  0.00000000000E+00  0.12856389358E+03  0.12856389358E+03  0.00000000000E+00 0.  1.
          2   -1    0    0  501    0  0.00000000000E+00 -0.00000000000E+00 -0.17923446375E+04  0.17923446375E+04  0.00000000000E+00 0. -1.
         25    2    1    2    0    0  0.23556223353E+03 -0.37913403877E+03 -0.56572588481E+03  0.73138592644E+03  0.12508961359E+03 0.  0.
         23    2    1    2    0    0 -0.23556223353E+03  0.37913403877E+03 -0.10980548591E+04  0.11895226047E+04  0.10003683383E+03 0.  0.
          5    1    3    3  502    0  0.13463272852E+02 -0.19996563644E+02  0.11699060580E+01  0.24494149375E+02  0.41800000000E+01 0. -1.
         -5    1    3    3    0  502  0.22209896067E+03 -0.35913747513E+03 -0.56689579087E+03  0.70689177706E+03  0.41800000000E+01 0. -1.
        -11    1    4    4    0    0 -0.66958178215E+02  0.19984327061E+03 -0.47757595655E+03  0.52201487020E+03  0.00000000000E+00 0.  1.
         11    1    4    4    0    0 -0.16860405531E+03  0.17929076816E+03 -0.62047890258E+03  0.66750773446E+03  0.00000000000E+00 0. -1.
</event>
<event>
 8    1  0.3719512E-009  0.9439623E+02  0.7561462E-02  0.1292542E+00
          1   -1    0    0  501    0  0.00000000000E+00  0.00000000000E+00  0.20106554013E+03  0.20106554013E+03  0.00000000000E+00 0.  1.
         -1   -1    0    0    0  501 -0.00000000000E+00 -0.00000000000E+00 -0.13773789053E+03  0.13773789053E+03  0.00000000000E+00 0. -1.
         25    2    1    2    0    0  0.24536972589E+02  0.34720424818E+02  0.15400968364E+03  0.20291569891E+03  0.12509287464E+03 0.  0.
         23    2    1    2    0    0 -0.24536972589E+02 -0.34720424818E+02 -0.90682034048E+02  0.13588773175E+03  0.91840478105E+02 0.  0.
          5    1    3    3  502    0 -0.16391170013E+02  0.60976982050E+02  0.30770964045E+02  0.70364674537E+02  0.41800000000E+01 0. -1.
         -5    1    3    3    0  502  0.40928142602E+02 -0.26256557232E+02  0.12323871959E+03  0.13255102437E+03  0.41800000000E+01 0. -1.
        -11    1    4    4    0    0 -0.33189445226E+02  0.71508627231E+01 -0.86504156647E+02  0.92928161659E+02  0.00000000000E+00 0. -1.
         11    1    4    4    0    0  0.86524726370E+01 -0.41871287541E+02 -0.41778774008E+01  0.42959570094E+02  0.00000000000E+00 0.  1.
</event>
<event>
 8    1  0.3719512E-009  0.1160068E+03  0.7561462E-02  0.1249834E+00
          1   -1    0    0  501    0  0.00000000000E+00  0.00000000000E+00  0.14350986839E+03  0.14350986839E+03  0.00000000000E+00 0. -1.
         -1   -1    0    0    0  501 -0.00000000000E+00 -0.00000000000E+00 -0.16923028982E+03  0.16923028982E+03  0.00000000000E+00 0.  1.
         25    2    1    2    0    0 -0.72219935045E+02 -0.38616821488E+02  0.64113875105E+02  0.16267999808E+03  0.12508882793E+03 0.  0.
         23    2    1    2    0    0  0.72219935045E+02  0.38616821488E+02 -0.89834296539E+02  0.15006016014E+03  0.87982230626E+02 0.  0.
          5    1    3    3  502    0 -0.37198611370E+02  0.41678294676E+02  0.47440834114E+02  0.73409277863E+02  0.41800000000E+01 0. -1.
         -5    1    3    3    0  502 -0.35021323675E+02 -0.80295116164E+02  0.16673040992E+02  0.89270720215E+02  0.41800000000E+01 0. -1.
        -11    1    4    4    0    0  0.24123584892E+02 -0.34835200707E+01 -0.82139126051E+02  0.85679159009E+02  0.00000000000E+00 0.  1.
         11    1    4    4    0    0  0.48096350152E+02  0.42100341558E+02 -0.76951704880E+01  0.64381001127E+02  0.00000000000E+00 0. -1.
</event>
<event>
 8    1  0.3719512E-009  0.8234445E+02  0.7561462E-02  0.1322527E+00
         -2   -1    0    0    0  501 -0.00000000000E+00  0.00000000000E+00  0.16248329307E+02  0.16248329307E+02  0.00000000000E+00 0.  1.
          2   -1    0    0  501    0  0.00000000000E+00 -0.00000000000E+00 -0.74990685954E+03  0.74990685954E+03  0.00000000000E+00 0. -1.
         25    2    1    2    0    0 -0.39175475281E+00  0.78534937965E+01 -0.45603262049E+03  0.47294343871E+03  0.12509162415E+03 0.  0.
         23    2    1    2    0    0  0.39175475281E+00 -0.78534937965E+01 -0.27762590974E+03  0.29321175013E+03  0.93995498941E+02 0.  0.
          5    1    3    3  502    0  0.34438687633E+02  0.20107527118E+02 -0.41746895640E+03  0.41939019756E+03  0.41800000000E+01 0.  1.
         -5    1    3    3    0  502 -0.34830442385E+02 -0.12254033321E+02 -0.38563664085E+02  0.53553241144E+02  0.41800000000E+01 0.  1.
        -11    1    4    4    0    0  0.16091607970E+02  0.36764997259E+02 -0.18388456686E+03  0.18821301443E+03  0.00000000000E+00 0. -1.
         11    1    4    4    0    0 -0.15699853217E+02 -0.44618491056E+02 -0.93741342883E+02  0.10499873571E+03  0.00000000000E+00 0.  1.
</event>
<event>
 8    1  0.3719512E-009  0.2536131E+03  0.7561462E-02  0.1111042E+00
          4   -1    0    0  501    0  0.00000000000E+00  0.00000000000E+00  0.13427545526E+03  0.13427545526E+03  0.00000000000E+00 0.  1.
         -4   -1    0    0    0  501 -0.00000000000E+00 -0.00000000000E+00 -0.49954958263E+03  0.49954958263E+03  0.00000000000E+00 0. -1.
         25    2    1    2    0    0  0.20186456361E+03  0.11002256635E+03 -0.24701982436E+03  0.35989049824E+03  0.12509240564E+03 0.  0.
         23    2    1    2    0    0 -0.20186456361E+03 -0.11002256635E+03 -0.11825430301E+03  0.27393453964E+03  0.90563705115E+02 0.  0.
          5    1    3    3  502    0  0.93362321991E+02 -0.16605142288E+02 -0.88848517414E+02  0.13001455828E+03  0.41800000000E+01 0. -1.
         -5    1    3    3    0  502  0.10850224161E+03  0.12662770864E+03 -0.15817130695E+03  0.22987593996E+03  0.41800000000E+01 0. -1.
        -11    1    4    4    0    0 -0.89502457174E+02 -0.97642962139E+02 -0.48247352303E+02  0.14097036887E+03  0.00000000000E+00 0.  1.
         11    1    4    4    0    0 -0.11236210643E+03 -0.12379604209E+02 -0.70006950704E+02  0.13296417077E+03  0.00000000000E+00 0. -1.
</event>
<event>
 8    1  0.3719512E-009  0.2702868E+03  0.7561462E-02  0.1101116E+00
         -2   -1    0    0    0  501 -0.00000000000E+00  0.00000000000E+00  0.18806853224E+03  0.18806853224E+03  0.00000000000E+00 0.  1.
          2   -1    0    0  501    0  0.00000000000E+00 -0.00000000000E+00 -0.39695820023E+03  0.39695820023E+03  0.00000000000E+00 0. -1.
         25    2    1    2    0    0  0.24129601579E+03  0.59337020333E+02 -0.13845455245E+03  0.31074461042E+03  0.12509156884E+03 0.  0.
         23    2    1    2    0    0 -0.24129601579E+03 -0.59337020333E+02 -0.70435115538E+02  0.27428212204E+03  0.92330535331E+02 0.  0.
          5    1    3    3  502    0  0.11423502127E+03  0.89252899918E+02 -0.93804744232E+02  0.17272093871E+03  0.41800000000E+01 0.  1.
         -5    1    3    3    0  502  0.12706099451E+03 -0.29915879585E+02 -0.44649808223E+02  0.13802367171E+03  0.41800000000E+01 0.  1.
        -11    1    4    4    0    0 -0.50835381834E+02  0.24994346871E+02 -0.18748537189E+02  0.59669599198E+02  0.00000000000E+00 0.  1.
         11    1    4    4    0    0 -0.19046063395E+03 -0.84331367203E+02 -0.51686578349E+02  0.21461252284E+03  0.00000000000E+00 0. -1.
</event>
<event>
 8    1  0.3719512E-009  0.2295918E+03  0.7561462E-02  0.1126927E+00
          1   -1    0    0  501    0  0.00000000000E+00  0.00000000000E+00  0.27872097536E+03  0.27872097536E+03  0.00000000000E+00 0.  1.
         -1   -1    0    0    0  501 -0.00000000000E+00 -0.00000000000E+00 -0.23188032606E+03  0.23188032606E+03  0.00000000000E+00 0. -1.
         25    2    1    2    0    0 -0.83834362985E+02  0.18617077167E+03  0.12950639244E+03  0.27222767428E+03  0.12509294272E+03 0.  0.
         23    2    1    2    0    0  0.83834362985E+02 -0.18617077167E+03 -0.82665743138E+02  0.23837362714E+03  0.91107652740E+02 0.  0.
          5    1    3    3  502    0 -0.94187831833E+02  0.19988446263E+03  0.12529038980E+03  0.25404783062E+03  0.41800000000E+01 0. -1.
         -5    1    3    3    0  502  0.10353468848E+02 -0.13713690964E+02  0.42160026350E+01  0.18179843653E+02  0.41800000000E+01 0. -1.
        -11    1    4    4    0    0  0.12085496266E+02 -0.12678114701E+03 -0.67069885289E+02  0.14393709727E+03  0.00000000000E+00 0.  1.
         11    1    4    4    0    0  0.71748866719E+02 -0.59389624654E+02 -0.15595857849E+02  0.94436529871E+02  0.00000000000E+00 0. -1.
</event>
<event>
 8    1  0.3719512E-009  0.1304822E+03  0.7561462E-02  0.1226742E+00
         -1   -1    0    0    0  501 -0.00000000000E+00  0.00000000000E+00  0.41961269511E+03  0.41961269511E+03  0.00000000000E+00 0.  1.
          1   -1    0    0  501    0  0.00000000000E+00 -0.00000000000E+00 -0.47200134295E+02  0.47200134295E+02  0.00000000000E+00 0. -1.
         25    2    1    2    0    0 -0.80861776778E+02 -0.37870171389E+02  0.18993564847E+03  0.24432684478E+03  0.12508908704E+03 0.  0.
         23    2    1    2    0    0  0.80861776778E+02  0.37870171389E+02  0.18247691234E+03  0.22248598462E+03  0.90716112080E+02 0.  0.
          5    1    3    3  502    0 -0.48828266016E+02  0.35121135311E+02  0.13375919129E+03  0.14671975791E+03  0.41800000000E+01 0. -1.
         -5    1    3    3    0  502 -0.32033510762E+02 -0.72991306700E+02  0.56176457183E+02  0.97607086869E+02  0.41800000000E+01 0. -1.
        -11    1    4    4    0    0  0.30180026183E+02  0.58740951620E+02  0.13367142822E+03  0.14909521823E+03  0.00000000000E+00 0.  1.
         11    1    4    4    0    0  0.50681750595E+02 -0.20870780232E+02  0.48805484124E+02  0.73390766391E+02  0.00000000000E+00 0. -1.
</event>
<event>
 8    1  0.3719512E-009  0.1288188E+03  0.7561462E-02  0.1229219E+00
          3   -1    0    0  501    0  0.00000000000E+00  0.00000000000E+00  0.31516072645E+03  0.31516072645E+03  0.00000000000E+00 0. -1.
         -3   -1    0    0    0  501 -0.00000000000E+00 -0.00000000000E+00 -0.56399197825E+02  0.56399197825E+02  0.00000000000E+00 0.  1.
         25    2    1    2    0    0 -0.29158149079E+02  0.70511496109E+02  0.12037864438E+03  0.18963258319E+03  0.12508968719E+03 0.  0.
         23    2    1    2    0    0  0.29158149079E+02 -0.70511496109E+02  0.13838288425E+03  0.18192734109E+03  0.90142476346E+02 0.  0.
          5    1    3    3  502    0 -0.48393538575E+02 -0.17017535724E+02  0.20563731553E+02  0.55424458078E+02  0.41800000000E+01 0. -1.
         -5    1    3    3    0  502  0.19235389495E+02  0.87529031832E+02  0.99814912825E+02  0.13420812511E+03  0.41800000000E+01 0. -1.
        -11    1    4    4    0    0  0.26496405418E+02 -0.91519623338E+02  0.10021450192E+03  0.13827815211E+03  0.00000000000E+00 0.  1.
         11    1    4    4    0    0  0.26617436610E+01  0.21008127230E+02  0.38168382324E+02  0.43649188976E+02  0.00000000000E+00 0. -1.
</event>
<event>
 8    1  0.3719512E-009  0.1980214E+03  0.7561462E-02  0.1151419E+00
         -2   -1    0    0    0  501 -0.00000000000E+00  0.00000000000E+00  0.61774126807E+02  0.61774126807E+02  0.00000000000E+00 0.  1.
          2   -1    0    0  501    0  0.00000000000E+00 -0.00000000000E+00 -0.69882997817E+03  0.69882997817E+03  0.00000000000E+00 0. -1.
         25    2    1    2    0    0 -0.93001511798E+02  0.14952696991E+03 -0.29941975695E+03  0.36919750591E+03  0.12508801539E+03 0.  0.
         23    2    1    2    0    0  0.93001511798E+02 -0.14952696991E+03 -0.33763609441E+03  0.39140659906E+03  0.90517388454E+02 0.  0.
          5    1    3    3  502    0 -0.35573879926E+02  0.14089068320E+03 -0.15023860551E+03  0.20905692175E+03  0.41800000000E+01 0.  1.
         -5    1    3    3    0  502 -0.57427631872E+02  0.86362867052E+01 -0.14918115144E+03  0.16014058416E+03  0.41800000000E+01 0.  1.
        -11    1    4    4    0    0  0.17540804927E+02 -0.10148764491E+03 -0.22592427248E+03  0.24829256695E+03  0.00000000000E+00 0. -1.
         11    1    4    4    0    0  0.75460706871E+02 -0.48039325000E+02 -0.11171182193E+03  0.14311403211E+03  0.00000000000E+00 0.  1.
</event>
<event>
 8    1  0.3719512E-009  0.1094987E+03  0.7561462E-02  0.1261501E+00
         -1   -1    0    0    0  501 -0.00000000000E+00  0.00000000000E+00  0.34540186824E+03  0.34540186824E+03  0.00000000000E+00 0.  1.
          1   -1    0    0  501    0  0.00000000000E+00 -0.00000000000E+00 -0.61065929025E+02  0.61065929025E+02  0.00000000000E+00 0. -1.
         25    2    1    2    0    0  0.51976150079E+02  0.48119516790E+02  0.64758669744E+02  0.15766720574E+03  0.12509298296E+03 0.  0.
         23    2    1    2    0    0 -0.51976150079E+02 -0.48119516790E+02  0.21957726947E+03  0.24880059152E+03  0.93115782763E+02 0.  0.
          5    1    3    3  502    0  0.58486454726E+02 -0.13881819044E+02 -0.90834404805E+01  0.60937275762E+02  0.41800000000E+01 0. -1.
         -5    1    3    3    0  502 -0.65103046463E+01  0.62001335834E+02  0.73842110224E+02  0.96729929981E+02  0.41800000000E+01 0. -1.
        -11    1    4    4    0    0 -0.54574192279E+02 -0.69587272520E+01  0.19063765265E+03  0.19841744116E+03  0.00000000000E+00 0.  1.
         11    1    4    4    0    0  0.25980421999E+01 -0.41160789538E+02  0.28939616819E+02  0.50383150361E+02  0.00000000000E+00 0. -1.
</event>
<event>
 8    1  0.3719512E-009  0.1256409E+03  0.7561462E-02  0.1234071E+00
         -2   -1    0    0    0  501 -0.00000000000E+00  0.00000000000E+00  0.44767261964E+02  0.44767261964E+02  0.00000000000E+00 0.  1.
          2   -1    0    0  501    0  0.00000000000E+00 -0.00000000000E+00 -0.45171781119E+03  0.45171781119E+03  0.00000000000E+00 0. -1.
         25    2    1    2    0    0  0.87067746044E+02 -0.28487613454E+02 -0.21859400583E+03  0.26799842814E+03  0.12508989400E+03 0.  0.
         23    2    1    2    0    0 -0.87067746044E+02  0.28487613454E+02 -0.18835654340E+03  0.22848664501E+03  0.91299633004E+02 0.  0.
          5    1    3    3  502    0  0.81094263371E+02 -0.68343163152E+02 -0.19245815545E+03  0.21978326028E+03  0.41800000000E+01 0. -1.
         -5    1    3    3    0  502  0.59734826727E+01  0.39855549697E+02 -0.26135850384E+02  0.48215167865E+02  0.41800000000E+01 0. -1.
        -11    1    4    4    0    0 -0.84171468858E+02  0.86863970157E+01 -0.19041390989E+03  0.20836925575E+03  0.00000000000E+00 0. -1.
         11    1    4    4    0    0 -0.28962771859E+01  0.19801216439E+02  0.20573664871E+01  0.20117389265E+02  0.00000000000E+00 0.  1.
</event>
<event>
 8    1  0.3719512E-009  0.1243636E+03  0.7561462E-02  0.1236067E+00
         -3   -1    0    0    0  501 -0.00000000000E+00  0.00000000000E+00  0.90212661523E+02  0.90212661523E+02  0.00000000000E+00 0.  1.
          3   -1    0    0  501    0  0.00000000000E+00 -0.00000000000E+00 -0.25164108775E+03  0.25164108775E+03  0.00000000000E+00 0. -1.
         25    2    1    2    0    0  0.95989580307E+01  0.80615068310E+02 -0.16215572082E+03  0.22030296404E+03  0.12509192194E+03 0.  0.
         23    2    1    2    0    0 -0.95989580307E+01 -0.80615068310E+02  0.72729458762E+00  0.12155078524E+03  0.90460683177E+02 0.  0.
          5    1    3    3  502    0  0.32048163627E+02  0.10815666428E+03 -0.11540289714E+03  0.16143187383E+03  0.41800000000E+01 0. -1.
         -5    1    3    3    0  502 -0.22449205596E+02 -0.27541595969E+02 -0.46752823682E+02  0.58871090211E+02  0.41800000000E+01 0. -1.
        -11    1    4    4    0    0  0.21963612717E+02 -0.55644546965E+02  0.34460027188E+02  0.69037738697E+02  0.00000000000E+00 0.  1.
         11    1    4    4    0    0 -0.31562570748E+02 -0.24970521344E+02 -0.33732732600E+02  0.52513046542E+02  0.00000000000E+00 0. -1.
</event>
<event>
 8    1  0.3719512E-009  0.1095299E+03  0.7561462E-02  0.1261443E+00
         -2   -1    0    0    0  501 -0.00000000000E+00  0.00000000000E+00  0.22546366583E+02  0.22546366583E+02  0.00000000000E+00 0.  1.
          2   -1    0    0  501    0  0.00000000000E+00 -0.00000000000E+00 -0.56050191018E+03  0.56050191018E+03  0.00000000000E+00 0. -1.
         25    2    1    2    0    0  0.29686078437E+02 -0.41982467359E+01 -0.27093251597E+03  0.29991685724E+03  0.12508718767E+03 0.  0.
         23    2    1    2    0    0 -0.29686078437E+02  0.41982467359E+01 -0.26702302763E+03  0.28313141952E+03  0.89236847253E+02 0.  0.
          5    1    3    3  502    0  0.66284430143E+02  0.31840181356E+02 -0.19208828300E+03  0.20572506822E+03  0.41800000000E+01 0. -1.
         -5    1    3    3    0  502 -0.36598351706E+02 -0.36038428092E+02 -0.78844232975E+02  0.94191789028E+02  0.41800000000E+01 0. -1.
        -11    1    4    4    0    0  0.87207885877E+01 -0.36726984558E+02 -0.11795435014E+03  0.12384729413E+03  0.00000000000E+00 0.  1.
         11    1    4    4    0    0 -0.38406867025E+02  0.40925231294E+02 -0.14906867749E+03  0.15928412539E+03  0.00000000000E+00 0. -1.
</event>
<event>
 8    1  0.3719512E-009  0.1716714E+03  0.7561462E-02  0.1176116E+00
         -2   -1    0    0    0  501 -0.00000000000E+00  0.00000000000E+00  0.61969686679E+02  0.61969686679E+02  0.00000000000E+00 0.  1.
          2   -1    0    0  501    0  0.00000000000E+00 -0.00000000000E+00 -0.53660011694E+03  0.53660011694E+03  0.00000000000E+00 0. -1.
         25    2    1    2    0    0  0.13283852732E+03  0.38509655546E+02 -0.17029996386E+03  0.25253939600E+03  0.12507997813E+03 0.  0.
         23    2    1    2    0    0 -0.13283852732E+03 -0.38509655546E+02 -0.30433046640E+03  0.34603040762E+03  0.89392070733E+02 0.  0.
          5    1    3    3  502    0 -0.10627919561E+02 -0.26535288155E+02 -0.27391924779E+02  0.39810352105E+02  0.41800000000E+01 0. -1.
         -5    1    3    3    0  502  0.14346644688E+03  0.65044943701E+02 -0.14290803908E+03  0.21272904389E+03  0.41800000000E+01 0. -1.
        -11    1    4    4    0    0 -0.32409061199E+02 -0.45884545407E+02 -0.16365000183E+03  0.17302329859E+03  0.00000000000E+00 0. -1.
         11    1    4    4    0    0 -0.10042946612E+03  0.73748898604E+01 -0.14068046457E+03  0.17300710903E+03  0.00000000000E+00 0.  1.
</event>
<event>
 8    1  0.3719512E-009  0.8687665E+02  0.7561462E-02  0.1310597E+00
          2   -1    0    0  501    0  0.00000000000E+00  0.00000000000E+00  0.23064500976E+03  0.23064500976E+03  0.00000000000E+00 0. -1.
         -2   -1    0    0    0  501 -0.00000000000E+00 -0.00000000000E+00 -0.68623347704E+02  0.68623347704E+02  0.00000000000E+00 0.  1.
         25    2    1    2    0    0 -0.38702466895E+02  0.48969659769E+02  0.69675114016E+02  0.15619688809E+03  0.12508772048E+03 0.  0.
         23    2    1    2    0    0  0.38702466895E+02 -0.48969659769E+02  0.92346548037E+02  0.14307146937E+03  0.89697557892E+02 0.  0.
          5    1    3    3  502    0 -0.70034446161E-01  0.34732534766E+02 -0.31380809939E+02  0.46995547753E+02  0.41800000000E+01 0.  1.
         -5    1    3    3    0  502 -0.38632432448E+02  0.14237125003E+02  0.10105592396E+03  0.10920134034E+03  0.41800000000E+01 0.  1.
        -11    1    4    4    0    0 -0.22716541790E+02 -0.11851683079E+02 -0.61854570514E+00  0.25629792458E+02  0.00000000000E+00 0.  1.
         11    1    4    4    0    0  0.61419008684E+02 -0.37117976690E+02  0.92965093743E+02  0.11744167691E+03  0.00000000000E+00 0. -1.
</event>
<event>
 8    1  0.3719512E-009  0.6410857E+02  0.7561462E-02  0.1381356E+00
          2   -1    0    0  501    0  0.00000000000E+00  0.00000000000E+00  0.49448249475E+02  0.49448249475E+02  0.00000000000E+00 0. -1.
         -2   -1    0    0    0  501 -0.00000000000E+00 -0.00000000000E+00 -0.27354269680E+03  0.27354269680E+03  0.00000000000E+00 0.  1.
         25    2    1    2    0    0 -0.11617720045E+02 -0.62810000292E+01 -0.18188126315E+03  0.22113596719E+03  0.12508357093E+03 0.  0.
         23    2    1    2    0    0  0.11617720045E+02  0.62810000292E+01 -0.42213184173E+02  0.10185497909E+03  0.91749994371E+02 0.  0.
          5    1    3    3  502    0 -0.33953660103E+02  0.14675387473E+02 -0.59135770166E+00  0.37229559973E+02  0.41800000000E+01 0.  1.
         -5    1    3    3    0  502  0.22335940058E+02 -0.20956387502E+02 -0.18128990545E+03  0.18390640721E+03  0.41800000000E+01 0.  1.
        -11    1    4    4    0    0  0.19529790996E+02  0.29596370626E+02  0.15809935289E+02  0.38824115501E+02  0.00000000000E+00 0. -1.
         11    1    4    4    0    0 -0.79120709511E+01 -0.23315370597E+02 -0.58023119462E+02  0.63030863590E+02  0.00000000000E+00 0.  1.
</event>
<event>
 8    1  0.3719512E-009  0.7343227E+02  0.7561462E-02  0.1348796E+00
          1   -1    0    0  501    0  0.00000000000E+00  0.00000000000E+00  0.35030787680E+03  0.35030787680E+03  0.00000000000E+00 0. -1.
         -1   -1    0    0    0  501 -0.00000000000E+00 -0.00000000000E+00 -0.34630650574E+02  0.34630650574E+02  0.00000000000E+00 0.  1.
         25    2    1    2    0    0 -0.10191396155E+02  0.10586191500E+02  0.20754474888E+03  0.24277209015E+03  0.12509009938E+03 0.  0.
         23    2    1    2    0    0  0.10191396155E+02 -0.10586191500E+02  0.10813247735E+03  0.14216643722E+03  0.91119324015E+02 0.  0.
          5    1    3    3  502    0 -0.35315116683E+02 -0.87289836147E+01  0.41166276244E+01  0.36847953054E+02  0.41800000000E+01 0. -1.
         -5    1    3    3    0  502  0.25123720527E+02  0.19315175115E+02  0.20342812126E+03  0.20592413710E+03  0.41800000000E+01 0. -1.
        -11    1    4    4    0    0 -0.50365531283E+01 -0.42565570797E+02  0.20231205428E+02  0.47397218882E+02  0.00000000000E+00 0.  1.
         11    1    4    4    0    0  0.15227949284E+02  0.31979379297E+02  0.87901271921E+02  0.94769218341E+02  0.00000000000E+00 0. -1.
</event>
<event>
 8    1  0.3719512E-009  0.9936293E+02  0.7561462E-02  0.1281641E+00
         -1   -1    0    0    0  501 -0.00000000000E+00  0.00000000000E+00  0.66328181230E+02  0.66328181230E+02  0.00000000000E+00 0.  1.
          1   -1    0    0  501    0  0.00000000000E+00 -0.00000000000E+00 -0.24195418951E+03  0.24195418951E+03  0.00000000000E+00 0. -1.
         25    2    1    2    0    0  0.46001736768E+02 -0.43435713517E+02 -0.56081280917E+02  0.15098984373E+03  0.12509996741E+03 0.  0.
         23    2    1    2    0    0 -0.46001736768E+02  0.43435713517E+02 -0.11954472736E+03  0.15729252701E+03  0.80294310006E+02 0.  0.
          5    1    3    3  502    0 -0.96283148383E+01  0.30038796295E+02  0.14367834176E+02  0.34913332531E+02  0.41800000000E+01 0.  1.
         -5    1    3    3    0  502  0.55630051606E+02 -0.73474509813E+02 -0.70449115094E+02  0.11607651120E+03  0.41800000000E+01 0.  1.
        -11    1    4    4    0    0 -0.48215898212E+02  0.21819313804E+02 -0.21927182051E+02  0.57285745242E+02  0.00000000000E+00 0.  1.
         11    1    4    4    0    0  0.22141614441E+01  0.21616399713E+02 -0.97617545309E+02  0.10000678177E+03  0.00000000000E+00 0. -1.
</event>
<event>
 8    1  0.3719512E-009  0.1387831E+03  0.7561462E-02  0.1214976E+00
          2   -1    0    0  501    0  0.00000000000E+00  0.00000000000E+00  0.15688123215E+03  0.15688123215E+03  0.00000000000E+00 0. -1.
         -2   -1    0    0    0  501 -0.00000000000E+00 -0.00000000000E+00 -0.19698007681E+03  0.19698007681E+03  0.00000000000E+00 0.  1.
         25    2    1    2    0    0 -0.30425495218E+02 -0.10559858811E+03 -0.10407902323E+03  0.19635933564E+03  0.12509105902E+03 0.  0.
         23    2    1    2    0    0  0.30425495218E+02  0.10559858811E+03  0.63980178567E+02  0.15750197332E+03  0.92933501921E+02 0.  0.
          5    1    3    3  502    0 -0.56695220939E+02 -0.25916316007E+01 -0.55200398427E+02  0.79281908518E+02  0.41800000000E+01 0.  1.
         -5    1    3    3    0  502  0.26269725722E+02 -0.10300695651E+03 -0.48878624801E+02  0.11707742712E+03  0.41800000000E+01 0.  1.
        -11    1    4    4    0    0  0.49786969119E+01  0.71762793862E+02 -0.96381865868E+01  0.72578100323E+02  0.00000000000E+00 0.  1.
         11    1    4    4    0    0  0.25446798306E+02  0.33835794247E+02  0.73618365154E+02  0.84923872994E+02  0.00000000000E+00 0. -1.
</event>
<event>
 8    1  0.3719512E-009  0.1133950E+03  0.7561462E-02  0.1254409E+00
          2   -1    0    0  501    0  0.00000000000E+00  0.00000000000E+00  0.18827606540E+04  0.18827606540E+04  0.00000000000E+00 0. -1.
         -2   -1    0    0    0  501 -0.00000000000E+00 -0.00000000000E+00 -0.10351904317E+02  0.10351904317E+02  0.00000000000E+00 0.  1.
         25    2    1    2    0    0  0.81153402304E+02 -0.23848838263E+02  0.11352566839E+04  0.11452552909E+04  0.12508917255E+03 0.  0.
         23    2    1    2    0    0 -0.81153402304E+02  0.23848838263E+02  0.73715206575E+03  0.74785726743E+03  0.93502313460E+02 0.  0.
          5    1    3    3  502    0  0.81655645365E+02 -0.55708364670E+01  0.11135745405E+04  0.11165860505E+04  0.41800000000E+01 0.  1.
         -5    1    3    3    0  502 -0.50224306060E+00 -0.18278001796E+02  0.21682143467E+02  0.28669240364E+02  0.41800000000E+01 0.  1.
        -11    1    4    4    0    0  0.86401876437E+00 -0.28674486007E+02  0.16547850938E+03  0.16794674674E+03  0.00000000000E+00 0.  1.
         11    1    4    4    0    0 -0.82017421069E+02  0.52523324270E+02  0.57167355637E+03  0.57991052069E+03  0.00000000000E+00 0. -1.
</event>
<event>
 8    1  0.3719512E-009  0.2441534E+03  0.7561462E-02  0.1117056E+00
          2   -1    0    0  501    0  0.00000000000E+00  0.00000000000E+00  0.68011460443E+03  0.68011460443E+03  0.00000000000E+00 0. -1.
         -2   -1    0    0    0  501 -0.00000000000E+00 -0.00000000000E+00 -0.11331385635E+03  0.11331385635E+03  0.00000000000E+00 0.  1.
         25    2    1    2    0    0  0.21881130208E+03 -0.39378780734E+02  0.46887479585E+03  0.53377989264E+03  0.12509326644E+03 0.  0.
         23    2    1    2    0    0 -0.21881130208E+03  0.39378780734E+02  0.97925952231E+02  0.25964856814E+03  0.91645035468E+02 0.  0.
          5    1    3    3  502    0  0.66259695212E+02  0.41801933882E+02  0.10639159626E+03  0.13219074491E+03  0.41800000000E+01 0.  1.
         -5    1    3    3    0  502  0.15255160687E+03 -0.81180714616E+02  0.36248319959E+03  0.40158914773E+03  0.41800000000E+01 0.  1.
        -11    1    4    4    0    0 -0.31079655649E+02 -0.23551875922E+02  0.33567071216E+02  0.51452736805E+02  0.00000000000E+00 0.  1.
         11    1    4    4    0    0 -0.18773164643E+03  0.62930656657E+02  0.64358881015E+02  0.20819583133E+03  0.00000000000E+00 0. -1.
</event>
<event>
 8    1  0.3719512E-009  0.9150164E+02  0.7561462E-02  0.1299255E+00
         -1   -1    0    0    0  501 -0.00000000000E+00  0.00000000000E+00  0.95520222170E+02  0.95520222170E+02  0.00000000000E+00 0.  1.
          1   -1    0    0  501    0  0.00000000000E+00 -0.00000000000E+00 -0.13275072404E+03  0.13275072404E+03  0.00000000000E+00 0. -1.
         25    2    1    2    0    0 -0.94024106908E+01 -0.21402743777E+02 -0.82073014989E+01  0.12752071110E+03  0.12509072385E+03 0.  0.
         23    2    1    2    0    0  0.94024106908E+01  0.21402743777E+02 -0.29023200368E+02  0.10075023511E+03  0.93604385300E+02 0.  0.
          5    1    3    3  502    0 -0.53842929487E+02  0.91532509828E+01  0.28891701210E+02  0.61927747078E+02  0.41800000000E+01 0. -1.
         -5    1    3    3    0  502  0.44440518796E+02 -0.30555994760E+02 -0.37099002709E+02  0.65592964018E+02  0.41800000000E+01 0. -1.
        -11    1    4    4    0    0 -0.21828103591E+02  0.34045604533E+02  0.16867883200E+02  0.43818886089E+02  0.00000000000E+00 0.  1.
         11    1    4    4    0    0  0.31230514282E+02 -0.12642860756E+02 -0.45891083569E+02  0.56931349022E+02  0.00000000000E+00 0. -1.
</event>
<event>
 8    1  0.3719512E-009  0.1302140E+03  0.7561462E-02  0.1227139E+00
         -1   -1    0    0    0  501 -0.00000000000E+00  0.00000000000E+00  0.28392499002E+03  0.28392499002E+03  0.00000000000E+00 0.  1.
          1   -1    0    0  501    0  0.00000000000E+00 -0.00000000000E+00 -0.73229370848E+02  0.73229370848E+02  0.00000000000E+00 0. -1.
         25    2    1    2    0    0  0.85505968687E+02 -0.51210702365E+01  0.65499579030E+02  0.16515233993E+03  0.12509038528E+03 0.  0.
         23    2    1    2    0    0 -0.85505968687E+02  0.51210702365E+01  0.14519604014E+03  0.19200202093E+03  0.91898802656E+02 0.  0.
          5    1    3    3  502    0  0.11093493532E+03  0.50181342082E+00  0.20352702275E+02  0.11286503702E+03  0.41800000000E+01 0. -1.
         -5    1    3    3    0  502 -0.25428966636E+02 -0.56228836573E+01  0.45146876755E+02  0.52287302909E+02  0.41800000000E+01 0. -1.
        -11    1    4    4    0    0 -0.31246490221E+02  0.45644318012E+02  0.84886887206E+02  0.10131895448E+03  0.00000000000E+00 0.  1.
         11    1    4    4    0    0 -0.54259478466E+02 -0.40523247776E+02  0.60309152932E+02  0.90683066452E+02  0.00000000000E+00 0. -1.
</event>
<event>
 8    1  0.3719512E-009  0.1512584E+03  0.7561462E-02  0.1198935E+00
          2   -1    0    0  501    0  0.00000000000E+00  0.00000000000E+00  0.87533721108E+02  0.87533721108E+02  0.00000000000E+00 0. -1.
         -2   -1    0    0    0  501 -0.00000000000E+00 -0.00000000000E+00 -0.28107053646E+03  0.28107053646E+03  0.00000000000E+00 0.  1.
         25    2    1    2    0    0 -0.73411131601E+02  0.78229034737E+02 -0.14656114650E+03  0.22053666041E+03  0.12508905947E+03 0.  0.
         23    2    1    2    0    0  0.73411131601E+02 -0.78229034737E+02 -0.46975668850E+02  0.14806759716E+03  0.90599799927E+02 0.  0.
          5    1    3    3  502    0  0.25525186770E+02  0.57520194320E+02 -0.47585353816E+02  0.79005988457E+02  0.41800000000E+01 0. -1.
         -5    1    3    3    0  502 -0.98936318371E+02  0.20708840418E+02 -0.98975792688E+02  0.14153067195E+03  0.41800000000E+01 0. -1.
        -11    1    4    4    0    0  0.89713553355E+02 -0.43047715105E+02 -0.21892122085E+02  0.10188666469E+03  0.00000000000E+00 0.  1.
         11    1    4    4    0    0 -0.16302421755E+02 -0.35181319633E+02 -0.25083546765E+02  0.46180932477E+02  0.00000000000E+00 0. -1.
</event>
<event>
 8    1  0.3719512E-009  0.1232333E+03  0.7561462E-02  0.1237856E+00
          1   -1    0    0  501    0  0.00000000000E+00  0.00000000000E+00  0.18748396278E+03  0.18748396278E+03  0.00000000000E+00 0. -1.
         -1   -1    0    0    0  501 -0.00000000000E+00 -0.00000000000E+00 -0.95339501537E+02  0.95339501537E+02  0.00000000000E+00 0.  1.
         25    2    1    2    0    0  0.68373221924E+02 -0.38258336633E+02  0.50021269947E+02  0.15584745054E+03  0.12509077741E+03 0.  0.
         23    2    1    2    0    0 -0.68373221924E+02  0.38258336633E+02  0.42123191293E+02  0.12697601378E+03  0.90608758028E+02 0.  0.
          5    1    3    3  502    0  0.94320498276E+02 -0.34319183964E+02  0.70135877029E+02  0.12251806573E+03  0.41800000000E+01 0.  1.
         -5    1    3    3    0  502 -0.25947276352E+02 -0.39391526692E+01 -0.20114607082E+02  0.33329384812E+02  0.41800000000E+01 0.  1.
        -11    1    4    4    0    0  0.35437533140E+01 -0.24031695688E+02  0.12558360494E+02  0.27345804129E+02  0.00000000000E+00 0. -1.
         11    1    4    4    0    0 -0.71916975238E+02  0.62290032321E+02  0.29564830799E+02  0.99630209646E+02  0.00000000000E+00 0.  1.
</event>
<event>
 8    1  0.3719512E-009  0.8846815E+02  0.7561462E-02  0.1306604E+00
         -1   -1    0    0    0  501 -0.00000000000E+00  0.00000000000E+00  0.13344587717E+03  0.13344587717E+03  0.00000000000E+00 0.  1.
          1   -1    0    0  501    0  0.00000000000E+00 -0.00000000000E+00 -0.13847074633E+03  0.13847074633E+03  0.00000000000E+00 0. -1.
         25    2    1    2    0    0 -0.49116146709E+01  0.49907572269E+02  0.62436649100E+02  0.14852457232E+03  0.12508526573E+03 0.  0.
         23    2    1    2    0    0  0.49116146709E+01 -0.49907572269E+02 -0.67461518254E+02  0.12339205118E+03  0.90330792766E+02 0.  0.
          5    1    3    3  502    0  0.46033712425E+02  0.95400584540E+01  0.68416340480E+02  0.83116685687E+02  0.41800000000E+01 0. -1.
         -5    1    3    3    0  502 -0.50945327096E+02  0.40367513815E+02 -0.59796913801E+01  0.65407886631E+02  0.41800000000E+01 0. -1.
        -11    1    4    4    0    0 -0.16991178418E+02 -0.32322822327E+02 -0.83437302508E+02  0.91078254469E+02  0.00000000000E+00 0. -1.
         11    1    4    4    0    0  0.21902793089E+02 -0.17584749942E+02  0.15975784254E+02  0.32313796715E+02  0.00000000000E+00 0.  1.
</event>
<event>
 8    1  0.3719512E-009  0.9082761E+02  0.7561462E-02  0.1300860E+00
         -2   -1    0    0    0  501 -0.00000000000E+00  0.00000000000E+00  0.25460208005E+02  0.25460208005E+02  0.00000000000E+00 0.  1.
          2   -1    0    0  501    0  0.00000000000E+00 -0.00000000000E+00 -0.51158920168E+03  0.51158920168E+03  0.00000000000E+00 0. -1.
         25    2    1    2    0    0  0.24515114979E+01  0.28108291917E+02 -0.21752215153E+03  0.25250598496E+03  0.12508916839E+03 0.  0.
         23    2    1    2    0    0 -0.24515114979E+01 -0.28108291917E+02 -0.26860684214E+03  0.28454342473E+03  0.89550203393E+02 0.  0.
          5    1    3    3  502    0  0.10359080867E+02 -0.30711312118E+02 -0.65820679984E+01  0.33336035570E+02  0.41800000000E+01 0. -1.
         -5    1    3    3    0  502 -0.79075693691E+01  0.58819604035E+02 -0.21094008354E+03  0.21916994939E+03  0.41800000000E+01 0. -1.
        -11    1    4    4    0    0  0.65734162798E+01 -0.57940511340E+02 -0.21256009553E+03  0.22041349067E+03  0.00000000000E+00 0.  1.
         11    1    4    4    0    0 -0.90249277777E+01  0.29832219423E+02 -0.56046746613E+02  0.64129934063E+02  0.00000000000E+00 0. -1.
</event>
<event>
 8    1  0.3719512E-009  0.8741160E+02  0.7561462E-02  0.1309244E+00
         -3   -1    0    0    0  501 -0.00000000000E+00  0.00000000000E+00  0.66491069359E+02  0.66491069359E+02  0.00000000000E+00 0.  1.
          3   -1    0    0  501    0  0.00000000000E+00 -0.00000000000E+00 -0.19843647046E+03  0.19843647046E+03  0.00000000000E+00 0. -1.
         25    2    1    2    0    0  0.19840500147E+01  0.19663492044E+02 -0.36444634531E+02  0.13178163654E+03  0.12509036322E+03 0.  0.
         23    2    1    2    0    0 -0.19840500147E+01 -0.19663492044E+02 -0.95500766570E+02  0.13314590327E+03  0.90646818861E+02 0.  0.
          5    1    3    3  502    0  0.25033113431E+02 -0.31246428224E+02 -0.58956353100E+02  0.71388514592E+02  0.41800000000E+01 0. -1.
         -5    1    3    3    0  502 -0.23049063416E+02  0.50909920269E+02  0.22511718569E+02  0.60393121952E+02  0.41800000000E+01 0. -1.
        -11    1    4    4    0    0 -0.39003896057E+02 -0.98002448796E+01 -0.13136425235E+02  0.42307379679E+02  0.00000000000E+00 0.  1.
         11    1    4    4    0    0  0.37019846042E+02 -0.98632471649E+01 -0.82364341335E+02  0.90838523596E+02  0.00000000000E+00 0. -1.
</event>
<event>
 8    1  0.3719512E-009  0.1532612E+03  0.7561462E-02  0.1196522E+00
         -1   -1    0    0    0  501 -0.00000000000E+00  0.00000000000E+00  0.62071744347E+03  0.62071744347E+03  0.00000000000E+00 0.  1.
          1   -1    0    0  501    0  0.00000000000E+00 -0.00000000000E+00 -0.48862919868E+02  0.48862919868E+02  0.00000000000E+00 0. -1.
         25    2    1    2    0    0  0.12171046649E+03 -0.10961383086E+02  0.41501337742E+03  0.45035191890E+03  0.12508859998E+03 0.  0.
         23    2    1    2    0    0 -0.12171046649E+03  0.10961383086E+02  0.15684114619E+03  0.21922844445E+03  0.92349207602E+02 0.  0.
          5    1    3    3  502    0  0.10834631594E+03 -0.45700950000E+02  0.38431344870E+03  0.40192262970E+03  0.41800000000E+01 0.  1.
         -5    1    3    3    0  502  0.13364150546E+02  0.34739566915E+02  0.30699928719E+02  0.48429289202E+02  0.41800000000E+01 0.  1.
        -11    1    4    4    0    0 -0.40058227395E+02  0.47338876200E+02  0.80918459140E+02  0.10194816237E+03  0.00000000000E+00 0.  1.
         11    1    4    4    0    0 -0.81652239093E+02 -0.36377493114E+02  0.75922687048E+02  0.11728028207E+03  0.00000000000E+00 0. -1.
</event>
<event>
 8    1  0.3719512E-009  0.8296069E+02  0.7561462E-02  0.1320853E+00
         -1   -1    0    0    0  501 -0.00000000000E+00  0.00000000000E+00  0.15816112759E+02  0.15816112759E+02  0.00000000000E+00 0.  1.
          1   -1    0    0  501    0  0.00000000000E+00 -0.00000000000E+00 -0.75336703016E+03  0.75336703016E+03  0.00000000000E+00 0. -1.
         25    2    1    2    0    0  0.77360828438E+01  0.12329662661E+02 -0.47445158118E+03  0.49088035613E+03  0.12508938241E+03 0.  0.
         23    2    1    2    0    0 -0.77360828438E+01 -0.12329662661E+02 -0.26309933622E+03  0.27830278679E+03  0.89550616161E+02 0.  0.
          5    1    3    3  502    0  0.46639783061E+02  0.16131501117E+02 -0.42418659911E+03  0.42706818888E+03  0.41800000000E+01 0. -1.
         -5    1    3    3    0  502 -0.38903700218E+02 -0.38018384560E+01 -0.50264982070E+02  0.63812167247E+02  0.41800000000E+01 0. -1.
        -11    1    4    4    0    0 -0.22760164228E+02  0.26803927911E+02 -0.19641333122E+03  0.19953614286E+03  0.00000000000E+00 0. -1.
         11    1    4    4    0    0  0.15024081384E+02 -0.39133590571E+02 -0.66686005002E+02  0.78766643927E+02  0.00000000000E+00 0.  1.
</event>
<event>
 8    1  0.3719512E-009  0.1494016E+03  0.7561462E-02  0.1201210E+00
          2   -1    0    0  501    0  0.00000000000E+00  0.00000000000E+00  0.40394292710E+03  0.40394292710E+03  0.00000000000E+00 0. -1.
         -2   -1    0    0    0  501 -0.00000000000E+00 -0.00000000000E+00 -0.66177685333E+02  0.66177685333E+02  0.00000000000E+00 0.  1.
         25    2    1    2    0    0  0.19689872760E+02  0.11332088043E+03  0.23647865632E+03  0.29120307770E+03  0.12509102501E+03 0.  0.
         23    2    1    2    0    0 -0.19689872760E+02 -0.11332088043E+03  0.10128658545E+03  0.17891753474E+03  0.92321172077E+02 0.  0.
          5    1    3    3  502    0 -0.52982403778E+02  0.50099244346E+02  0.91183884751E+02  0.11682911723E+03  0.41800000000E+01 0.  1.
         -5    1    3    3    0  502  0.72672276538E+02  0.63221636079E+02  0.14529477156E+03  0.17437396047E+03  0.41800000000E+01 0.  1.
        -11    1    4    4    0    0  0.14131225547E+02 -0.82150167049E+02  0.20317987206E+02  0.85797214907E+02  0.00000000000E+00 0.  1.
         11    1    4    4    0    0 -0.33821098307E+02 -0.31170713376E+02  0.80968598246E+02  0.93120319829E+02  0.00000000000E+00 0. -1.
</event>
<event>
 8    1  0.3719512E-009  0.1782009E+03  0.7561462E-02  0.1169556E+00
          2   -1    0    0  501    0  0.00000000000E+00  0.00000000000E+00  0.95412487992E+03  0.95412487992E+03  0.00000000000E+00 0. -1.
         -2   -1    0    0    0  501 -0.00000000000E+00 -0.00000000000E+00 -0.34400044163E+02  0.34400044163E+02  0.00000000000E+00 0.  1.
         25    2    1    2    0    0 -0.75109956525E+01  0.14321493382E+03  0.42984315348E+03  0.47008271266E+03  0.12508272391E+03 0.  0.
         23    2    1    2    0    0  0.75109956525E+01 -0.14321493382E+03  0.48988168228E+03  0.51844221143E+03  0.90726686434E+02 0.  0.
          5    1    3    3  502    0  0.28752472959E+02  0.14799314577E+03  0.31050259484E+03  0.34519271386E+03  0.41800000000E+01 0. -1.
         -5    1    3    3    0  502 -0.36263468612E+02 -0.47782119414E+01  0.11934055864E+03  0.12488999881E+03  0.41800000000E+01 0. -1.
        -11    1    4    4    0    0 -0.14962105757E+01  0.12602481815E+02  0.24606528170E+02  0.27686502534E+02  0.00000000000E+00 0. -1.
         11    1    4    4    0    0  0.90072062282E+01 -0.15581741564E+03  0.46527515411E+03  0.49075570889E+03  0.00000000000E+00 0.  1.
</event>
<event>
 8    1  0.3719512E-009  0.6519849E+02  0.7561462E-02  0.1377226E+00
         -1   -1    0    0    0  501 -0.00000000000E+00  0.00000000000E+00  0.90455004369E+02  0.90455004369E+02  0.00000000000E+00 0.  1.
          1   -1    0    0  501    0  0.00000000000E+00 -0.00000000000E+00 -0.15289866344E+03  0.15289866344E+03  0.00000000000E+00 0. -1.
         25    2    1    2    0    0 -0.71269556255E+01 -0.47143701974E+02 -0.50605149723E+02  0.14311508349E+03  0.12509086223E+03 0.  0.
         23    2    1    2    0    0  0.71269556255E+01  0.47143701974E+02 -0.11838509352E+02  0.10023858432E+03  0.87374489130E+02 0.  0.
          5    1    3    3  502    0 -0.49241517536E+01 -0.42360506084E+02  0.36172983905E+02  0.56076883926E+02  0.41800000000E+01 0. -1.
         -5    1    3    3    0  502 -0.22028038719E+01 -0.47831958900E+01 -0.86778133629E+02  0.87038199567E+02  0.41800000000E+01 0. -1.
        -11    1    4    4    0    0  0.13274818980E+02  0.62703443722E+02 -0.33935275695E+02  0.72522724783E+02  0.00000000000E+00 0. -1.
         11    1    4    4    0    0 -0.61478633543E+01 -0.15559741748E+02  0.22096766343E+02  0.27715859537E+02  0.00000000000E+00 0.  1.
</event>
<event>
 8    1  0.3719512E-009  0.1283852E+03  0.7561462E-02  0.1229872E+00
          2   -1    0    0  501    0  0.00000000000E+00  0.00000000000E+00  0.73888526027E+03  0.73888526027E+03  0.00000000000E+00 0. -1.
         -2   -1    0    0    0  501 -0.00000000000E+00 -0.00000000000E+00 -0.24319597453E+02  0.24319597453E+02  0.00000000000E+00 0.  1.
         25    2    1    2    0    0 -0.77706696540E+02  0.12732347888E+02  0.38551381130E+03  0.41287887356E+03  0.12509045589E+03 0.  0.
         23    2    1    2    0    0  0.77706696540E+02 -0.12732347888E+02  0.32905185151E+03  0.35032598417E+03  0.90844542089E+02 0.  0.
          5    1    3    3  502    0 -0.74097125040E+02 -0.41599299671E+02  0.29634065157E+03  0.30831175755E+03  0.41800000000E+01 0.  1.
         -5    1    3    3    0  502 -0.36095714999E+01  0.54331647559E+02  0.89173159733E+02  0.10456711600E+03  0.41800000000E+01 0.  1.
        -11    1    4    4    0    0  0.77408805316E+01  0.32735527936E+02  0.61943930160E+02  0.70488201171E+02  0.00000000000E+00 0.  1.
         11    1    4    4    0    0  0.69965816009E+02 -0.45467875824E+02  0.26710792135E+03  0.27983778300E+03  0.00000000000E+00 0. -1.
</event>
<event>
 8    1  0.3719512E-009  0.7526816E+02  0.7561462E-02  0.1343043E+00
         -2   -1    0    0    0  501 -0.00000000000E+00  0.00000000000E+00  0.10010450997E+03  0.10010450997E+03  0.00000000000E+00 0.  1.
          2   -1    0    0  501    0  0.00000000000E+00 -0.00000000000E+00 -0.16024019695E+03  0.16024019695E+03  0.00000000000E+00 0. -1.
         25    2    1    2    0    0  0.37531342007E+02 -0.32724171835E+02  0.71951513954E+01  0.13482813252E+03  0.12508949620E+03 0.  0.
         23    2    1    2    0    0 -0.37531342007E+02  0.32724171835E+02 -0.67330838376E+02  0.12551657440E+03  0.93495965674E+02 0.  0.
          5    1    3    3  502    0  0.25401631868E+02 -0.44050492159E+01 -0.57443088349E+02  0.63101728654E+02  0.41800000000E+01 0. -1.
         -5    1    3    3    0  502  0.12129710138E+02 -0.28319122619E+02  0.64638239744E+02  0.71726403863E+02  0.41800000000E+01 0. -1.
        -11    1    4    4    0    0  0.19845187040E+02  0.29895668367E+02 -0.56691744706E+02  0.67093489651E+02  0.00000000000E+00 0. -1.
         11    1    4    4    0    0 -0.57376529047E+02  0.28285034681E+01 -0.10639093670E+02  0.58423084748E+02  0.00000000000E+00 0.  1.
</event>
